Title
81331
    1CHL1    C3    1   1.068   1.164  10.379  0.3400 -0.0948  0.2281
    1CHL1    H3    2   0.973   1.124  10.335  0.8382 -0.7039 -0.3155
    1CHL1    O3    3   1.058   1.198  10.517 -0.3366  0.2684  0.8051
    1CHL1   H3'    4   1.143   1.231  10.547 -2.4245  3.1889  4.2187
    1CHL1    C4    5   1.174   1.059  10.354  0.2373  0.2392  0.7639
    1CHL1   H4A    6   1.266   1.079  10.413  0.2436 -3.5240  2.3148
    1CHL1   H4B    7   1.150   0.959  10.397  2.4640 -1.3460 -1.4371
    1CHL1    C5    8   1.201   1.046  10.203  0.0435  0.2648  0.2965
    1CHL1    C6    9   1.200   0.933  10.130 -0.0965  0.0705  0.1531
    1CHL1    H6   10   1.186   0.836  10.179 -0.0880 -0.7597 -1.4277
    1CHL1    C7   11   1.222   0.921   9.981  0.3077 -0.3359 -0.7498
    1CHL1   H7A   12   1.286   0.836   9.948  1.5839 -0.1286  1.0423
    1CHL1   H7B   13   1.126   0.919   9.926  0.2709  3.2653 -1.0938
    1CHL1    C8   14   1.308   1.046   9.930  0.2538 -0.3180 -0.1108
    1CHL1    H8   15   1.410   1.039   9.973  0.4099 -0.6638 -0.5351
    1CHL1   C14   16   1.317   1.049   9.779  0.3404 -0.4463 -0.9868
    1CHL1   H14   17   1.211   1.056   9.745  0.1442  0.9344 -0.1971
    1CHL1   C15   18   1.366   0.921   9.720  0.9569 -0.4929  0.4637
    1CHL1  H15A   19   1.448   0.885   9.786 -1.2958 -0.5576  3.4718
    1CHL1  H15B   20   1.290   0.840   9.725 -0.9942  1.3113  2.6882
    1CHL1   C16   21   1.403   0.956   9.585  0.1010 -0.5466 -0.1008
    1CHL1  H16A   22   1.506   0.922   9.563  0.3471 -0.6612  1.1609
    1CHL1  H16B   23   1.330   0.907   9.518  0.4154 -1.8476  0.4816
    1CHL1   C17   24   1.396   1.109   9.568 -0.4268 -0.6956  0.1945
    1CHL1   H17   25   1.294   1.126   9.527 -0.5236 -0.8197  0.3834
    1CHL1   C13   26   1.395   1.162   9.712  0.1634  0.4546 -0.0191
    1CHL1   C18   27   1.546   1.160   9.760  0.6565 -0.8226  0.1785
    1CHL1  H18A   28   1.604   1.074   9.721  1.0246 -1.5218  2.1670
    1CHL1  H18B   29   1.598   1.254   9.730  2.0636 -1.2837  1.0529
    1CHL1  H18C   30   1.550   1.163   9.871 -2.8784 -1.1672  0.4436
    1CHL1   C12   31   1.328   1.292   9.753  0.0318 -1.0117 -0.0080
    1CHL1  H12A   32   1.396   1.374   9.720 -1.0018 -0.6337 -1.2626
    1CHL1  H12B   33   1.224   1.307   9.715 -0.0972  0.0087  0.6855
    1CHL1   C11   34   1.303   1.298   9.905 -0.1758  0.1166 -0.3185
    1CHL1  H11A   35   1.399   1.336   9.947  0.6274  1.2604 -2.9340
    1CHL1  H11B   36   1.232   1.380   9.928  0.0185  0.0387  0.5714
    1CHL1    C9   37   1.244   1.171   9.979  0.2252  0.2646 -0.2295
    1CHL1    H9   38   1.143   1.172   9.933 -0.2932 -0.6012  0.8341
    1CHL1   C10   39   1.230   1.179  10.131 -0.1747  0.4793 -0.1189
    1CHL1   C19   40   1.372   1.210  10.195  0.9428  0.1367 -0.3064
    1CHL1  H19A   41   1.368   1.234  10.304 -2.1000  0.2240 -0.3568
    1CHL1  H19B   42   1.450   1.136  10.164  1.2698  0.1848  0.3796
    1CHL1  H19C   43   1.410   1.307  10.157  0.8402 -0.2236 -1.3541
    1CHL1    C1   44   1.125   1.284  10.163  0.0053 -0.6030  0.4536
    1CHL1   H1A   45   1.160   1.381  10.123  0.3831 -1.3898 -1.1958
    1CHL1   H1B   46   1.027   1.265  10.113  1.3779 -2.2652 -1.7838
    1CHL1    C2   47   1.093   1.299  10.313 -0.0475  0.3546 -0.6543
    1CHL1   H2A   48   1.002   1.361  10.326  0.6092  1.5433 -1.5411
    1CHL1   H2B   49   1.179   1.349  10.364  0.3076 -0.6052 -0.2749
    1CHL1   C20   50   1.497   1.170   9.468 -0.8627  0.4254 -0.2931
    1CHL1   H20   51   1.603   1.143   9.485 -1.7460 -2.4867  1.2088
    1CHL1   C21   52   1.487   1.322   9.466 -0.2292  0.3775 -0.0016
    1CHL1  H21A   53   1.383   1.357   9.482 -0.9009 -2.5749  3.4417
    1CHL1  H21B   54   1.528   1.379   9.379  0.3036  1.9911  1.2561
    1CHL1  H21C   55   1.543   1.356   9.556  0.5071 -0.9758  0.0757
    1CHL1   C22   56   1.471   1.136   9.322  0.0559  0.5315 -0.5493
    1CHL1  H22A   57   1.361   1.124   9.322  0.0412  0.6702 -0.7199
    1CHL1  H22B   58   1.489   1.222   9.254  0.0176 -2.0800 -4.0886
    1CHL1   C23   59   1.548   1.013   9.264 -0.1362  0.4693  0.2237
    1CHL1  H23A   60   1.542   0.921   9.325  0.0738  0.3021 -0.0048
    1CHL1  H23B   61   1.503   0.975   9.170 -1.3391 -2.3903  1.8311
    1CHL1   C24   62   1.690   1.050   9.218  0.3305  0.3927  0.7948
    1CHL1  H24A   63   1.690   1.122   9.134 -2.0295 -0.4077  0.0221
    1CHL1  H24B   64   1.735   1.101   9.305 -1.3538 -1.3711  2.8141
    1CHL1   C25   65   1.769   0.923   9.175 -0.7376  0.2626  0.4849
    1CHL1   H25   66   1.869   0.970   9.162 -2.0067  2.4103 -2.4015
    1CHL1   C26   67   1.767   0.815   9.287  0.1974  0.1227  0.0456
    1CHL1  H26A   68   1.787   0.873   9.379 -0.5711  0.5182 -0.0244
    1CHL1  H26B   69   1.669   0.763   9.290  1.2052 -1.8682 -0.0444
    1CHL1  H26C   70   1.842   0.735   9.269 -1.8325 -1.6946 -0.8055
    1CHL1   C27   71   1.718   0.875   9.032 -1.0434 -0.6841  0.1107
    1CHL1  H27A   72   1.703   0.956   8.957  0.3541 -0.2226  0.2995
    1CHL1  H27B   73   1.795   0.808   8.989 -0.1785  1.6031 -2.1571
    1CHL1  H27C   74   1.621   0.821   9.042 -1.8364 -0.0827 -3.1029
    2CHL1    C3   75   1.929   5.213   9.743  0.6551 -0.3173  0.1517
    2CHL1    H3   76   1.955   5.315   9.708  2.3249  0.0274  2.1999
    2CHL1    O3   77   1.905   5.220   9.885  0.1946 -0.7913 -0.1179
    2CHL1   H3'   78   1.859   5.137   9.899 -0.8478 -0.9093 -3.3257
    2CHL1    C4   79   1.801   5.170   9.668 -0.5336 -0.3955  0.2627
    2CHL1   H4A   80   1.768   5.077   9.719  0.7670 -0.4732  1.0033
    2CHL1   H4B   81   1.727   5.250   9.691  0.4671  0.0049  2.3620
    2CHL1    C5   82   1.824   5.154   9.523 -0.4237  0.9558  0.4743
    2CHL1    C6   83   1.752   5.224   9.437  0.8655 -0.1616  1.2182
    2CHL1    H6   84   1.671   5.290   9.471  1.8851  1.6603  0.2754
    2CHL1    C7   85   1.763   5.216   9.285  0.7538  0.1650  0.5362
    2CHL1   H7A   86   1.663   5.222   9.236  0.2459 -0.0176  1.5096
    2CHL1   H7B   87   1.807   5.313   9.254 -2.5492  1.0620 -1.9115
    2CHL1    C8   88   1.853   5.102   9.246 -0.4643 -0.0318  0.2331
    2CHL1    H8   89   1.806   5.001   9.251  1.3061 -0.8107  3.5402
    2CHL1   C14   90   1.899   5.116   9.100  0.0465  0.2765 -1.1126
    2CHL1   H14   91   1.974   5.198   9.101 -0.3440  0.6736 -2.2624
    2CHL1   C15   92   1.799   5.152   8.997  0.3379 -0.8488  0.2248
    2CHL1  H15A   93   1.698   5.113   9.020 -0.6289  2.0124  1.1719
    2CHL1  H15B   94   1.791   5.262   8.989 -0.5499 -0.8242  1.3050
    2CHL1   C16   95   1.847   5.098   8.866  0.5820 -0.7049  0.0755
    2CHL1  H16A   96   1.775   5.015   8.849 -0.6327 -0.1571  2.1209
    2CHL1  H16B   97   1.862   5.172   8.785  0.1738  0.6814  1.2112
    2CHL1   C17   98   1.984   5.038   8.903  0.6453  0.9342 -0.3274
    2CHL1   H17   99   2.054   5.124   8.895 -0.7487  2.0571 -0.7907
    2CHL1   C13  100   1.983   4.994   9.051  0.0893 -0.1611  0.5657
    2CHL1   C18  101   1.906   4.863   9.060 -0.5671 -0.0256 -0.0853
    2CHL1  H18A  102   1.930   4.790   8.979 -0.3359  0.5049 -0.4984
    2CHL1  H18B  103   1.919   4.819   9.161 -1.6433  0.7534  0.4093
    2CHL1  H18C  104   1.796   4.877   9.049 -0.4901 -0.1762 -1.1417
    2CHL1   C12  105   2.117   4.993   9.137  0.0727  0.3164  0.1331
    2CHL1  H12A  106   2.181   4.909   9.101  0.4535  0.9755 -0.7471
    2CHL1  H12B  107   2.177   5.081   9.107  0.8680  0.8382  2.9678
    2CHL1   C11  108   2.088   4.999   9.283 -0.4155  0.1907  0.4175
    2CHL1  H11A  109   2.053   4.895   9.297 -1.0360  0.3143 -0.1826
    2CHL1  H11B  110   2.190   5.007   9.328  0.0318 -1.2088 -0.2879
    2CHL1    C9  111   1.979   5.089   9.336 -0.0888  0.0418  0.7596
    2CHL1    H9  112   2.032   5.185   9.326  0.3767 -0.3069 -0.2931
    2CHL1   C10  113   1.946   5.062   9.481 -0.5085  0.1315  0.8450
    2CHL1   C19  114   1.904   4.912   9.502  0.2884 -0.1235 -0.6472
    2CHL1  H19A  115   1.833   4.892   9.418  1.9894 -4.0052 -1.3781
    2CHL1  H19B  116   1.999   4.856   9.489  1.0496  1.2487 -1.2094
    2CHL1  H19C  117   1.845   4.889   9.594 -0.4214 -2.6236 -1.6279
    2CHL1    C1  118   2.074   5.097   9.565 -0.0198  0.8578  0.3886
    2CHL1   H1A  119   2.144   5.012   9.559  1.5637  2.0281  1.5833
    2CHL1   H1B  120   2.131   5.189   9.541  0.4180  0.3754 -0.4738
    2CHL1    C2  121   2.037   5.109   9.713  0.1281  0.2920 -0.3334
    2CHL1   H2A  122   2.130   5.140   9.766 -0.7146  2.0505  0.1753
    2CHL1   H2B  123   1.999   5.012   9.754 -2.2805  0.4574 -2.0068
    2CHL1   C20  124   2.024   4.930   8.798 -0.0139  0.9581  0.1946
    2CHL1   H20  125   1.948   4.850   8.788 -0.5999  1.0447  3.2255
    2CHL1   C21  126   2.152   4.858   8.827  0.5741  0.2894 -0.1353
    2CHL1  H21A  127   2.149   4.812   8.929 -0.1513  1.0806  0.2120
    2CHL1  H21B  128   2.241   4.923   8.840  0.6825 -0.2447  2.4845
    2CHL1  H21C  129   2.172   4.780   8.751  1.0655 -2.1368  2.3246
    2CHL1   C22  130   2.048   4.990   8.654 -0.4843 -0.5687  0.0102
    2CHL1  H22A  131   2.005   5.091   8.636 -2.9052 -1.2301  1.5515
    2CHL1  H22B  132   2.156   5.011   8.641 -0.8226  2.1022  1.0349
    2CHL1   C23  133   2.007   4.892   8.545 -0.1478  0.3364  0.4356
    2CHL1  H23A  134   2.061   4.796   8.557 -1.0085 -0.2573 -0.3254
    2CHL1  H23B  135   1.899   4.866   8.553  0.0953 -1.3003 -1.2185
    2CHL1   C24  136   2.042   4.948   8.411  0.5110 -0.1515 -0.3167
    2CHL1  H24A  137   1.983   5.037   8.379  1.3383  0.3762 -0.4216
    2CHL1  H24B  138   2.152   4.964   8.403  1.1040 -4.0650 -2.3987
    2CHL1   C25  139   2.020   4.845   8.297 -0.2228  1.0834  0.4942
    2CHL1   H25  140   2.075   4.753   8.327 -0.2352  0.4430 -1.3131
    2CHL1   C26  141   1.867   4.834   8.270 -0.4844  0.3932  0.0851
    2CHL1  H26A  142   1.856   4.763   8.185  0.3129 -2.0112  1.8854
    2CHL1  H26B  143   1.810   4.801   8.360 -1.7040 -0.7116 -1.0538
    2CHL1  H26C  144   1.816   4.929   8.245 -1.6972 -0.2944 -0.1634
    2CHL1   C27  145   2.088   4.884   8.173 -0.1733 -0.6093  0.3020
    2CHL1  H27A  146   2.040   4.983   8.157  0.6078 -0.4356 -1.1775
    2CHL1  H27B  147   2.195   4.894   8.202 -0.4813 -2.0900  2.0702
    2CHL1  H27C  148   2.068   4.816   8.088 -0.6154  0.3772 -0.4099
    3CHL1    C3  149   1.157   4.930  10.171  0.4240  0.3476  0.4284
    3CHL1    H3  150   1.215   4.837  10.189 -2.0102 -1.2676  0.4000
    3CHL1    O3  151   1.123   4.979  10.303  0.5684 -0.1896 -0.0178
    3CHL1   H3'  152   1.044   5.031  10.291 -0.6105 -1.9585 -0.2056
    3CHL1    C4  153   1.250   5.034  10.108 -0.0137  0.3392 -0.1598
    3CHL1   H4A  154   1.186   5.125  10.104 -0.9614 -0.3340 -0.9166
    3CHL1   H4B  155   1.340   5.043  10.172  0.9291 -2.7415 -0.8830
    3CHL1    C5  156   1.283   4.998   9.971 -0.5398  0.8145  0.4486
    3CHL1    C6  157   1.414   4.999   9.928  0.4971  0.1696 -0.4565
    3CHL1    H6  158   1.496   5.031   9.994  0.9098 -0.8403 -0.4680
    3CHL1    C7  159   1.465   4.964   9.790 -0.7440 -0.6939  0.0027
    3CHL1   H7A  160   1.532   5.041   9.747 -1.1389 -0.4479 -0.1735
    3CHL1   H7B  161   1.511   4.867   9.762  0.4763 -0.2274  0.3189
    3CHL1    C8  162   1.342   4.974   9.690 -0.6419 -0.6751 -0.3925
    3CHL1    H8  163   1.320   5.082   9.678  0.1033 -0.4878 -0.1314
    3CHL1   C14  164   1.381   4.911   9.555  0.1499  0.0225  0.0358
    3CHL1   H14  165   1.401   4.803   9.575 -2.4188 -0.6274 -0.5413
    3CHL1   C15  166   1.502   4.971   9.491 -0.4511  1.2635  0.7305
    3CHL1  H15A  167   1.494   5.081   9.500  3.6383  1.6631  1.6943
    3CHL1  H15B  168   1.602   4.958   9.540  1.3011  2.0026 -2.3726
    3CHL1   C16  169   1.496   4.922   9.346 -0.5151 -0.2533 -0.7081
    3CHL1  H16A  170   1.521   5.007   9.279 -2.7319  0.2333 -0.9833
    3CHL1  H16B  171   1.571   4.840   9.332 -1.6499 -1.2510 -1.0990
    3CHL1   C17  172   1.363   4.855   9.325 -0.3384 -0.3273 -0.4900
    3CHL1   H17  173   1.371   4.745   9.340 -2.4783 -0.5260 -0.5518
    3CHL1   C13  174   1.274   4.896   9.447  0.9668  0.2612  0.9922
    3CHL1   C18  175   1.216   5.036   9.410 -0.1392  0.4068  0.5569
    3CHL1  H18A  176   1.157   5.072   9.497 -3.3221 -4.5134  0.8397
    3CHL1  H18B  177   1.296   5.102   9.371  2.1482 -0.8338  2.8233
    3CHL1  H18C  178   1.134   5.019   9.337 -0.8495  0.7564  1.2657
    3CHL1   C12  179   1.169   4.802   9.503  0.1699  0.0592  0.2215
    3CHL1  H12A  180   1.080   4.779   9.441 -0.1418  0.4685  0.5159
    3CHL1  H12B  181   1.219   4.705   9.525  0.9609  0.8247  1.9977
    3CHL1   C11  182   1.119   4.853   9.641  0.1328  0.0231 -0.8075
    3CHL1  H11A  183   1.045   4.930   9.611  1.1182  0.8136 -1.2597
    3CHL1  H11B  184   1.067   4.769   9.691  1.2105 -0.6612 -0.7987
    3CHL1    C9  185   1.225   4.892   9.745  0.1961 -0.0037  0.1611
    3CHL1    H9  186   1.274   4.794   9.759 -0.6636 -0.1669  2.6785
    3CHL1   C10  187   1.170   4.951   9.881 -0.1549  0.4152 -0.4026
    3CHL1   C19  188   1.089   5.070   9.835 -0.5971  0.1818 -0.4878
    3CHL1  H19A  189   1.146   5.118   9.753  1.4996 -1.9336 -0.3660
    3CHL1  H19B  190   0.990   5.026   9.810 -2.2612  2.0940  2.0961
    3CHL1  H19C  191   1.078   5.150   9.913  0.1185  0.1861 -0.3828
    3CHL1    C1  192   1.087   4.844   9.950 -0.0750  0.3045  0.0686
    3CHL1   H1A  193   1.005   4.803   9.888  0.3845 -3.1728  1.5569
    3CHL1   H1B  194   1.160   4.761   9.961 -0.5668 -0.2934 -1.0885
    3CHL1    C2  195   1.032   4.894  10.087 -0.0786 -0.5275 -0.0527
    3CHL1   H2A  196   0.971   4.811  10.127  0.0798 -0.1441  1.0045
    3CHL1   H2B  197   0.968   4.985  10.078 -0.2466 -0.2976  2.6873
    3CHL1   C20  198   1.301   4.879   9.194 -0.2443  0.2156  0.3486
    3CHL1   H20  199   1.290   4.989   9.178  1.0962  0.4042  0.6540
    3CHL1   C21  200   1.161   4.799   9.172 -0.7950 -0.2293 -0.7484
    3CHL1  H21A  201   1.094   4.832   9.254 -0.4247  4.2763 -1.9795
    3CHL1  H21B  202   1.184   4.692   9.189 -1.1581 -0.2644 -0.4688
    3CHL1  H21C  203   1.104   4.817   9.078 -1.9632 -3.2248 -0.7209
    3CHL1   C22  204   1.390   4.832   9.082 -0.3959 -0.6997  0.2289
    3CHL1  H22A  205   1.491   4.874   9.104 -0.5101 -0.7418  0.8411
    3CHL1  H22B  206   1.395   4.722   9.076 -0.4243 -0.6328 -1.5531
    3CHL1   C23  207   1.349   4.894   8.944 -0.3569 -0.4434 -0.1550
    3CHL1  H23A  208   1.403   4.830   8.871 -1.2761 -0.7691 -0.5639
    3CHL1  H23B  209   1.238   4.891   8.939 -0.4519  1.4180  0.1418
    3CHL1   C24  210   1.391   5.042   8.929 -0.0834 -0.4496  0.2269
    3CHL1  H24A  211   1.360   5.114   9.007 -1.5702 -0.4700 -0.3049
    3CHL1  H24B  212   1.502   5.049   8.922 -0.1787  0.0776 -1.2039
    3CHL1   C25  213   1.332   5.106   8.795 -0.0630  0.1317  0.2998
    3CHL1   H25  214   1.221   5.107   8.799 -0.0759 -0.7451  0.2650
    3CHL1   C26  215   1.371   5.255   8.793 -0.8206  0.6951  0.4016
    3CHL1  H26A  216   1.481   5.256   8.808 -0.8476 -2.2286  1.3806
    3CHL1  H26B  217   1.349   5.301   8.694 -0.0882 -0.3626 -0.2752
    3CHL1  H26C  218   1.315   5.313   8.870  0.0963 -1.0907  2.4942
    3CHL1   C27  219   1.373   5.031   8.662  0.7135 -0.0618  0.2610
    3CHL1  H27A  220   1.320   4.934   8.648 -1.0480  1.0987 -1.6456
    3CHL1  H27B  221   1.343   5.101   8.582  3.0018 -1.6969 -2.2091
    3CHL1  H27C  222   1.483   5.017   8.653  0.8725  1.8361 -1.4049
    4CHL1    C3  223   1.619   0.944  10.514 -0.3841  0.2652  0.3237
    4CHL1    H3  224   1.601   0.843  10.557  1.5006  0.1480  0.9582
    4CHL1    O3  225   1.599   1.044  10.609 -0.5763  0.3796  0.6942
    4CHL1   H3'  226   1.631   1.123  10.564  1.2572 -0.2891  0.7238
    4CHL1    C4  227   1.763   0.943  10.458 -0.1571  1.0287  0.2842
    4CHL1   H4A  228   1.787   1.048  10.432 -2.0567  0.9560 -2.1799
    4CHL1   H4B  229   1.816   0.911  10.550  0.5274  1.2242 -0.0345
    4CHL1    C5  230   1.806   0.862  10.336  0.9634 -0.2048  0.0850
    4CHL1    C6  231   1.907   0.780  10.336 -0.1127  0.2547 -0.4711
    4CHL1    H6  232   1.968   0.772  10.427 -0.8548  1.5690  0.1686
    4CHL1    C7  233   1.948   0.705  10.211  0.2907 -0.0334  0.4951
    4CHL1   H7A  234   2.052   0.726  10.178  0.2697 -1.3789 -0.5519
    4CHL1   H7B  235   1.940   0.595  10.224 -0.9384  0.1365  1.3463
    4CHL1    C8  236   1.866   0.735  10.081 -0.1919 -0.3542 -0.5089
    4CHL1    H8  237   1.920   0.825  10.043 -1.7675  1.1803  0.7044
    4CHL1   C14  238   1.880   0.620   9.980  0.0897 -0.7049  0.4788
    4CHL1   H14  239   1.826   0.528  10.011  1.3272 -1.4963  0.3781
    4CHL1   C15  240   2.017   0.565   9.937  0.4317  0.2062  0.0931
    4CHL1  H15A  241   2.083   0.654   9.945 -0.3070  0.6989  0.8816
    4CHL1  H15B  242   2.051   0.489  10.010  1.3912 -1.5511 -2.0757
    4CHL1   C16  243   1.996   0.504   9.808 -0.2636  1.0548  0.6125
    4CHL1  H16A  244   2.070   0.552   9.739 -0.0856  1.1914  0.8963
    4CHL1  H16B  245   1.989   0.394   9.801 -3.8537  1.1390  1.0455
    4CHL1   C17  246   1.861   0.540   9.759  0.4650 -0.4269  0.1812
    4CHL1   H17  247   1.799   0.452   9.783 -1.9903  0.6316 -1.8243
    4CHL1   C13  248   1.814   0.662   9.845  0.3643 -0.9369  0.1791
    4CHL1   C18  249   1.868   0.786   9.773  0.1649 -0.0029  0.0199
    4CHL1  H18A  250   1.973   0.774   9.736  0.2836  0.3708  0.2356
    4CHL1  H18B  251   1.811   0.814   9.682  1.1717  3.6732  0.3761
    4CHL1  H18C  252   1.867   0.877   9.836  1.7108 -0.3926  0.6588
    4CHL1   C12  253   1.661   0.680   9.870 -0.3698  0.2130 -0.2445
    4CHL1  H12A  254   1.609   0.714   9.777 -0.0384 -0.0121 -0.5136
    4CHL1  H12B  255   1.620   0.587   9.913 -2.4913  1.2670  0.1612
    4CHL1   C11  256   1.639   0.787   9.980  0.0036  0.0021  0.4868
    4CHL1  H11A  257   1.665   0.884   9.933  1.2364 -1.5033 -2.1608
    4CHL1  H11B  258   1.530   0.786  10.001  0.3174  2.2747  2.7029
    4CHL1    C9  259   1.717   0.762  10.111 -0.4014 -0.1944 -0.4851
    4CHL1    H9  260   1.671   0.675  10.162 -0.4805 -1.8262 -3.1189
    4CHL1   C10  261   1.704   0.876  10.220  0.6752 -0.3686 -0.5059
    4CHL1   C19  262   1.737   1.011  10.156  0.0110  0.4019 -0.0961
    4CHL1  H19A  263   1.657   1.037  10.084 -0.1088  0.1965 -0.0404
    4CHL1  H19B  264   1.727   1.089  10.234  3.1200  0.3832  0.4501
    4CHL1  H19C  265   1.840   1.017  10.115  0.6197 -2.0117  0.8873
    4CHL1    C1  266   1.557   0.868  10.274 -0.0459 -0.0861 -0.1791
    4CHL1   H1A  267   1.484   0.884  10.192 -1.1767 -0.4875  0.7196
    4CHL1   H1B  268   1.546   0.760  10.297 -0.8505  0.4752  2.4863
    4CHL1    C2  269   1.531   0.962  10.395 -0.0683 -0.6951  0.2702
    4CHL1   H2A  270   1.433   0.928  10.436 -0.5645 -0.1141 -0.4024
    4CHL1   H2B  271   1.526   1.069  10.363  0.5528 -0.0801  2.1122
    4CHL1   C20  272   1.848   0.540   9.604 -0.1708 -0.0386 -0.1717
    4CHL1   H20  273   1.919   0.614   9.562 -0.5910 -0.1509 -1.1032
    4CHL1   C21  274   1.711   0.588   9.560  1.0477 -0.3858 -1.1003
    4CHL1  H21A  275   1.692   0.557   9.455  0.8086 -2.1088 -0.5808
    4CHL1  H21B  276   1.681   0.694   9.573  0.7388 -0.7230  1.6852
    4CHL1  H21C  277   1.637   0.535   9.623  2.2593 -0.4781  0.3159
    4CHL1   C22  278   1.891   0.409   9.537 -0.4610  0.3548  0.8177
    4CHL1  H22A  279   1.870   0.418   9.429 -0.1552 -0.7200  0.6542
    4CHL1  H22B  280   1.999   0.388   9.554 -0.5864 -0.9967  0.0464
    4CHL1   C23  281   1.829   0.276   9.588  0.1639 -0.1232  0.7561
    4CHL1  H23A  282   1.853   0.267   9.696 -0.4176 -1.3822  0.7929
    4CHL1  H23B  283   1.719   0.284   9.583  0.0922 -1.3682 -3.2523
    4CHL1   C24  284   1.880   0.150   9.518  0.3142  0.7277  0.3433
    4CHL1  H24A  285   1.990   0.145   9.503  0.5358  1.3700  1.5930
    4CHL1  H24B  286   1.868   0.058   9.578  0.4658 -0.3923 -1.2905
    4CHL1   C25  287   1.813   0.131   9.377  0.1220 -0.9462 -0.6615
    4CHL1   H25  288   1.827   0.229   9.326 -0.7245 -1.4157 -1.8499
    4CHL1   C26  289   1.885   0.028   9.298 -0.0125  0.0987  0.2285
    4CHL1  H26A  290   1.889  -0.071   9.347 -0.8852 -0.8933 -1.5761
    4CHL1  H26B  291   1.843   0.017   9.195  2.0821  0.7557 -0.7576
    4CHL1  H26C  292   1.987   0.065   9.275 -0.5938  1.5585 -0.1661
    4CHL1   C27  293   1.662   0.091   9.384  0.1566 -0.2569 -0.4435
    4CHL1  H27A  294   1.661  -0.007   9.436 -1.3811  0.3123  0.7191
    4CHL1  H27B  295   1.595   0.165   9.435 -3.2504 -2.3255 -1.5480
    4CHL1  H27C  296   1.614   0.081   9.284 -1.3286  1.1289  0.0806
    5CHL1    C3  297   4.195   5.508  10.368 -0.3490 -0.5030 -0.7414
    5CHL1    H3  298   4.299   5.474  10.385  0.0390  1.2096  0.5644
    5CHL1    O3  299   4.144   5.550  10.495  0.1390 -0.3756  0.3217
    5CHL1   H3'  300   4.048   5.549  10.492 -0.0266 -1.2650  3.0083
    5CHL1    C4  301   4.210   5.624  10.272 -0.1494 -0.1301  0.7202
    5CHL1   H4A  302   4.120   5.689  10.275  0.7276  1.1721 -0.2008
    5CHL1   H4B  303   4.286   5.698  10.304  0.3669  1.2538 -3.1595
    5CHL1    C5  304   4.228   5.591  10.127  0.3149  0.4831  0.3179
    5CHL1    C6  305   4.321   5.653  10.053  0.2300  0.3637 -0.4110
    5CHL1    H6  306   4.378   5.725  10.115 -2.2126  1.2607  0.9442
    5CHL1    C7  307   4.338   5.633   9.902  0.2457 -0.4104 -0.4217
    5CHL1   H7A  308   4.328   5.730   9.848 -1.2965 -0.7349 -0.7674
    5CHL1   H7B  309   4.440   5.591   9.884  0.6229  0.4951 -0.4463
    5CHL1    C8  310   4.222   5.541   9.836 -0.2083 -0.5060  0.7745
    5CHL1    H8  311   4.133   5.604   9.811  1.7020  2.0099 -0.1604
    5CHL1   C14  312   4.265   5.478   9.700  0.4450 -0.0818  0.2117
    5CHL1   H14  313   4.352   5.414   9.723  1.1521  1.2337  1.3673
    5CHL1   C15  314   4.313   5.568   9.589  0.2695  0.5455  0.7912
    5CHL1  H15A  315   4.244   5.653   9.568 -1.2384 -1.4377 -3.4095
    5CHL1  H15B  316   4.415   5.606   9.613  0.6416  1.6140 -2.0766
    5CHL1   C16  317   4.306   5.482   9.462  0.2006 -0.1089  1.1566
    5CHL1  H16A  318   4.246   5.538   9.387 -1.1844 -2.5199  0.3718
    5CHL1  H16B  319   4.410   5.466   9.426  0.2919  2.6910 -0.1358
    5CHL1   C17  320   4.236   5.347   9.504  0.3204  1.0337 -0.6503
    5CHL1   H17  321   4.325   5.289   9.538 -1.7362 -1.6852  0.5358
    5CHL1   C13  322   4.155   5.389   9.638 -0.0482 -0.5626 -0.3902
    5CHL1   C18  323   4.027   5.459   9.584  0.6311 -0.1605  0.6935
    5CHL1  H18A  324   3.951   5.387   9.548  2.4817 -0.3602 -3.5158
    5CHL1  H18B  325   3.973   5.521   9.658  0.3588  0.8287 -0.2925
    5CHL1  H18C  326   4.051   5.525   9.497  1.8768 -1.1024  0.2874
    5CHL1   C12  327   4.133   5.272   9.736  0.3441  0.3982 -0.6414
    5CHL1  H12A  328   4.058   5.199   9.699  0.7993 -0.6672  0.4882
    5CHL1  H12B  329   4.231   5.222   9.753  0.8169  1.1789 -0.9939
    5CHL1   C11  330   4.079   5.327   9.871 -0.4021 -0.1611  0.8693
    5CHL1  H11A  331   3.989   5.386   9.842  0.5955  1.2191  0.4753
    5CHL1  H11B  332   4.047   5.243   9.936  0.6810 -0.5608  0.9139
    5CHL1    C9  333   4.180   5.429   9.927 -0.1670 -0.7289  0.3394
    5CHL1    H9  334   4.278   5.379   9.942  0.2837 -0.1404 -0.5918
    5CHL1   C10  335   4.137   5.483  10.071  0.0216 -0.3293 -1.1399
    5CHL1   C19  336   3.993   5.539  10.055 -0.4823  0.0337  0.0131
    5CHL1  H19A  337   3.920   5.458  10.035 -1.7127  1.4075 -1.2881
    5CHL1  H19B  338   3.969   5.586  10.153 -0.0178 -0.5152  0.4017
    5CHL1  H19C  339   3.982   5.614   9.974  0.3485  0.9465  0.7114
    5CHL1    C1  340   4.142   5.358  10.172  0.6613 -0.2631 -0.0065
    5CHL1   H1A  341   4.065   5.285  10.141  1.3385 -1.3246  0.7441
    5CHL1   H1B  342   4.246   5.322  10.161  0.5315  0.0174 -2.7003
    5CHL1    C2  343   4.106   5.399  10.313 -0.0207 -0.2247 -0.1680
    5CHL1   H2A  344   4.105   5.306  10.374 -0.2869 -1.7761 -2.4051
    5CHL1   H2B  345   3.998   5.423  10.307  0.1011  0.3395 -0.1690
    5CHL1   C20  346   4.177   5.265   9.384 -0.0751  0.0512 -0.3720
    5CHL1   H20  347   4.098   5.329   9.340 -0.5272 -1.2572 -1.4956
    5CHL1   C21  348   4.115   5.136   9.431 -0.6516  0.3730 -0.2591
    5CHL1  H21A  349   4.199   5.082   9.481  0.4717  0.3502 -2.0928
    5CHL1  H21B  350   4.066   5.080   9.349 -1.7847 -0.9046  1.2032
    5CHL1  H21C  351   4.031   5.149   9.503 -1.2456  0.4896 -0.9653
    5CHL1   C22  352   4.281   5.237   9.267  0.5850 -0.1433 -0.8645
    5CHL1  H22A  353   4.320   5.334   9.231 -0.6431  0.1266 -1.5217
    5CHL1  H22B  354   4.365   5.174   9.304 -2.1881 -3.3196  0.6204
    5CHL1   C23  355   4.226   5.159   9.141  0.2352 -0.5699 -0.4204
    5CHL1  H23A  356   4.169   5.068   9.171 -0.5767 -0.5981 -1.9727
    5CHL1  H23B  357   4.157   5.237   9.101  0.4383 -1.2941 -2.2578
    5CHL1   C24  358   4.329   5.125   9.042  0.2886 -0.4212 -0.1080
    5CHL1  H24A  359   4.353   5.217   8.984  0.7555 -1.4263 -1.5629
    5CHL1  H24B  360   4.420   5.099   9.100 -0.2774 -1.5081  0.3153
    5CHL1   C25  361   4.296   5.003   8.949  0.3633 -0.4625 -0.1453
    5CHL1   H25  362   4.305   4.915   9.017 -0.3666 -1.0113 -0.7480
    5CHL1   C26  363   4.164   5.030   8.875 -0.3680  0.0795  0.1565
    5CHL1  H26A  364   4.167   5.136   8.843  0.1013  0.5995  1.8102
    5CHL1  H26B  365   4.138   4.957   8.796  0.0151  1.0702 -0.9003
    5CHL1  H26C  366   4.080   5.006   8.945 -2.3269 -0.3445 -2.2013
    5CHL1   C27  367   4.406   4.997   8.842 -0.5983 -0.0369 -0.0700
    5CHL1  H27A  368   4.501   4.986   8.898  0.0262  0.4502 -1.0111
    5CHL1  H27B  369   4.391   4.916   8.767  2.4936 -0.7695 -0.0269
    5CHL1  H27C  370   4.426   5.098   8.801 -0.4660  0.4725  1.2073
    6CHL1    C3  371   6.639   2.402  10.286  0.8143 -0.0068  0.0768
    6CHL1    H3  372   6.670   2.300  10.256  1.7472  0.4698 -0.6173
    6CHL1    O3  373   6.671   2.446  10.415  0.4622 -0.1390  0.5042
    6CHL1   H3'  374   6.640   2.537  10.414  3.1227  0.8717  0.9493
    6CHL1    C4  375   6.708   2.494  10.185 -0.1934 -0.2052  0.0401
    6CHL1   H4A  376   6.677   2.598  10.210 -0.0672 -0.0342 -0.5072
    6CHL1   H4B  377   6.818   2.474  10.190 -0.2199 -0.3306  0.1154
    6CHL1    C5  378   6.661   2.468  10.042  0.1745 -0.0876 -0.4372
    6CHL1    C6  379   6.749   2.445   9.949 -0.2200  0.6562 -0.0965
    6CHL1    H6  380   6.854   2.432   9.978 -0.7170  1.6173  2.4287
    6CHL1    C7  381   6.705   2.425   9.804  0.7393  0.4819 -0.0252
    6CHL1   H7A  382   6.776   2.474   9.734  1.5788 -0.3625  0.2130
    6CHL1   H7B  383   6.703   2.317   9.778 -2.1834  0.3593  0.3597
    6CHL1    C8  384   6.564   2.483   9.776 -0.1907 -0.4865 -0.8170
    6CHL1    H8  385   6.575   2.594   9.773  1.1664 -0.5451  0.3968
    6CHL1   C14  386   6.511   2.441   9.636  0.0251 -0.1123 -0.1458
    6CHL1   H14  387   6.481   2.335   9.649 -1.4484 -0.0984 -2.7761
    6CHL1   C15  388   6.607   2.463   9.506  0.2903  0.1168  0.2414
    6CHL1  H15A  389   6.646   2.567   9.511  1.1347 -0.2188  4.0509
    6CHL1  H15B  390   6.684   2.383   9.496 -0.8827 -1.0604  0.3007
    6CHL1   C16  391   6.507   2.450   9.392 -0.4012  0.7957  0.2804
    6CHL1  H16A  392   6.510   2.536   9.322 -4.1075 -0.5096 -1.7658
    6CHL1  H16B  393   6.508   2.361   9.327 -0.2129  0.6802  0.4386
    6CHL1   C17  394   6.364   2.458   9.458  0.1433  0.1524  0.1091
    6CHL1   H17  395   6.326   2.354   9.464  0.3439  0.0228 -0.7481
    6CHL1   C13  396   6.378   2.511   9.601  0.6438 -0.4838 -0.0338
    6CHL1   C18  397   6.395   2.668   9.587  0.7685 -1.0492  0.9220
    6CHL1  H18A  398   6.429   2.721   9.678  2.7738 -2.5463  1.1384
    6CHL1  H18B  399   6.474   2.691   9.512  0.0880  3.5783  1.3658
    6CHL1  H18C  400   6.299   2.718   9.562 -0.4230 -2.4766  2.4508
    6CHL1   C12  401   6.275   2.462   9.700  0.5100 -0.7120 -0.0681
    6CHL1  H12A  402   6.191   2.533   9.685 -1.3869 -1.9124  3.6958
    6CHL1  H12B  403   6.252   2.354   9.686 -0.3966 -0.6177  0.6672
    6CHL1   C11  404   6.321   2.489   9.838  0.3125 -0.2537 -0.4422
    6CHL1  H11A  405   6.317   2.599   9.856  0.3980 -0.2757 -0.2866
    6CHL1  H11B  406   6.249   2.447   9.911  1.5198 -0.0116  0.9251
    6CHL1    C9  407   6.461   2.446   9.885  0.0863  0.2009 -0.2000
    6CHL1    H9  408   6.453   2.336   9.884 -0.4290  0.2347  0.0325
    6CHL1   C10  409   6.507   2.483  10.027  0.1137 -0.9331  0.8198
    6CHL1   C19  410   6.463   2.628  10.049  0.0166 -0.0095  0.7204
    6CHL1  H19A  411   6.506   2.653  10.149 -0.0768  0.9800  0.5145
    6CHL1  H19B  412   6.479   2.704   9.970 -0.2993  0.1781  0.8357
    6CHL1  H19C  413   6.356   2.625  10.076 -0.5290 -1.0001 -1.3609
    6CHL1    C1  414   6.433   2.394  10.136 -0.3134  0.3583  0.1566
    6CHL1   H1A  415   6.323   2.391  10.124 -0.9175  0.0302  4.3268
    6CHL1   H1B  416   6.470   2.293  10.110 -1.3314  0.0457 -0.1028
    6CHL1    C2  417   6.481   2.418  10.280 -0.1286 -0.4884  0.0069
    6CHL1   H2A  418   6.438   2.338  10.342 -0.3890 -0.2810  0.0956
    6CHL1   H2B  419   6.446   2.519  10.311  1.8595  0.4147 -0.5132
    6CHL1   C20  420   6.263   2.532   9.368  0.1449  0.0420 -0.8607
    6CHL1   H20  421   6.276   2.643   9.367 -2.2543  0.3695 -1.7322
    6CHL1   C21  422   6.121   2.506   9.427 -0.4279  0.0523  0.8640
    6CHL1  H21A  423   6.112   2.589   9.500 -0.3515  0.9668 -0.1356
    6CHL1  H21B  424   6.109   2.411   9.483 -0.7157 -0.7409 -0.4967
    6CHL1  H21C  425   6.041   2.526   9.354 -0.7659  3.5471  2.0001
    6CHL1   C22  426   6.274   2.482   9.222  0.6520 -0.4798  0.1835
    6CHL1  H22A  427   6.376   2.485   9.178  0.1064 -0.2261 -1.1103
    6CHL1  H22B  428   6.258   2.372   9.215  0.8070 -0.4608 -0.5362
    6CHL1   C23  429   6.173   2.547   9.121 -0.3359  0.0302 -0.3752
    6CHL1  H23A  430   6.070   2.552   9.160 -0.6766  3.4515 -1.3977
    6CHL1  H23B  431   6.206   2.651   9.101 -0.6220  0.2016  0.0442
    6CHL1   C24  432   6.166   2.468   8.989 -0.0898  0.6326 -0.1276
    6CHL1  H24A  433   6.270   2.453   8.953 -0.9054  0.1218 -2.4201
    6CHL1  H24B  434   6.107   2.376   9.005 -0.6457  1.3159  2.1687
    6CHL1   C25  435   6.102   2.548   8.875 -0.5120  0.1377 -0.0931
    6CHL1   H25  436   6.160   2.641   8.857 -0.1977 -0.3130 -1.5167
    6CHL1   C26  437   6.108   2.477   8.739  0.2281  0.0800  0.2216
    6CHL1  H26A  438   6.213   2.470   8.704  0.6386  1.4466  1.0667
    6CHL1  H26B  439   6.081   2.373   8.768  1.8711 -1.2681 -2.6603
    6CHL1  H26C  440   6.032   2.519   8.669  1.6547 -0.5990 -1.8407
    6CHL1   C27  441   5.966   2.608   8.903 -0.1020  0.3331 -0.0040
    6CHL1  H27A  442   5.932   2.652   8.807 -1.1042 -0.2129  0.0953
    6CHL1  H27B  443   5.891   2.532   8.931  0.3054 -1.9343 -4.1136
    6CHL1  H27C  444   5.968   2.687   8.980 -3.2851  2.2003 -1.6378
    7CHL1    C3  445   4.193   6.157  10.442  0.3141  0.2305  0.5234
    7CHL1    H3  446   4.246   6.254  10.437 -2.2543  1.6894  0.0462
    7CHL1    O3  447   4.181   6.135  10.581 -0.3155  0.7794  0.0101
    7CHL1   H3'  448   4.255   6.075  10.592 -1.1383 -0.2716 -0.0459
    7CHL1    C4  449   4.059   6.172  10.374  0.1668 -0.5949  0.0353
    7CHL1   H4A  450   3.981   6.096  10.397 -0.8155  0.0653 -1.0380
    7CHL1   H4B  451   4.024   6.270  10.414 -0.7473 -1.0754  0.4518
    7CHL1    C5  452   4.076   6.197  10.224  0.3840 -0.7744 -0.8818
    7CHL1    C6  453   4.045   6.311  10.154 -0.2687 -0.0898 -0.3939
    7CHL1    H6  454   4.023   6.399  10.216  2.7640 -0.4367  1.3737
    7CHL1    C7  455   4.052   6.339  10.013 -0.5979  0.9921 -0.4570
    7CHL1   H7A  456   3.978   6.407   9.967 -0.8805  2.2289  1.6873
    7CHL1   H7B  457   4.149   6.386   9.987  1.0128 -1.5518  0.5589
    7CHL1    C8  458   4.061   6.192   9.945  1.1829  0.2921 -0.1673
    7CHL1    H8  459   3.959   6.148   9.956  1.7870 -1.7242 -2.1190
    7CHL1   C14  460   4.087   6.205   9.792  0.8269  0.0792  0.4644
    7CHL1   H14  461   4.188   6.251   9.782  0.6046  0.5385  0.3066
    7CHL1   C15  462   3.989   6.294   9.717 -0.5341  0.4427 -0.0478
    7CHL1  H15A  463   3.882   6.273   9.741  0.1279 -3.3995  0.1801
    7CHL1  H15B  464   4.011   6.401   9.733  0.8629 -0.2012  2.9689
    7CHL1   C16  465   4.027   6.257   9.566 -0.4038  0.3833  0.3034
    7CHL1  H16A  466   3.934   6.243   9.508  1.1636  1.5392 -2.7179
    7CHL1  H16B  467   4.089   6.340   9.525  0.0898  0.8112  1.8462
    7CHL1   C17  468   4.103   6.121   9.574  0.0076  0.6073  0.2838
    7CHL1   H17  469   4.212   6.141   9.570  0.1984 -0.4195 -0.0173
    7CHL1   C13  470   4.077   6.069   9.716 -0.3042 -0.0690  0.9536
    7CHL1   C18  471   3.933   6.011   9.722  0.7380 -0.0574 -0.4208
    7CHL1  H18A  472   3.858   6.072   9.667 -2.8661 -2.7426  1.0779
    7CHL1  H18B  473   3.926   5.908   9.681 -0.1924 -0.3251  0.3669
    7CHL1  H18C  474   3.894   6.001   9.826 -0.4410  1.1100 -0.7240
    7CHL1   C12  475   4.189   5.980   9.776 -0.0898  0.6778  0.0068
    7CHL1  H12A  476   4.192   5.881   9.726 -0.2221  0.5580  0.2350
    7CHL1  H12B  477   4.287   6.028   9.756 -0.0370 -0.2303 -2.3108
    7CHL1   C11  478   4.170   5.954   9.925  0.4876  0.4143 -0.1498
    7CHL1  H11A  479   4.076   5.895   9.923  0.7409  0.0107 -2.3571
    7CHL1  H11B  480   4.263   5.901   9.954 -1.4001 -2.6755  0.6600
    7CHL1    C9  481   4.157   6.086  10.007 -0.3155 -0.1124  0.5597
    7CHL1    H9  482   4.263   6.118   9.992 -0.6950  0.2151 -1.6921
    7CHL1   C10  483   4.135   6.069  10.160  0.7971  1.0773  0.1927
    7CHL1   C19  484   4.035   5.954  10.178 -0.0024 -0.5172 -0.6949
    7CHL1  H19A  485   4.072   5.855  10.144  0.7810 -0.7104  0.6319
    7CHL1  H19B  486   4.023   5.930  10.286  1.3930  0.8098 -0.2174
    7CHL1  H19C  487   3.929   5.973  10.152 -0.0497  2.4280  1.1687
    7CHL1    C1  488   4.276   6.039  10.226  0.1729  0.5495  0.3794
    7CHL1   H1A  489   4.321   5.946  10.185 -1.3183 -0.0997  0.1317
    7CHL1   H1B  490   4.336   6.125  10.190 -1.6148  0.2081 -4.1683
    7CHL1    C2  491   4.268   6.037  10.378  0.6072  0.5818 -0.0411
    7CHL1   H2A  492   4.368   6.032  10.425  0.4413 -1.2363  0.1728
    7CHL1   H2B  493   4.218   5.942  10.404 -0.0203  0.4520 -1.5747
    7CHL1   C20  494   4.080   6.025   9.460  1.0478  0.1486  0.8204
    7CHL1   H20  495   3.979   5.978   9.466  2.0803 -2.2962  0.5014
    7CHL1   C21  496   4.171   5.905   9.464 -0.3107 -0.2999 -0.4156
    7CHL1  H21A  497   4.267   5.949   9.500 -1.2711  1.1732  0.4141
    7CHL1  H21B  498   4.188   5.858   9.365  1.9624 -0.7441  0.1176
    7CHL1  H21C  499   4.130   5.834   9.539 -0.7598  2.2918  1.9300
    7CHL1   C22  500   4.091   6.087   9.318  0.0236 -0.1971  1.1959
    7CHL1  H22A  501   4.082   6.002   9.246  1.4758 -0.0226  0.7794
    7CHL1  H22B  502   4.006   6.156   9.300  0.8074  0.4116 -0.3528
    7CHL1   C23  503   4.218   6.157   9.289 -0.1821 -0.3110 -0.2919
    7CHL1  H23A  504   4.239   6.243   9.357 -1.6036 -0.0903 -0.1015
    7CHL1  H23B  505   4.303   6.085   9.295 -1.9001 -2.3669  3.7028
    7CHL1   C24  506   4.220   6.216   9.147 -0.0977 -0.1728  0.2330
    7CHL1  H24A  507   4.325   6.249   9.130 -0.0502 -0.1956  0.4829
    7CHL1  H24B  508   4.202   6.131   9.078  0.0355  0.1889 -0.2564
    7CHL1   C25  509   4.125   6.335   9.112  0.1010 -0.2286  0.0911
    7CHL1   H25  510   4.023   6.315   9.152  0.7636  1.5284  2.9332
    7CHL1   C26  511   4.174   6.461   9.176 -0.4181  0.1304  0.9985
    7CHL1  H26A  512   4.269   6.496   9.130 -0.8357 -1.3289 -1.0647
    7CHL1  H26B  513   4.100   6.543   9.163 -0.3708 -0.0533 -0.6293
    7CHL1  H26C  514   4.197   6.437   9.282  1.0364  0.7270  0.8480
    7CHL1   C27  515   4.102   6.351   8.959 -0.0340 -0.6751  0.1389
    7CHL1  H27A  516   4.021   6.426   8.952  0.1124 -0.3600  1.4446
    7CHL1  H27B  517   4.195   6.375   8.902  0.5183 -0.4888  1.0972
    7CHL1  H27C  518   4.065   6.255   8.918  1.7849 -0.6197 -1.8328
    8CHL1    C3  519   4.630   6.404  10.245  0.4425 -0.5452  0.3565
    8CHL1    H3  520   4.732   6.361  10.254  1.1485  0.5350 -1.6311
    8CHL1    O3  521   4.581   6.432  10.372  0.5162 -0.4282  0.5104
    8CHL1   H3'  522   4.507   6.491  10.358  1.5121  0.1842 -3.1454
    8CHL1    C4  523   4.645   6.538  10.163 -0.0464  0.0877  0.3062
    8CHL1   H4A  524   4.554   6.601  10.165  0.5490  0.9981 -0.5690
    8CHL1   H4B  525   4.718   6.608  10.208  2.0079 -0.9974 -1.1634
    8CHL1    C5  526   4.665   6.530  10.016 -0.6582  0.2599  0.1986
    8CHL1    C6  527   4.759   6.601   9.954 -0.1685 -0.3261 -0.6447
    8CHL1    H6  528   4.811   6.677  10.014  0.1891 -1.0872  0.0249
    8CHL1    C7  529   4.786   6.589   9.809  0.3106  0.2951  0.4165
    8CHL1   H7A  530   4.815   6.689   9.771  1.0338  0.8833  2.3763
    8CHL1   H7B  531   4.878   6.527   9.806  0.6569  0.8383 -0.5045
    8CHL1    C8  532   4.669   6.528   9.733  0.1343  0.7848 -0.3182
    8CHL1    H8  533   4.576   6.588   9.724  0.2608  0.7469 -2.1799
    8CHL1   C14  534   4.716   6.490   9.592  0.1874 -0.0947  0.3366
    8CHL1   H14  535   4.803   6.423   9.605 -1.3069 -1.6922  3.2848
    8CHL1   C15  536   4.777   6.613   9.519  0.3418 -0.1153 -0.9902
    8CHL1  H15A  537   4.726   6.709   9.537  1.1900  0.5625 -2.0855
    8CHL1  H15B  538   4.881   6.638   9.551  1.0530 -0.1400 -3.1049
    8CHL1   C16  539   4.767   6.571   9.371  0.2806  0.7064  0.4433
    8CHL1  H16A  540   4.709   6.645   9.311  1.3008 -0.3773 -2.0156
    8CHL1  H16B  541   4.865   6.571   9.319  0.0155 -0.7512 -0.0972
    8CHL1   C17  542   4.704   6.433   9.364  0.2041 -0.7106 -0.3972
    8CHL1   H17  543   4.791   6.365   9.374 -0.0593 -0.7928  1.9813
    8CHL1   C13  544   4.618   6.422   9.504 -0.6008  0.5195  0.7085
    8CHL1   C18  545   4.485   6.505   9.492  0.2965  0.2604 -0.7793
    8CHL1  H18A  546   4.407   6.437   9.452 -0.6199  0.4799  0.5784
    8CHL1  H18B  547   4.449   6.538   9.592  0.0139 -1.2469 -0.3614
    8CHL1  H18C  548   4.485   6.596   9.427 -2.1681  0.5033 -0.5343
    8CHL1   C12  549   4.585   6.287   9.573 -0.2144  0.4250 -0.0859
    8CHL1  H12A  550   4.502   6.234   9.522 -0.0548 -0.5360  0.6474
    8CHL1  H12B  551   4.671   6.220   9.555  0.3385  1.5392 -1.9462
    8CHL1   C11  552   4.540   6.302   9.723 -0.7884  0.3614  0.5966
    8CHL1  H11A  553   4.437   6.342   9.720 -0.0354  2.7264 -4.2576
    8CHL1  H11B  554   4.535   6.197   9.760  2.0633 -1.2547 -2.9203
    8CHL1    C9  555   4.634   6.395   9.802  0.4094 -0.1399  0.1824
    8CHL1    H9  556   4.729   6.340   9.817  1.6520  1.8323 -0.0376
    8CHL1   C10  557   4.575   6.426   9.944 -0.0450  0.2392  0.3767
    8CHL1   C19  558   4.425   6.471   9.923  0.2801 -0.1917  0.0455
    8CHL1  H19A  559   4.411   6.530   9.830 -0.2551 -2.1064 -1.1487
    8CHL1  H19B  560   4.362   6.380   9.916  1.2684 -0.8443 -0.5264
    8CHL1  H19C  561   4.383   6.524  10.012  0.3968  2.0498 -1.1642
    8CHL1    C1  562   4.574   6.290  10.025  0.0182 -0.1168  0.3041
    8CHL1   H1A  563   4.512   6.210   9.977  0.3406 -0.3348  0.2519
    8CHL1   H1B  564   4.681   6.263  10.031  0.5277  1.5276 -0.5103
    8CHL1    C2  565   4.527   6.314  10.168 -0.2007 -0.4202  0.2151
    8CHL1   H2A  566   4.526   6.214  10.217 -2.5055  0.3343  1.8639
    8CHL1   H2B  567   4.421   6.344  10.158 -0.3140 -1.1033 -0.6866
    8CHL1   C20  568   4.626   6.405   9.234  0.0391 -0.2697 -0.0700
    8CHL1   H20  569   4.558   6.493   9.230  2.7711  2.0071 -0.3250
    8CHL1   C21  570   4.566   6.264   9.241 -0.6628  0.5967  0.5517
    8CHL1  H21A  571   4.522   6.226   9.147  2.3726  1.7582 -1.4596
    8CHL1  H21B  572   4.490   6.246   9.321 -1.9821  0.8718 -0.6098
    8CHL1  H21C  573   4.661   6.207   9.249  0.3435  2.0178 -0.7231
    8CHL1   C22  574   4.707   6.421   9.110 -0.2635 -0.1839 -0.4070
    8CHL1  H22A  575   4.749   6.524   9.101  0.5573 -0.5356 -0.6616
    8CHL1  H22B  576   4.799   6.359   9.112 -0.8642 -1.0866  1.6908
    8CHL1   C23  577   4.641   6.387   8.973  0.0164 -0.5566 -0.5304
    8CHL1  H23A  578   4.634   6.276   8.975  2.9682 -0.8323  0.9244
    8CHL1  H23B  579   4.544   6.439   8.984  0.3284 -0.1132  0.1682
    8CHL1   C24  580   4.732   6.441   8.860  0.0696  0.5872  0.1191
    8CHL1  H24A  581   4.748   6.550   8.877  3.6695  0.1011  0.6637
    8CHL1  H24B  582   4.831   6.394   8.878 -0.7244 -1.5000 -0.7055
    8CHL1   C25  583   4.685   6.404   8.715 -0.0770  0.6464  0.0921
    8CHL1   H25  584   4.677   6.293   8.718 -1.3040  0.7433  1.2155
    8CHL1   C26  585   4.558   6.477   8.671 -0.2372  0.3204 -0.2520
    8CHL1  H26A  586   4.552   6.573   8.726 -4.0921 -0.3587  0.7786
    8CHL1  H26B  587   4.543   6.478   8.561  0.4838  0.6425 -0.3521
    8CHL1  H26C  588   4.475   6.414   8.709 -1.1114  0.1427 -2.3367
    8CHL1   C27  589   4.798   6.437   8.616 -0.7291 -0.5880  0.1718
    8CHL1  H27A  590   4.835   6.540   8.632  0.4594 -0.5661 -2.2696
    8CHL1  H27B  591   4.884   6.367   8.625  0.8249  1.3458  1.0676
    8CHL1  H27C  592   4.764   6.423   8.511  1.6196 -0.8488 -0.5961
    9CHL1    C3  593   0.223   4.703   9.970  0.4188  0.8541 -0.5197
    9CHL1    H3  594   0.183   4.804   9.946 -0.7554  0.8730  1.2850
    9CHL1    O3  595   0.234   4.692  10.113 -0.0044 -0.0137 -0.3791
    9CHL1   H3'  596   0.265   4.602  10.126 -0.8342 -0.1960  0.4169
    9CHL1    C4  597   0.127   4.593   9.916  0.1808  0.2228  0.1390
    9CHL1   H4A  598   0.150   4.496   9.966  2.8320  0.6641 -0.0670
    9CHL1   H4B  599   0.028   4.623   9.957 -0.0132  0.8208 -0.7478
    9CHL1    C5  600   0.138   4.566   9.766  0.6352  0.9875  0.7470
    9CHL1    C6  601   0.027   4.581   9.691  0.1942 -0.3342  0.3004
    9CHL1    H6  602  -0.076   4.605   9.721  0.6320 -0.7254  2.2618
    9CHL1    C7  603   0.041   4.576   9.545  0.0036 -0.0083 -0.3386
    9CHL1   H7A  604  -0.050   4.528   9.505 -1.2252  1.4591  0.5587
    9CHL1   H7B  605   0.045   4.680   9.505  0.8296  0.5396  1.0929
    9CHL1    C8  606   0.155   4.502   9.491  0.3125 -0.2246 -0.0796
    9CHL1    H8  607   0.158   4.395   9.520  0.2204 -0.5874 -1.3588
    9CHL1   C14  608   0.161   4.512   9.340 -0.6246 -0.2780 -0.6395
    9CHL1   H14  609   0.171   4.620   9.318  1.0922 -0.2601  0.0865
    9CHL1   C15  610   0.044   4.469   9.259 -0.4505  0.6705  0.0078
    9CHL1  H15A  611   0.001   4.376   9.302  1.1973 -1.2539 -2.2804
    9CHL1  H15B  612  -0.035   4.548   9.256 -0.9151  0.3530  2.2927
    9CHL1   C16  613   0.100   4.443   9.115 -0.6119 -0.1469 -0.8381
    9CHL1  H16A  614   0.088   4.336   9.088 -0.7991 -0.2476 -0.3783
    9CHL1  H16B  615   0.061   4.507   9.033  1.9338  1.5053 -0.8672
    9CHL1   C17  616   0.253   4.475   9.123  0.2975 -0.2496 -0.1034
    9CHL1   H17  617   0.259   4.584   9.101 -0.4287  0.2251  1.8162
    9CHL1   C13  618   0.288   4.454   9.277 -0.0934 -0.1517 -0.4599
    9CHL1   C18  619   0.304   4.299   9.304  0.0140 -0.1456 -0.5499
    9CHL1  H18A  620   0.312   4.272   9.412  1.4850  0.5669 -0.4522
    9CHL1  H18B  621   0.211   4.247   9.273 -2.4628  1.6555  3.0670
    9CHL1  H18C  622   0.403   4.275   9.261  0.3179  2.2261 -1.3556
    9CHL1   C12  623   0.412   4.521   9.334  0.4405 -0.3755  0.4040
    9CHL1  H12A  624   0.502   4.477   9.286  1.6063  1.5236  0.7530
    9CHL1  H12B  625   0.420   4.628   9.306  1.0924 -0.5430 -0.0892
    9CHL1   C11  626   0.419   4.512   9.492 -1.0646 -0.2226  0.2704
    9CHL1  H11A  627   0.441   4.406   9.517 -0.0535 -0.5518 -1.7982
    9CHL1  H11B  628   0.502   4.576   9.527  0.0855 -2.3552  1.6612
    9CHL1    C9  629   0.286   4.566   9.557  0.2401  0.4832 -0.1042
    9CHL1    H9  630   0.290   4.675   9.533  0.5981  0.3036 -0.9008
    9CHL1   C10  631   0.285   4.554   9.709  0.2652  0.2445  0.3001
    9CHL1   C19  632   0.343   4.419   9.756  0.2955  0.7901  0.0653
    9CHL1  H19A  633   0.292   4.329   9.714  0.9062  0.6545 -0.4158
    9CHL1  H19B  634   0.452   4.414   9.734  0.1661  0.1488 -0.4620
    9CHL1  H19C  635   0.330   4.398   9.864  1.2483 -5.0310 -0.5840
    9CHL1    C1  636   0.365   4.669   9.772  0.2535 -0.5563  0.0702
    9CHL1   H1A  637   0.471   4.651   9.743 -0.2454 -4.3799  0.1610
    9CHL1   H1B  638   0.336   4.769   9.733 -0.6235 -0.1054  1.8044
    9CHL1    C2  639   0.366   4.677   9.928 -0.0060 -0.5298  0.2122
    9CHL1   H2A  640   0.418   4.773   9.952  1.7219 -0.4117 -3.3695
    9CHL1   H2B  641   0.413   4.591   9.980 -1.4311 -0.2732  1.9920
    9CHL1   C20  642   0.336   4.395   9.018  0.5689  0.3779  0.3273
    9CHL1   H20  643   0.330   4.288   9.050  0.5603  0.4357  0.5162
    9CHL1   C21  644   0.480   4.446   9.020  0.0051 -0.1220 -1.0210
    9CHL1  H21A  645   0.521   4.423   8.919  0.5990 -3.1605 -0.2089
    9CHL1  H21B  646   0.540   4.393   9.097  0.0596  1.2171 -0.1272
    9CHL1  H21C  647   0.503   4.549   9.053  0.1535 -0.5648  0.3386
    9CHL1   C22  648   0.265   4.384   8.878 -0.1167  0.0267  0.5141
    9CHL1  H22A  649   0.162   4.347   8.896 -0.1864  0.0612  0.1989
    9CHL1  H22B  650   0.266   4.492   8.849 -1.5883  0.0104  0.3564
    9CHL1   C23  651   0.336   4.300   8.770 -0.7208 -0.1790  1.2301
    9CHL1  H23A  652   0.279   4.340   8.683 -1.1902 -3.5252 -0.1808
    9CHL1  H23B  653   0.444   4.321   8.754 -0.7790 -1.2860 -1.0489
    9CHL1   C24  654   0.307   4.149   8.794  0.1019  0.4557 -0.5856
    9CHL1  H24A  655   0.376   4.120   8.876 -1.4903  0.3786  0.7897
    9CHL1  H24B  656   0.205   4.118   8.824  0.0126 -0.5662 -1.8973
    9CHL1   C25  657   0.334   4.059   8.673  0.0790 -0.3645  0.0523
    9CHL1   H25  658   0.436   4.088   8.638  0.0225 -0.8055 -0.4756
    9CHL1   C26  659   0.338   3.908   8.706  0.4742 -0.0952  0.0458
    9CHL1  H26A  660   0.371   3.854   8.615  0.3716  0.8287 -0.5535
    9CHL1  H26B  661   0.410   3.887   8.787 -1.2838 -0.6528  1.5427
    9CHL1  H26C  662   0.243   3.874   8.753  0.7482 -0.5035  0.3120
    9CHL1   C27  663   0.235   4.081   8.556 -0.0425  0.1591 -0.2399
    9CHL1  H27A  664   0.129   4.051   8.570  0.6906 -2.1220  0.8292
    9CHL1  H27B  665   0.252   4.182   8.513  0.4506  0.3168  0.3168
    9CHL1  H27C  666   0.259   4.011   8.473  0.5163  0.8121 -0.6430
   10CHL1    C3  667   6.250   0.453  10.045  0.0819  0.3385 -0.2635
   10CHL1    H3  668   6.261   0.561  10.070 -1.2535  0.9273 -1.9905
   10CHL1    O3  669   6.242   0.385  10.169 -0.4531  0.2850  0.2382
   10CHL1   H3'  670   6.155   0.394  10.209  0.4618  1.4052  2.1060
   10CHL1    C4  671   6.117   0.432   9.969 -0.4429 -0.0969 -0.0634
   10CHL1   H4A  672   6.092   0.324   9.971  0.1796 -0.2397  0.4992
   10CHL1   H4B  673   6.038   0.486  10.025 -1.4663  0.3847 -1.8931
   10CHL1    C5  674   6.126   0.502   9.834 -1.1481  0.4337 -0.7253
   10CHL1    C6  675   6.041   0.602   9.799  1.0901 -0.2415  0.5150
   10CHL1    H6  676   5.970   0.649   9.869 -0.1463  1.4190 -1.7567
   10CHL1    C7  677   6.036   0.660   9.661  0.0018 -0.6868 -0.0903
   10CHL1   H7A  678   5.931   0.662   9.624  0.5643 -0.8048 -1.8072
   10CHL1   H7B  679   6.083   0.760   9.661 -0.1312 -0.6239 -0.3271
   10CHL1    C8  680   6.111   0.563   9.553  0.3025  0.1376 -0.2835
   10CHL1    H8  681   6.051   0.474   9.525 -2.1831  1.5931  0.1583
   10CHL1   C14  682   6.143   0.643   9.430  0.0798 -0.3628  0.2713
   10CHL1   H14  683   6.191   0.737   9.467 -0.4942 -0.0135  0.1448
   10CHL1   C15  684   6.018   0.696   9.352 -0.1670 -0.2163  0.3878
   10CHL1  H15A  685   5.948   0.611   9.336 -0.4392  0.0867 -0.0685
   10CHL1  H15B  686   5.968   0.754   9.433  1.1023 -1.6448  2.2948
   10CHL1   C16  687   6.087   0.762   9.229  0.0288 -0.5461 -1.0636
   10CHL1  H16A  688   6.018   0.739   9.144 -2.4077 -1.7034  1.0815
   10CHL1  H16B  689   6.091   0.872   9.241  0.2152 -0.6588 -0.0777
   10CHL1   C17  690   6.233   0.696   9.217  0.2768  0.0360  0.1939
   10CHL1   H17  691   6.306   0.774   9.247  0.1390 -0.5207  2.0849
   10CHL1   C13  692   6.233   0.586   9.328  0.0156  0.4366  0.5116
   10CHL1   C18  693   6.167   0.466   9.260  0.0260  0.2451 -0.5751
   10CHL1  H18A  694   6.234   0.408   9.192 -0.9151 -1.0642 -0.4307
   10CHL1  H18B  695   6.118   0.403   9.338 -0.9743  1.6139 -0.0454
   10CHL1  H18C  696   6.073   0.497   9.209 -0.7809 -1.0719  0.0385
   10CHL1   C12  697   6.372   0.554   9.388 -0.0640 -0.6036 -0.2121
   10CHL1  H12A  698   6.434   0.501   9.312  0.5051 -0.8791  0.4320
   10CHL1  H12B  699   6.424   0.646   9.422  0.5182 -1.7374  2.1674
   10CHL1   C11  700   6.352   0.466   9.511  0.9232  1.0420  0.0992
   10CHL1  H11A  701   6.333   0.359   9.485  1.7228  1.4428 -2.4314
   10CHL1  H11B  702   6.448   0.453   9.565  0.1118 -0.0064  1.3539
   10CHL1    C9  703   6.252   0.530   9.612 -0.8659 -0.2280  0.9407
   10CHL1    H9  704   6.305   0.624   9.636  0.4291 -1.1386  1.8044
   10CHL1   C10  705   6.240   0.452   9.745  0.9452  0.1335 -0.3020
   10CHL1   C19  706   6.211   0.302   9.711  0.4076  1.2964 -0.0788
   10CHL1  H19A  707   6.130   0.278   9.638  1.2365  1.2255 -1.0028
   10CHL1  H19B  708   6.302   0.249   9.674  1.0102  3.1132 -1.3443
   10CHL1  H19C  709   6.189   0.240   9.800 -2.2014  0.5566 -1.1322
   10CHL1    C1  710   6.369   0.467   9.822  0.4553  0.0574  0.1247
   10CHL1   H1A  711   6.446   0.417   9.760 -0.4737 -0.0595 -0.9673
   10CHL1   H1B  712   6.403   0.572   9.838  4.1950 -0.3799 -3.4033
   10CHL1    C2  713   6.368   0.397   9.960  0.6230  0.1159 -0.0384
   10CHL1   H2A  714   6.467   0.411  10.009  1.3461 -2.1638 -0.7315
   10CHL1   H2B  715   6.344   0.290   9.946  0.9794  0.1171 -0.7105
   10CHL1   C20  716   6.267   0.654   9.070 -0.1127 -0.4045 -0.0675
   10CHL1   H20  717   6.205   0.570   9.031 -2.9560  1.3436  0.3775
   10CHL1   C21  718   6.418   0.614   9.062  0.1919  0.6849  1.9143
   10CHL1  H21A  719   6.418   0.508   9.097 -3.0119  0.4880  1.5712
   10CHL1  H21B  720   6.489   0.681   9.116 -0.2648  0.7448  2.4432
   10CHL1  H21C  721   6.456   0.615   8.958 -2.8910  0.4036  0.6767
   10CHL1   C22  722   6.236   0.773   8.976 -0.0681 -0.9129 -0.0499
   10CHL1  H22A  723   6.288   0.760   8.879  0.1833  2.4886 -0.5169
   10CHL1  H22B  724   6.129   0.787   8.951 -0.0761 -0.6853  0.1043
   10CHL1   C23  725   6.299   0.914   9.013  0.1539 -0.1938 -0.2135
   10CHL1  H23A  726   6.303   0.946   9.119 -0.3581 -2.3163  0.4940
   10CHL1  H23B  727   6.408   0.912   8.992  0.4160  0.8517  0.9471
   10CHL1   C24  728   6.245   1.024   8.914 -0.6588 -0.6000 -0.9863
   10CHL1  H24A  729   6.248   0.992   8.808 -2.7570  0.5397 -1.4399
   10CHL1  H24B  730   6.138   1.042   8.938 -0.9171 -1.0406 -1.7784
   10CHL1   C25  731   6.308   1.165   8.916 -0.3683 -0.3091  0.3241
   10CHL1   H25  732   6.310   1.200   9.022  0.6563 -0.6422  0.4322
   10CHL1   C26  733   6.452   1.167   8.863 -0.3911  0.1431  0.6897
   10CHL1  H26A  734   6.454   1.132   8.758  0.6913 -0.9228  1.0314
   10CHL1  H26B  735   6.480   1.274   8.860  0.4756 -0.1079 -0.7421
   10CHL1  H26C  736   6.511   1.104   8.934  2.0899 -0.7985 -2.0417
   10CHL1   C27  737   6.227   1.258   8.823 -0.3013 -0.3934  0.5260
   10CHL1  H27A  738   6.132   1.300   8.861  0.5958  0.4969  1.8812
   10CHL1  H27B  739   6.281   1.350   8.791  0.8252 -0.3538  2.3895
   10CHL1  H27C  740   6.189   1.201   8.736 -0.1751 -2.0152  1.4928
   11CHL1    C3  741   1.734   2.868  10.071  0.2717  0.0844 -0.4452
   11CHL1    H3  742   1.687   2.966  10.048 -0.7370 -0.5869 -1.3727
   11CHL1    O3  743   1.741   2.852  10.210  0.3886  0.3160  0.6610
   11CHL1   H3'  744   1.823   2.889  10.243  1.8310 -2.1695  0.1402
   11CHL1    C4  745   1.651   2.750  10.008  0.2417  0.2322  0.1816
   11CHL1   H4A  746   1.697   2.655  10.044  0.9327  1.3891  2.5086
   11CHL1   H4B  747   1.544   2.749  10.037 -0.3501 -0.4175 -1.8457
   11CHL1    C5  748   1.663   2.746   9.859  0.2143 -0.6677  0.4676
   11CHL1    C6  749   1.558   2.726   9.778  0.1885  0.4115  0.3836
   11CHL1    H6  750   1.454   2.711   9.807 -0.7776 -0.5240 -3.0457
   11CHL1    C7  751   1.564   2.694   9.632  0.0795 -0.0317 -0.4547
   11CHL1   H7A  752   1.502   2.605   9.607 -1.1341  0.9226 -0.9549
   11CHL1   H7B  753   1.524   2.790   9.592  1.2067  0.6026 -0.1086
   11CHL1    C8  754   1.711   2.678   9.578 -0.6138 -0.2705 -0.1370
   11CHL1    H8  755   1.751   2.577   9.598 -0.1742  0.1102  0.9663
   11CHL1   C14  756   1.714   2.712   9.426  0.0663  0.2831  0.2062
   11CHL1   H14  757   1.696   2.821   9.415  0.9985  0.4928  0.6510
   11CHL1   C15  758   1.624   2.626   9.339  0.0795 -0.3197  0.2524
   11CHL1  H15A  759   1.649   2.520   9.363  2.2902  0.1706  0.3999
   11CHL1  H15B  760   1.523   2.665   9.359  0.9624  3.0204 -1.1026
   11CHL1   C16  761   1.670   2.649   9.191 -1.0094  0.0604 -0.0654
   11CHL1  H16A  762   1.663   2.548   9.146  1.1679  0.6430 -1.8814
   11CHL1  H16B  763   1.611   2.727   9.138 -1.6383  0.8689  1.7482
   11CHL1   C17  764   1.810   2.715   9.208 -0.1311  0.1366  0.1956
   11CHL1   H17  765   1.799   2.825   9.199 -2.3345 -0.1511 -1.6436
   11CHL1   C13  766   1.854   2.695   9.356 -0.4651 -0.1558 -0.2988
   11CHL1   C18  767   1.912   2.550   9.383  0.3097 -0.7262  0.0808
   11CHL1  H18A  768   1.922   2.509   9.485  0.8018 -2.9544 -0.8121
   11CHL1  H18B  769   1.849   2.477   9.327  1.6578 -0.0033 -2.5871
   11CHL1  H18C  770   2.009   2.554   9.329  1.9312 -1.2704  2.8004
   11CHL1   C12  771   1.952   2.803   9.422 -0.4458  0.0639 -0.3970
   11CHL1  H12A  772   2.050   2.803   9.370  0.6555  2.1632  1.4847
   11CHL1  H12B  773   1.906   2.903   9.407 -1.2268 -0.1075  0.7089
   11CHL1   C11  774   1.952   2.787   9.577 -0.1375  0.4201 -1.0184
   11CHL1  H11A  775   2.016   2.703   9.611  0.6843  1.5242  0.2540
   11CHL1  H11B  776   2.003   2.873   9.625 -0.7098  0.3899 -0.3354
   11CHL1    C9  777   1.805   2.775   9.646 -0.1491  0.2728  0.4631
   11CHL1    H9  778   1.770   2.878   9.621 -1.2372 -0.0396  0.6462
   11CHL1   C10  779   1.810   2.754   9.804 -1.0863 -0.1142 -0.4016
   11CHL1   C19  780   1.876   2.618   9.827 -0.4773  0.0122  0.7074
   11CHL1  H19A  781   1.984   2.621   9.800 -0.2215 -0.2929  1.6238
   11CHL1  H19B  782   1.886   2.596   9.936  2.0420  3.5252  1.3904
   11CHL1  H19C  783   1.822   2.530   9.787 -0.7901 -0.9714  3.0776
   11CHL1    C1  784   1.891   2.873   9.871 -0.6538 -0.7359 -0.2299
   11CHL1   H1A  785   2.000   2.855   9.855 -0.4659  0.7125 -0.7702
   11CHL1   H1B  786   1.840   2.961   9.828 -2.8945 -1.6187  0.5090
   11CHL1    C2  787   1.876   2.873  10.019 -0.6264 -0.4476  0.1112
   11CHL1   H2A  788   1.926   2.962  10.063 -0.3737 -0.1350 -0.7941
   11CHL1   H2B  789   1.941   2.795  10.064  1.8821  2.3887  1.7812
   11CHL1   C20  790   1.903   2.679   9.101 -0.0593 -0.4041  0.3228
   11CHL1   H20  791   1.998   2.728   9.132  0.7913 -1.5763 -0.3555
   11CHL1   C21  792   1.863   2.764   8.976  0.0797  0.3595 -0.1851
   11CHL1  H21A  793   1.774   2.713   8.934  0.0364  0.6070 -0.4017
   11CHL1  H21B  794   1.951   2.755   8.908  1.8123  0.1728  1.9877
   11CHL1  H21C  795   1.844   2.873   8.984 -0.7729  0.3979 -2.2083
   11CHL1   C22  796   1.923   2.530   9.068 -1.1067  0.2333 -0.3643
   11CHL1  H22A  797   1.986   2.472   9.139 -1.8827 -0.2444 -0.0585
   11CHL1  H22B  798   1.826   2.477   9.079 -0.6432 -0.4916  0.3579
   11CHL1   C23  799   2.004   2.513   8.934 -0.2298  1.0189 -0.8491
   11CHL1  H23A  800   1.952   2.549   8.842  0.8972  0.3369 -1.7858
   11CHL1  H23B  801   2.105   2.559   8.933  0.8412 -1.1480  0.2938
   11CHL1   C24  802   2.023   2.359   8.914 -0.0450 -0.2480  0.0997
   11CHL1  H24A  803   2.073   2.319   9.004 -1.0369  0.2182  0.8756
   11CHL1  H24B  804   1.918   2.325   8.907  0.3489 -1.6654  0.6260
   11CHL1   C25  805   2.103   2.335   8.792 -0.5537  0.1434  0.3823
   11CHL1   H25  806   2.058   2.406   8.719 -2.8667 -1.0899  0.5211
   11CHL1   C26  807   2.254   2.374   8.815  1.1712 -0.4617  0.1416
   11CHL1  H26A  808   2.287   2.324   8.909  1.3818  0.3568  0.5197
   11CHL1  H26B  809   2.318   2.338   8.732 -1.6961  0.1488 -2.4915
   11CHL1  H26C  810   2.264   2.484   8.831  1.7648 -0.7311  1.9252
   11CHL1   C27  811   2.104   2.190   8.743 -0.3283 -0.3595 -0.6711
   11CHL1  H27A  812   2.148   2.187   8.641 -2.5930  0.6520 -1.7392
   11CHL1  H27B  813   2.160   2.123   8.812 -1.3992 -1.4333 -0.8136
   11CHL1  H27C  814   2.000   2.155   8.728 -0.1731 -0.0171 -2.8550
   12CHL1    C3  815   5.140   6.126  10.342 -0.1775 -0.4648  0.6091
   12CHL1    H3  816   5.173   6.021  10.330  0.1514 -0.4592  1.3640
   12CHL1    O3  817   5.144   6.173  10.476 -0.1766  0.4461  0.2771
   12CHL1   H3'  818   5.089   6.115  10.529 -1.0947  0.3391 -0.7513
   12CHL1    C4  819   5.230   6.225  10.273 -0.4978  0.1620  0.6884
   12CHL1   H4A  820   5.196   6.327  10.300 -3.8404 -0.0666 -1.9654
   12CHL1   H4B  821   5.323   6.206  10.330 -1.2255  1.8522  2.5901
   12CHL1    C5  822   5.237   6.205  10.129 -0.6535 -0.4904 -0.0439
   12CHL1    C6  823   5.346   6.178  10.059  0.2056  1.5065 -0.5149
   12CHL1    H6  824   5.436   6.174  10.122  0.5886  0.4957 -1.0839
   12CHL1    C7  825   5.355   6.160   9.910 -0.4264 -0.3864  0.1767
   12CHL1   H7A  826   5.439   6.217   9.864 -0.0376  0.6618  2.1007
   12CHL1   H7B  827   5.376   6.052   9.895  0.1913 -0.4311  1.2936
   12CHL1    C8  828   5.226   6.195   9.836 -0.5340 -0.5330 -0.2970
   12CHL1    H8  829   5.225   6.305   9.821 -1.4642 -0.1416  2.2559
   12CHL1   C14  830   5.218   6.131   9.705 -0.2648  0.3516  0.1033
   12CHL1   H14  831   5.202   6.024   9.728 -3.2189  0.5249 -0.6604
   12CHL1   C15  832   5.341   6.140   9.606  1.4654 -0.2407  0.1492
   12CHL1  H15A  833   5.375   6.245   9.598  1.6680 -0.4558 -2.6695
   12CHL1  H15B  834   5.431   6.082   9.635  0.7705 -1.1932  0.4428
   12CHL1   C16  835   5.279   6.108   9.472  0.0163  0.1310  0.5345
   12CHL1  H16A  836   5.275   6.198   9.406 -0.0937 -0.3956 -0.1823
   12CHL1  H16B  837   5.334   6.024   9.424 -1.3040  0.0495 -0.9180
   12CHL1   C17  838   5.127   6.068   9.491  0.1915  0.2939  0.4643
   12CHL1   H17  839   5.122   5.958   9.511  1.0052  0.4685  1.7775
   12CHL1   C13  840   5.091   6.153   9.616  0.0760 -0.8789 -0.0388
   12CHL1   C18  841   5.078   6.309   9.580  0.4747 -0.1129  0.6900
   12CHL1  H18A  842   5.068   6.379   9.665  0.6473  0.2390  0.4191
   12CHL1  H18B  843   5.166   6.343   9.521 -0.4519 -2.2087 -2.1479
   12CHL1  H18C  844   4.988   6.325   9.518  2.1131  0.1771 -1.7461
   12CHL1   C12  845   4.963   6.115   9.697 -1.2589  0.4354  0.2850
   12CHL1  H12A  846   4.867   6.124   9.642  0.4191 -1.6801 -3.3534
   12CHL1  H12B  847   4.963   6.005   9.715  0.0709  0.2491 -0.6700
   12CHL1   C11  848   4.965   6.180   9.839  0.2654  1.0085  0.0033
   12CHL1  H11A  849   4.953   6.289   9.819 -0.8898  0.7499 -0.8251
   12CHL1  H11B  850   4.878   6.137   9.892  1.1617 -0.4520  0.3421
   12CHL1    C9  851   5.100   6.157   9.917 -0.3027 -0.3580  0.0990
   12CHL1    H9  852   5.099   6.047   9.928 -0.5973 -0.4928 -1.1359
   12CHL1   C10  853   5.091   6.215  10.063 -0.7447  0.1108  0.0369
   12CHL1   C19  854   5.057   6.364  10.060  0.0508  0.6605 -0.2717
   12CHL1  H19A  855   4.949   6.371  10.039  0.4931 -0.3011 -3.4602
   12CHL1  H19B  856   5.078   6.409  10.159  2.3327  0.5226 -0.6275
   12CHL1  H19C  857   5.118   6.414   9.981  0.2025  0.5905 -0.2000
   12CHL1    C1  858   4.985   6.133  10.146 -0.1146 -0.0226 -0.5358
   12CHL1   H1A  859   4.886   6.152  10.100 -0.6378  1.5424  1.1026
   12CHL1   H1B  860   5.003   6.024  10.142  0.6387  0.0528  0.3593
   12CHL1    C2  861   4.991   6.149  10.299  0.1370  0.2469  0.2576
   12CHL1   H2A  862   4.928   6.075  10.353  2.4697 -2.5392 -0.5688
   12CHL1   H2B  863   4.960   6.251  10.327  1.1796  0.5270  0.4568
   12CHL1   C20  864   5.056   6.106   9.359  0.2767 -0.8680  0.1843
   12CHL1   H20  865   5.058   6.214   9.333 -1.7353 -1.1445 -1.3702
   12CHL1   C21  866   4.911   6.054   9.378  0.4327  0.0130  0.2705
   12CHL1  H21A  867   4.855   6.128   9.440  0.3545  0.2720 -0.1074
   12CHL1  H21B  868   4.922   5.961   9.438 -2.6927 -0.2929  0.5496
   12CHL1  H21C  869   4.859   6.044   9.280 -1.8245  2.9664  1.0218
   12CHL1   C22  870   5.122   6.037   9.228 -0.0355  0.1237  0.7359
   12CHL1  H22A  871   5.224   6.080   9.215 -0.1557 -0.0964 -1.2429
   12CHL1  H22B  872   5.135   5.929   9.251  0.4518  0.4164  1.9122
   12CHL1   C23  873   5.047   6.067   9.099 -0.1134 -0.5570 -0.4514
   12CHL1  H23A  874   4.946   6.022   9.092  0.2334 -1.0339 -4.0439
   12CHL1  H23B  875   5.017   6.174   9.096 -2.6582 -1.1189  1.3031
   12CHL1   C24  876   5.136   6.033   8.976 -0.9385 -0.9231  0.4699
   12CHL1  H24A  877   5.241   6.068   8.991 -0.8875 -1.1649  0.6656
   12CHL1  H24B  878   5.151   5.923   8.979  4.3784 -0.4437  1.3612
   12CHL1   C25  879   5.087   6.102   8.840 -0.0168  0.2270  0.6198
   12CHL1   H25  880   5.095   6.212   8.851 -0.7562  0.7041 -2.4897
   12CHL1   C26  881   5.173   6.066   8.717  0.0524  0.0843 -0.1941
   12CHL1  H26A  882   5.169   6.146   8.639  0.2047  3.2748  2.7905
   12CHL1  H26B  883   5.282   6.069   8.739 -0.2467  1.8551  1.3659
   12CHL1  H26C  884   5.140   5.963   8.697 -2.3622  0.4368  1.5568
   12CHL1   C27  885   4.948   6.062   8.799  0.5236  0.6737 -0.1297
   12CHL1  H27A  886   4.916   5.958   8.822  0.8661  0.9450  1.7797
   12CHL1  H27B  887   4.874   6.127   8.850 -0.8323 -0.3641 -0.7228
   12CHL1  H27C  888   4.927   6.083   8.692 -0.1135  0.7012 -0.0019
   13CHL1    C3  889   3.331   3.119   9.891 -0.3667 -0.8598  0.0180
   13CHL1    H3  890   3.382   3.203   9.839  0.0674 -1.0664  0.1058
   13CHL1    O3  891   3.371   3.130  10.027  0.2769  0.4567 -0.3497
   13CHL1   H3'  892   3.437   3.061  10.030 -1.2269 -1.2062 -2.4102
   13CHL1    C4  893   3.179   3.140   9.868 -0.5016  0.3446 -0.9361
   13CHL1   H4A  894   3.124   3.063   9.927  1.2583 -0.9202 -0.8792
   13CHL1   H4B  895   3.162   3.238   9.919 -0.0427 -0.7454  1.4324
   13CHL1    C5  896   3.128   3.135   9.731  0.1638  0.3140  0.5640
   13CHL1    C6  897   3.064   3.233   9.668 -0.3380  0.2840  0.8323
   13CHL1    H6  898   3.031   3.327   9.715 -2.2495 -1.0718  2.3556
   13CHL1    C7  899   3.011   3.220   9.527 -0.2532  0.4214  0.3824
   13CHL1   H7A  900   2.904   3.246   9.531 -0.4889 -0.1871 -1.2966
   13CHL1   H7B  901   3.054   3.288   9.450  2.6415  0.1044  1.5862
   13CHL1    C8  902   3.011   3.080   9.474 -0.0017  0.0606  1.0625
   13CHL1    H8  903   2.934   3.023   9.530  0.0836 -0.2034  0.9140
   13CHL1   C14  904   2.971   3.082   9.325  0.0303  0.2096  0.2256
   13CHL1   H14  905   3.052   3.138   9.274  2.0691 -1.8482  1.0416
   13CHL1   C15  906   2.836   3.147   9.276  0.7091  0.5191  0.1354
   13CHL1  H15A  907   2.769   3.113   9.359  2.5889 -0.2435  1.4060
   13CHL1  H15B  908   2.827   3.257   9.289 -1.3152  0.4792 -0.6042
   13CHL1   C16  909   2.816   3.087   9.136 -0.1303  0.2696  0.1144
   13CHL1  H16A  910   2.714   3.047   9.123  0.5387 -1.1922 -0.8650
   13CHL1  H16B  911   2.825   3.171   9.064 -0.8513  0.9026  0.7373
   13CHL1   C17  912   2.923   2.975   9.117  0.4304  0.0650 -0.0366
   13CHL1   H17  913   3.008   3.033   9.074  0.0477 -0.1068 -1.0710
   13CHL1   C13  914   2.973   2.944   9.263 -0.1549  0.2795  0.7903
   13CHL1   C18  915   2.864   2.848   9.334  0.1895  0.5167 -0.3960
   13CHL1  H18A  916   2.900   2.821   9.435  1.2277 -2.0916 -1.3781
   13CHL1  H18B  917   2.760   2.887   9.333  0.0670  0.1910 -1.0155
   13CHL1  H18C  918   2.861   2.750   9.281 -0.8201 -0.1402  0.8115
   13CHL1   C12  919   3.117   2.888   9.281 -0.0610 -0.7380  0.0094
   13CHL1  H12A  920   3.136   2.788   9.236  2.2140 -0.5505  0.4494
   13CHL1  H12B  921   3.173   2.951   9.209  0.0296 -0.4565  0.3276
   13CHL1   C11  922   3.168   2.879   9.424 -0.5004  0.2826 -0.5471
   13CHL1  H11A  923   3.108   2.793   9.460  0.7606 -0.4609 -0.1596
   13CHL1  H11B  924   3.273   2.841   9.420 -0.1692  1.1002  0.0898
   13CHL1    C9  925   3.148   3.009   9.508  0.2945  0.3456 -0.7124
   13CHL1    H9  926   3.224   3.083   9.474  1.0072  0.4806  1.0574
   13CHL1   C10  927   3.175   2.999   9.663  0.4816  0.4342 -0.0488
   13CHL1   C19  928   3.092   2.881   9.712  0.3511 -0.6644 -0.0813
   13CHL1  H19A  929   2.986   2.898   9.681  0.5363 -0.5408 -0.6622
   13CHL1  H19B  930   3.124   2.783   9.672 -0.0618 -1.3159  1.1264
   13CHL1  H19C  931   3.090   2.877   9.823  0.1219 -0.3113 -0.0695
   13CHL1    C1  932   3.323   2.972   9.679  0.1526  0.7038  0.1518
   13CHL1   H1A  933   3.334   2.871   9.635  1.2896  1.7645 -2.1955
   13CHL1   H1B  934   3.387   3.044   9.624  3.2952 -2.2787 -0.4084
   13CHL1    C2  935   3.367   2.979   9.828 -0.1327 -0.8059 -0.4765
   13CHL1   H2A  936   3.477   2.966   9.838 -0.1994  0.3343  3.3168
   13CHL1   H2B  937   3.312   2.899   9.881  0.6055 -1.8221 -1.2149
   13CHL1   C20  938   2.879   2.869   9.022 -0.5881 -0.3647 -0.0814
   13CHL1   H20  939   2.792   2.815   9.064  0.0413 -2.0454 -0.8251
   13CHL1   C21  940   2.989   2.757   9.000  0.5667  0.1598 -0.3815
   13CHL1  H21A  941   3.083   2.809   8.973  0.6844 -0.0223 -0.3246
   13CHL1  H21B  942   2.956   2.702   8.910 -0.5905  2.2528 -1.3061
   13CHL1  H21C  943   3.000   2.689   9.088  2.5939  0.8630 -0.0339
   13CHL1   C22  944   2.841   2.926   8.880  0.2022  0.0515  0.4254
   13CHL1  H22A  945   2.797   2.851   8.811  0.7478  0.6232 -0.5621
   13CHL1  H22B  946   2.764   3.005   8.887 -0.0928 -0.3051  1.4150
   13CHL1   C23  947   2.964   2.970   8.797 -0.2600 -1.2483 -0.0838
   13CHL1  H23A  948   3.020   3.052   8.847  2.0775 -1.5118 -2.0983
   13CHL1  H23B  949   3.028   2.880   8.785  1.0227 -0.5465  1.2081
   13CHL1   C24  950   2.923   3.012   8.657 -0.0903  0.6313 -0.4332
   13CHL1  H24A  951   2.871   2.922   8.619 -1.5452  2.0971 -2.1165
   13CHL1  H24B  952   2.845   3.090   8.671  0.2892  1.0975 -0.8624
   13CHL1   C25  953   3.019   3.077   8.558  0.5543  0.6696  0.0287
   13CHL1   H25  954   3.054   3.169   8.609  1.4650  1.1926 -1.4783
   13CHL1   C26  955   3.145   2.983   8.529  0.3271 -0.6131  0.0839
   13CHL1  H26A  956   3.097   2.905   8.466 -0.0818 -2.0496  2.0701
   13CHL1  H26B  957   3.211   3.054   8.475  1.0340 -0.4562  1.1339
   13CHL1  H26C  958   3.184   2.951   8.628 -0.2973 -2.2361 -0.1586
   13CHL1   C27  959   2.953   3.118   8.424 -0.0736  0.0436 -0.1228
   13CHL1  H27A  960   2.873   3.194   8.439  2.0244  2.1916  0.6369
   13CHL1  H27B  961   3.027   3.171   8.360 -0.8598  1.8998  0.4246
   13CHL1  H27C  962   2.913   3.030   8.369  2.4788 -1.2606  0.0041
   14CHL1    C3  963   3.240   5.490  10.128 -0.3439 -0.6327  0.0541
   14CHL1    H3  964   3.143   5.541  10.147  0.3540  0.2618  1.3457
   14CHL1    O3  965   3.317   5.505  10.244 -0.4713 -0.5844 -0.7518
   14CHL1   H3'  966   3.403   5.466  10.230 -0.7589 -1.6978  0.3240
   14CHL1    C4  967   3.233   5.345  10.088  0.3206 -0.2295 -0.4610
   14CHL1   H4A  968   3.318   5.275  10.098 -1.1511 -1.8716  1.4574
   14CHL1   H4B  969   3.165   5.301  10.164 -1.6101 -1.1238 -2.5651
   14CHL1    C5  970   3.152   5.338   9.959 -0.6091 -0.1070 -0.8894
   14CHL1    C6  971   3.038   5.272   9.955  0.3704 -0.2970 -0.5706
   14CHL1    H6  972   3.001   5.231  10.050  0.4105  3.0283  1.0258
   14CHL1    C7  973   2.965   5.249   9.829  0.1872 -1.1073  0.0793
   14CHL1   H7A  974   2.913   5.152   9.835 -0.7214 -0.5842  0.9998
   14CHL1   H7B  975   2.888   5.329   9.833  0.3048 -0.9883 -0.0538
   14CHL1    C8  976   3.046   5.276   9.699  0.6627  0.0677  0.0337
   14CHL1    H8  977   3.125   5.198   9.693  0.7824 -0.1443  2.8423
   14CHL1   C14  978   2.951   5.302   9.583  0.5997  0.2437 -0.2291
   14CHL1   H14  979   2.888   5.389   9.608  1.4068  0.9329 -0.5391
   14CHL1   C15  980   2.849   5.191   9.543  0.3851 -0.3681  0.4262
   14CHL1  H15A  981   2.892   5.089   9.552  1.3304  0.0514  0.8130
   14CHL1  H15B  982   2.757   5.199   9.604 -1.2519  3.0290 -2.1472
   14CHL1   C16  983   2.818   5.213   9.393 -0.4266 -0.2167  0.4968
   14CHL1  H16A  984   2.847   5.125   9.332  2.1281  1.1354 -0.4135
   14CHL1  H16B  985   2.710   5.231   9.377 -0.4810 -1.2555 -0.3824
   14CHL1   C17  986   2.904   5.335   9.355  0.5782  0.2290  0.0856
   14CHL1   H17  987   2.840   5.421   9.381  2.2880  1.0014  2.1300
   14CHL1   C13  988   3.018   5.334   9.449 -0.2182 -0.0786 -0.1735
   14CHL1   C18  989   3.108   5.214   9.400  0.3686  0.3937 -0.2364
   14CHL1  H18A  990   3.054   5.117   9.397 -0.1700  0.3551  4.0584
   14CHL1  H18B  991   3.159   5.223   9.302  1.8293 -3.6373 -0.0323
   14CHL1  H18C  992   3.192   5.214   9.473  0.9355 -1.5708 -0.8311
   14CHL1   C12  993   3.095   5.464   9.470 -0.0158 -0.3714  0.4024
   14CHL1  H12A  994   3.155   5.484   9.379 -2.2932  2.0487 -0.6938
   14CHL1  H12B  995   3.017   5.543   9.467  1.0069  0.6694  0.4494
   14CHL1   C11  996   3.193   5.460   9.588  0.0573 -0.0204  0.0222
   14CHL1  H11A  997   3.278   5.398   9.553 -0.1687 -0.6588  0.5806
   14CHL1  H11B  998   3.228   5.564   9.606 -2.0187  1.2090 -2.3490
   14CHL1    C9  999   3.118   5.411   9.717 -0.2454  0.1368 -0.0397
   14CHL1    H9 1000   3.041   5.487   9.743 -0.4504 -0.4897  1.2755
   14CHL1   C10 1001   3.215   5.416   9.842  0.1327  0.7424 -0.7817
   14CHL1   C19 1002   3.346   5.347   9.811 -0.2969 -0.4223 -0.2657
   14CHL1  H19A 1003   3.417   5.345   9.896 -0.3884 -0.6396 -0.1938
   14CHL1  H19B 1004   3.325   5.243   9.777  0.1210 -0.4937 -0.3097
   14CHL1  H19C 1005   3.397   5.406   9.731 -0.8235 -0.6855 -0.8059
   14CHL1    C1 1006   3.231   5.560   9.884  0.4327 -0.2660  0.0111
   14CHL1   H1A 1007   3.291   5.616   9.809 -0.7259  1.7945  0.5333
   14CHL1   H1B 1008   3.138   5.620   9.886  1.5364  1.6710 -1.9439
   14CHL1    C2 1009   3.312   5.572  10.015 -0.1654 -0.4257 -0.1826
   14CHL1   H2A 1010   3.319   5.676  10.055 -0.0149 -0.2900 -0.5490
   14CHL1   H2B 1011   3.418   5.541  10.000  0.0410  1.3166 -3.2130
   14CHL1   C20 1012   2.941   5.357   9.204  0.3907 -0.0313  0.4858
   14CHL1   H20 1013   3.040   5.406   9.195  0.1837  0.7039  1.9048
   14CHL1   C21 1014   2.829   5.457   9.144 -0.3268  0.7402  0.0971
   14CHL1  H21A 1015   2.728   5.425   9.177  0.5976 -1.8350  0.6271
   14CHL1  H21B 1016   2.834   5.462   9.033 -0.4939  2.7182  0.1448
   14CHL1  H21C 1017   2.854   5.557   9.186 -1.2187  1.3587 -0.8009
   14CHL1   C22 1018   2.933   5.229   9.108  0.6794  0.2192  0.4475
   14CHL1  H22A 1019   2.958   5.134   9.161 -0.5724 -0.1287  0.4307
   14CHL1  H22B 1020   2.829   5.221   9.071  0.8605  0.1126 -0.0532
   14CHL1   C23 1021   3.038   5.230   8.995 -0.1382  0.6391  0.2450
   14CHL1  H23A 1022   3.010   5.309   8.923 -0.1914  0.0341 -0.4113
   14CHL1  H23B 1023   3.139   5.256   9.033 -0.6896  2.7274  0.3931
   14CHL1   C24 1024   3.045   5.098   8.912 -0.0175 -0.0551  0.1615
   14CHL1  H24A 1025   3.023   5.013   8.980 -1.9218 -0.1732 -0.5511
   14CHL1  H24B 1026   2.967   5.105   8.834 -0.9242 -1.4414  0.9022
   14CHL1   C25 1027   3.184   5.082   8.844 -0.1715 -0.2936  0.4734
   14CHL1   H25 1028   3.261   5.086   8.924  1.9197  1.2569 -1.4670
   14CHL1   C26 1029   3.195   4.942   8.767  0.4532 -0.4150 -0.2118
   14CHL1  H26A 1030   3.118   4.940   8.687 -0.1751 -0.2541  0.3821
   14CHL1  H26B 1031   3.292   4.937   8.713 -0.8421 -0.6136 -2.6709
   14CHL1  H26C 1032   3.183   4.862   8.844 -1.0645 -1.4518 -1.4695
   14CHL1   C27 1033   3.214   5.196   8.749  0.3559 -0.2710  0.3538
   14CHL1  H27A 1034   3.220   5.298   8.795 -0.8912 -0.1598  0.3170
   14CHL1  H27B 1035   3.302   5.160   8.692 -1.7650 -2.1288 -1.9637
   14CHL1  H27C 1036   3.129   5.205   8.679 -0.4149 -2.2698  0.9756
   15CHL1    C3 1037   3.613   4.026  10.090 -0.4957  0.3119 -0.1363
   15CHL1    H3 1038   3.717   4.060  10.075 -0.7904  1.5285  0.4963
   15CHL1    O3 1039   3.585   4.021  10.227 -0.0315  0.4873  0.3894
   15CHL1   H3' 1040   3.506   3.968  10.234  0.0473  0.2636 -0.3805
   15CHL1    C4 1041   3.523   4.139  10.028 -0.0929  0.1713 -0.3075
   15CHL1   H4A 1042   3.418   4.107  10.044 -0.0136  0.8456  1.9368
   15CHL1   H4B 1043   3.541   4.234  10.083 -1.6695  0.5219 -0.3456
   15CHL1    C5 1044   3.549   4.147   9.884  0.1923 -0.6573  1.3056
   15CHL1    C6 1045   3.589   4.261   9.830 -0.1550  0.2721  0.1981
   15CHL1    H6 1046   3.617   4.348   9.891  2.7537  0.1586 -0.8226
   15CHL1    C7 1047   3.611   4.279   9.678 -1.1428  0.0096 -0.8505
   15CHL1   H7A 1048   3.574   4.375   9.637 -0.5798  0.3889 -0.4824
   15CHL1   H7B 1049   3.720   4.296   9.665 -0.4762 -3.1640 -0.3892
   15CHL1    C8 1050   3.556   4.157   9.604 -0.3731  0.0871  0.3369
   15CHL1    H8 1051   3.446   4.155   9.593 -0.4018 -2.8428  0.4670
   15CHL1   C14 1052   3.619   4.164   9.460  0.1010  0.1284  0.0397
   15CHL1   H14 1053   3.729   4.157   9.475 -0.1020 -2.3600  0.7361
   15CHL1   C15 1054   3.607   4.293   9.378  0.1358 -0.1188 -0.0675
   15CHL1  H15A 1055   3.516   4.343   9.418  0.8436 -0.0268  1.5500
   15CHL1  H15B 1056   3.691   4.366   9.387  2.0668 -1.6337 -3.7276
   15CHL1   C16 1057   3.588   4.249   9.230  0.2739  0.8930  0.3542
   15CHL1  H16A 1058   3.481   4.247   9.201  1.4138 -0.6761 -4.8598
   15CHL1  H16B 1059   3.636   4.324   9.164 -1.0002  1.8998  0.5344
   15CHL1   C17 1060   3.635   4.097   9.238 -0.2815 -0.2817 -0.3702
   15CHL1   H17 1061   3.744   4.083   9.251 -0.1992 -0.6386 -1.3703
   15CHL1   C13 1062   3.577   4.047   9.370 -0.2079 -0.2783  0.4774
   15CHL1   C18 1063   3.421   4.035   9.355  0.2892 -0.2754 -0.2793
   15CHL1  H18A 1064   3.377   4.009   9.453 -0.4830 -0.4656 -0.6664
   15CHL1  H18B 1065   3.375   4.132   9.323 -0.6564 -0.7011 -0.2389
   15CHL1  H18C 1066   3.395   3.959   9.279 -1.5918  3.5297 -3.8907
   15CHL1   C12 1067   3.639   3.929   9.432 -0.0905  0.3635  0.0699
   15CHL1  H12A 1068   3.616   3.851   9.356 -0.4801 -0.6800  1.2191
   15CHL1  H12B 1069   3.749   3.946   9.432 -0.1477  1.0437 -2.1073
   15CHL1   C11 1070   3.586   3.903   9.574  0.5087  0.4686  0.5251
   15CHL1  H11A 1071   3.487   3.853   9.579 -0.3494  1.9091 -1.1034
   15CHL1  H11B 1072   3.658   3.827   9.611  2.0416  0.7992 -1.5976
   15CHL1    C9 1073   3.593   4.022   9.666 -0.9016  0.6590  0.1219
   15CHL1    H9 1074   3.702   4.023   9.687 -0.5081  0.9140 -1.7870
   15CHL1   C10 1075   3.535   4.012   9.811  0.2380 -0.1471 -0.2985
   15CHL1   C19 1076   3.384   3.977   9.795 -0.5491  0.1320 -0.3797
   15CHL1  H19A 1077   3.332   3.966   9.892 -1.3819  1.6524 -0.6241
   15CHL1  H19B 1078   3.323   4.057   9.747  0.0866  0.6232 -0.3859
   15CHL1  H19C 1079   3.369   3.889   9.728  2.4710 -0.5422 -0.3024
   15CHL1    C1 1080   3.605   3.891   9.877 -0.1956 -0.9151 -0.2164
   15CHL1   H1A 1081   3.573   3.794   9.834 -1.3678 -2.0478  2.9171
   15CHL1   H1B 1082   3.713   3.907   9.858 -0.3279  0.6264  0.1871
   15CHL1    C2 1083   3.586   3.888  10.027 -0.1111 -0.4278 -0.3357
   15CHL1   H2A 1084   3.647   3.807  10.072 -0.9890 -2.1083 -2.0017
   15CHL1   H2B 1085   3.486   3.856  10.063  0.5086  0.4090  2.3620
   15CHL1   C20 1086   3.603   4.010   9.110  0.3503 -0.0319  0.6699
   15CHL1   H20 1087   3.604   3.903   9.138 -0.4805 -0.6325 -1.3809
   15CHL1   C21 1088   3.720   4.023   9.005  0.4133 -0.3040 -0.7991
   15CHL1  H21A 1089   3.796   3.958   9.053 -0.4081 -0.7323 -0.0475
   15CHL1  H21B 1090   3.749   4.129   8.986 -1.0923  0.4079  0.6503
   15CHL1  H21C 1091   3.692   3.967   8.913  2.1183 -0.9147 -0.9790
   15CHL1   C22 1092   3.475   4.037   9.027  0.2863 -0.2160 -0.0857
   15CHL1  H22A 1093   3.399   4.057   9.106  1.3637  0.8039  0.7303
   15CHL1  H22B 1094   3.460   4.136   8.980 -0.6575 -0.1234  0.3886
   15CHL1   C23 1095   3.434   3.909   8.957 -0.4680 -0.4526 -0.3789
   15CHL1  H23A 1096   3.490   3.893   8.863 -2.8147 -1.8849 -1.6273
   15CHL1  H23B 1097   3.448   3.818   9.020 -1.5850 -1.0558 -0.9795
   15CHL1   C24 1098   3.281   3.916   8.930  0.3224  0.1968 -0.1698
   15CHL1  H24A 1099   3.238   3.889   9.029  2.7360 -0.9569  0.6412
   15CHL1  H24B 1100   3.243   4.015   8.896 -0.9426 -0.7969 -1.8240
   15CHL1   C25 1101   3.217   3.803   8.845 -0.7699 -0.4148 -0.1761
   15CHL1   H25 1102   3.107   3.802   8.862 -0.5494 -0.2068  1.3612
   15CHL1   C26 1103   3.235   3.841   8.694 -0.1839  0.2743 -0.0646
   15CHL1  H26A 1104   3.189   3.942   8.686 -1.3680 -0.3361 -1.3024
   15CHL1  H26B 1105   3.343   3.848   8.669  0.2301  0.8907  1.7276
   15CHL1  H26C 1106   3.174   3.764   8.642 -1.3489  0.1549  1.3966
   15CHL1   C27 1107   3.285   3.668   8.887  0.5688 -0.3709  0.6224
   15CHL1  H27A 1108   3.385   3.648   8.843 -0.0992 -1.7012 -0.3674
   15CHL1  H27B 1109   3.297   3.672   8.997  2.6564  0.2812  0.4134
   15CHL1  H27C 1110   3.220   3.580   8.865 -0.9740  0.9537 -0.3280
   16CHL1    C3 1111   4.430   4.079  10.225 -0.1231 -0.0258  0.1985
   16CHL1    H3 1112   4.320   4.075  10.208 -0.0266 -1.8138 -0.2878
   16CHL1    O3 1113   4.459   4.120  10.354 -0.1440 -0.0002  0.0830
   16CHL1   H3' 1114   4.553   4.105  10.367 -0.2519 -1.9183 -1.0680
   16CHL1    C4 1115   4.489   3.934  10.202  0.1455  0.2901  0.1501
   16CHL1   H4A 1116   4.595   3.933  10.235  0.1048 -1.5118  0.3282
   16CHL1   H4B 1117   4.425   3.874  10.270 -0.2103  1.1867  0.6324
   16CHL1    C5 1118   4.465   3.890  10.060  0.1042 -0.0479  0.5266
   16CHL1    C6 1119   4.398   3.774  10.038  0.9734 -0.2945 -0.4174
   16CHL1    H6 1120   4.348   3.712  10.114  1.8034  0.6991  0.9664
   16CHL1    C7 1121   4.395   3.726   9.896 -0.7188  0.2532 -0.7476
   16CHL1   H7A 1122   4.412   3.617   9.898  2.9095  0.5337 -4.0726
   16CHL1   H7B 1123   4.303   3.761   9.844  0.2781  0.3903 -2.5089
   16CHL1    C8 1124   4.517   3.777   9.811  0.0390  0.2993  0.0679
   16CHL1    H8 1125   4.610   3.740   9.859 -1.4967 -0.8591  2.3021
   16CHL1   C14 1126   4.480   3.725   9.672 -0.1160  0.4185 -0.2992
   16CHL1   H14 1127   4.382   3.763   9.639  0.7039  0.4148 -2.9512
   16CHL1   C15 1128   4.456   3.575   9.646 -0.2519 -0.2774 -0.1872
   16CHL1  H15A 1129   4.517   3.518   9.720  0.0565  0.2260 -0.0514
   16CHL1  H15B 1130   4.350   3.550   9.666 -0.7802 -0.6098 -2.9637
   16CHL1   C16 1131   4.495   3.555   9.501  0.0567  0.8437  0.0262
   16CHL1  H16A 1132   4.586   3.492   9.492 -0.0932  0.7606 -1.0739
   16CHL1  H16B 1133   4.418   3.495   9.448  0.0134  1.2042 -0.3201
   16CHL1   C17 1134   4.524   3.697   9.440 -0.5761 -0.2563 -0.7512
   16CHL1   H17 1135   4.423   3.737   9.414 -0.0619  1.3762 -0.4009
   16CHL1   C13 1136   4.572   3.773   9.565  0.4887 -0.0271 -0.0827
   16CHL1   C18 1137   4.718   3.723   9.594 -0.1243 -0.8293  0.1093
   16CHL1  H18A 1138   4.793   3.781   9.537 -0.2335 -1.5629 -0.7951
   16CHL1  H18B 1139   4.736   3.741   9.702  1.7625 -1.7842 -0.0044
   16CHL1  H18C 1140   4.737   3.615   9.581  0.9177 -0.4885 -1.4291
   16CHL1   C12 1141   4.566   3.925   9.568  0.4321 -0.3513 -0.3097
   16CHL1  H12A 1142   4.650   3.955   9.502 -0.1931 -0.3858 -1.1448
   16CHL1  H12B 1143   4.461   3.943   9.536  0.3103  1.4963  0.9657
   16CHL1   C11 1144   4.599   3.988   9.705 -0.4034  0.4995 -0.1625
   16CHL1  H11A 1145   4.705   3.963   9.727 -0.2165  0.8821 -0.6169
   16CHL1  H11B 1146   4.585   4.098   9.715  0.0412  0.4297  1.5500
   16CHL1    C9 1147   4.512   3.927   9.819  0.3506 -0.5119  0.3028
   16CHL1    H9 1148   4.409   3.957   9.790  0.7021  1.9081  1.3295
   16CHL1   C10 1149   4.538   3.979   9.962 -0.3642  0.0087 -0.1381
   16CHL1   C19 1150   4.697   3.982   9.988  0.1224  0.2134 -0.4657
   16CHL1  H19A 1151   4.744   4.066   9.932  0.7977 -1.1965 -2.1227
   16CHL1  H19B 1152   4.719   3.987  10.097 -2.5905 -0.5200  0.1774
   16CHL1  H19C 1153   4.756   3.902   9.938  2.2281  1.3365  0.0661
   16CHL1    C1 1154   4.487   4.121   9.978 -0.4300 -0.2848 -0.3372
   16CHL1   H1A 1155   4.550   4.184   9.912  3.8871 -2.3970  1.3595
   16CHL1   H1B 1156   4.385   4.148   9.941 -1.1645 -1.4947  0.7090
   16CHL1    C2 1157   4.497   4.179  10.125 -0.0808 -0.4682  0.9131
   16CHL1   H2A 1158   4.444   4.276  10.122 -0.0776 -0.4871 -0.3061
   16CHL1   H2B 1159   4.604   4.203  10.140 -0.1390  1.1902 -0.8684
   16CHL1   C20 1160   4.602   3.695   9.306  0.5877 -0.3635 -0.2528
   16CHL1   H20 1161   4.707   3.690   9.340 -0.7969  0.5289  5.1855
   16CHL1   C21 1162   4.570   3.834   9.233 -0.1560 -0.5357  0.0122
   16CHL1  H21A 1163   4.597   3.915   9.303  1.8270 -0.5334 -0.6749
   16CHL1  H21B 1164   4.462   3.845   9.209  0.3343  1.1863 -1.6846
   16CHL1  H21C 1165   4.621   3.852   9.135 -0.0062  1.6596  0.4463
   16CHL1   C22 1166   4.574   3.575   9.213 -0.4983 -0.1186  0.7490
   16CHL1  H22A 1167   4.615   3.481   9.257  0.1249  0.0565  0.5457
   16CHL1  H22B 1168   4.469   3.567   9.179  0.2995 -0.7231 -1.7497
   16CHL1   C23 1169   4.661   3.581   9.076 -0.0038 -0.5120 -0.4223
   16CHL1  H23A 1170   4.747   3.647   9.098  0.1283 -1.2318  1.4113
   16CHL1  H23B 1171   4.707   3.481   9.061  0.5303 -0.1370 -1.3000
   16CHL1   C24 1172   4.578   3.621   8.953  0.5918  0.7551  0.0481
   16CHL1  H24A 1173   4.491   3.554   8.937 -0.5769  2.2289 -0.0040
   16CHL1  H24B 1174   4.539   3.725   8.964  0.2795  0.7097 -0.5546
   16CHL1   C25 1175   4.666   3.610   8.825  0.2245  0.5717 -0.8759
   16CHL1   H25 1176   4.719   3.512   8.832  1.5027  1.3660  2.4417
   16CHL1   C26 1177   4.583   3.621   8.697  0.0956 -0.2362 -0.5625
   16CHL1  H26A 1178   4.635   3.609   8.600  1.0424  2.5756 -0.4879
   16CHL1  H26B 1179   4.504   3.543   8.692 -0.3175  0.2726 -2.5754
   16CHL1  H26C 1180   4.525   3.715   8.696 -0.3287 -0.4573  0.8193
   16CHL1   C27 1181   4.757   3.724   8.817 -0.1898 -1.0560 -0.2966
   16CHL1  H27A 1182   4.823   3.720   8.906 -1.1664 -2.0512  0.4092
   16CHL1  H27B 1183   4.824   3.730   8.729  1.4849  1.2974  1.0283
   16CHL1  H27C 1184   4.692   3.814   8.820  0.0029 -0.9168 -0.2567
   17CHL1    C3 1185   6.717   1.670  10.154  0.0845 -0.0122  0.5120
   17CHL1    H3 1186   6.804   1.739  10.163  0.5653 -0.7143  1.3687
   17CHL1    O3 1187   6.636   1.663  10.267 -0.2627  0.2251 -0.1823
   17CHL1   H3' 1188   6.558   1.610  10.251 -1.3071  1.1850  1.3858
   17CHL1    C4 1189   6.632   1.701  10.028  0.3974  0.3317 -0.4316
   17CHL1   H4A 1190   6.542   1.636  10.036  0.8076 -0.0330  1.9529
   17CHL1   H4B 1191   6.597   1.806  10.034  1.2750  0.5717  0.7689
   17CHL1    C5 1192   6.707   1.685   9.897  0.1120 -0.0299  0.2403
   17CHL1    C6 1193   6.704   1.774   9.799  0.0228 -0.1686  0.3866
   17CHL1    H6 1194   6.637   1.859   9.819 -1.0265 -0.9446  0.2363
   17CHL1    C7 1195   6.769   1.775   9.668 -0.0250  0.7218 -0.7358
   17CHL1   H7A 1196   6.693   1.774   9.586  0.1904  0.3852 -0.9342
   17CHL1   H7B 1197   6.832   1.865   9.654  0.4886  0.5480  0.4145
   17CHL1    C8 1198   6.846   1.646   9.648 -0.0491  1.1976 -0.4412
   17CHL1    H8 1199   6.775   1.570   9.608 -0.0498  1.2229 -0.4868
   17CHL1   C14 1200   6.960   1.665   9.544  0.2747 -0.8174  0.1680
   17CHL1   H14 1201   7.037   1.726   9.595 -0.7732  0.8785 -0.2206
   17CHL1   C15 1202   6.928   1.739   9.405  0.1344  1.0366  0.1826
   17CHL1  H15A 1203   6.824   1.703   9.388  0.5905 -1.0076  1.3080
   17CHL1  H15B 1204   6.930   1.846   9.433  0.1387  1.3572 -0.9988
   17CHL1   C16 1205   7.042   1.688   9.311 -0.3467  0.4574  0.0092
   17CHL1  H16A 1206   6.993   1.633   9.228  0.8943 -0.0098 -0.4492
   17CHL1  H16B 1207   7.115   1.766   9.281  1.6623 -1.0554  0.7219
   17CHL1   C17 1208   7.131   1.594   9.392 -0.4789 -0.0034  0.6171
   17CHL1   H17 1209   7.215   1.639   9.449 -0.0626 -0.6728  0.5461
   17CHL1   C13 1210   7.033   1.536   9.499 -0.3250  0.0718 -0.2380
   17CHL1   C18 1211   6.931   1.446   9.424 -0.0857 -0.0519  0.5772
   17CHL1  H18A 1212   6.845   1.423   9.490  0.1005  0.2190  0.9163
   17CHL1  H18B 1213   6.897   1.495   9.330 -0.8556 -0.1288  0.8078
   17CHL1  H18C 1214   6.973   1.347   9.395  0.6150  0.6064 -0.7667
   17CHL1   C12 1215   7.090   1.474   9.629  0.2563  1.0830 -0.1347
   17CHL1  H12A 1216   7.135   1.376   9.601  0.0124  0.1451  2.5247
   17CHL1  H12B 1217   7.182   1.523   9.667  2.1999 -1.7340 -0.8731
   17CHL1   C11 1218   6.976   1.458   9.736  0.3238 -0.0516 -0.5543
   17CHL1  H11A 1219   6.908   1.379   9.698  0.3196 -0.5195  0.3815
   17CHL1  H11B 1220   7.019   1.405   9.824  2.2277 -0.8573 -1.9033
   17CHL1    C9 1221   6.900   1.581   9.777  0.1863  0.0020  1.2015
   17CHL1    H9 1222   6.971   1.661   9.808  0.4304  0.8734 -1.3878
   17CHL1   C10 1223   6.798   1.559   9.893  1.0861 -0.9586 -0.7840
   17CHL1   C19 1224   6.715   1.430   9.857 -0.1177 -0.5535  0.4013
   17CHL1  H19A 1225   6.756   1.331   9.887  0.4673 -0.7549 -0.9790
   17CHL1  H19B 1226   6.621   1.446   9.914  0.7159  2.0722  1.1632
   17CHL1  H19C 1227   6.689   1.431   9.749 -0.5343 -2.2350  0.4586
   17CHL1    C1 1228   6.878   1.537  10.025  0.2003 -0.1770  0.8131
   17CHL1   H1A 1229   6.938   1.443  10.027 -1.3475 -1.3882 -2.2667
   17CHL1   H1B 1230   6.948   1.623  10.037 -1.3568  1.2416  0.0401
   17CHL1    C2 1231   6.777   1.535  10.142  0.0790  0.1687 -0.2253
   17CHL1   H2A 1232   6.826   1.507  10.238  0.8943  1.4888 -0.2416
   17CHL1   H2B 1233   6.700   1.459  10.118  0.4898  0.0431 -1.1976
   17CHL1   C20 1234   7.196   1.494   9.292  0.7401  0.2092  0.3376
   17CHL1   H20 1235   7.122   1.451   9.221 -1.3973  1.2487  1.8100
   17CHL1   C21 1236   7.254   1.373   9.365 -0.1291  0.6492  0.0990
   17CHL1  H21A 1237   7.180   1.303   9.410  2.3310 -2.7247 -0.6933
   17CHL1  H21B 1238   7.314   1.412   9.449 -0.8332  1.9866  0.0123
   17CHL1  H21C 1239   7.305   1.303   9.295 -2.7153 -0.0764 -1.2256
   17CHL1   C22 1240   7.302   1.558   9.206 -0.1189  0.3975 -0.5377
   17CHL1  H22A 1241   7.254   1.644   9.155  2.1845  2.9760  1.3091
   17CHL1  H22B 1242   7.376   1.612   9.269  1.7228 -0.3454 -1.9419
   17CHL1   C23 1243   7.383   1.465   9.115  0.4040 -0.6139 -0.5674
   17CHL1  H23A 1244   7.457   1.410   9.177  0.2807  2.1738  2.2435
   17CHL1  H23B 1245   7.328   1.397   9.046 -1.2644  1.4940 -1.4346
   17CHL1   C24 1246   7.473   1.555   9.022  0.2195  0.4857 -0.9922
   17CHL1  H24A 1247   7.420   1.613   8.943  0.0053  0.1599 -1.0910
   17CHL1  H24B 1248   7.530   1.632   9.077 -1.0887  0.3205  0.6657
   17CHL1   C25 1249   7.586   1.470   8.948 -0.4619 -0.2060 -0.0169
   17CHL1   H25 1250   7.630   1.419   9.037 -0.6882 -0.3115  0.0342
   17CHL1   C26 1251   7.533   1.372   8.848 -0.1478  0.3873  0.6126
   17CHL1  H26A 1252   7.442   1.317   8.881 -1.2778  0.7742 -1.6877
   17CHL1  H26B 1253   7.496   1.425   8.758  0.6207  1.7056  1.0431
   17CHL1  H26C 1254   7.611   1.308   8.800  1.0346  1.1105  1.5083
   17CHL1   C27 1255   7.684   1.568   8.884 -0.1348 -0.9654  0.3752
   17CHL1  H27A 1256   7.628   1.629   8.810  1.1980 -2.1547 -1.7296
   17CHL1  H27B 1257   7.737   1.637   8.953 -1.0430  0.4880 -0.3254
   17CHL1  H27C 1258   7.757   1.507   8.826 -0.3644 -0.4060 -0.5310
   18CHL1    C3 1259   5.643   6.735  10.203  1.4462  0.7625  1.2055
   18CHL1    H3 1260   5.718   6.799  10.151 -0.5807  0.7665 -1.9905
   18CHL1    O3 1261   5.674   6.722  10.342 -0.0745 -0.3044  0.2640
   18CHL1   H3' 1262   5.596   6.689  10.387  2.1677 -3.1589  2.4138
   18CHL1    C4 1263   5.503   6.796  10.190 -0.0729 -0.5627 -0.1654
   18CHL1   H4A 1264   5.430   6.740  10.252  0.6896  1.2635  2.5785
   18CHL1   H4B 1265   5.513   6.895  10.239 -1.5643 -1.0154  1.1197
   18CHL1    C5 1266   5.465   6.808  10.042 -0.0852  0.4550  0.3320
   18CHL1    C6 1267   5.443   6.929   9.978 -0.5133  0.3804  0.5739
   18CHL1    H6 1268   5.436   7.021  10.039 -3.4625  0.5202  0.1783
   18CHL1    C7 1269   5.414   6.941   9.833  1.2367 -1.3144  0.0880
   18CHL1   H7A 1270   5.340   7.022   9.812  1.9861 -0.6447 -0.0558
   18CHL1   H7B 1271   5.501   6.996   9.790  0.8394 -0.0437  0.8386
   18CHL1    C8 1272   5.365   6.807   9.763 -0.3551 -0.0960 -1.1960
   18CHL1    H8 1273   5.263   6.780   9.796  0.3419 -0.4393  0.7662
   18CHL1   C14 1274   5.369   6.832   9.614 -0.0303 -0.9333  0.2057
   18CHL1   H14 1275   5.475   6.860   9.596 -0.5181  0.1725 -1.1170
   18CHL1   C15 1276   5.294   6.954   9.558  0.5498 -0.0579  0.1440
   18CHL1  H15A 1277   5.191   6.959   9.599  0.8173 -0.2775  0.8600
   18CHL1  H15B 1278   5.349   7.048   9.581  0.8056 -0.1275 -0.1779
   18CHL1   C16 1279   5.292   6.926   9.407 -0.3142  0.4373 -0.1843
   18CHL1  H16A 1280   5.187   6.928   9.373  0.0620 -1.1424 -1.6010
   18CHL1  H16B 1281   5.348   7.000   9.346  0.2348  0.1781 -0.0046
   18CHL1   C17 1282   5.357   6.785   9.388  0.4087 -0.4525  0.1783
   18CHL1   H17 1283   5.464   6.795   9.361  0.9422 -0.9600  1.9973
   18CHL1   C13 1284   5.341   6.707   9.521  0.0130 -0.4194 -0.0039
   18CHL1   C18 1285   5.197   6.669   9.536  0.0628  0.4964  0.2278
   18CHL1  H18A 1286   5.185   6.624   9.637 -0.6594 -1.2868 -0.6152
   18CHL1  H18B 1287   5.126   6.755   9.528  1.0069  1.1912 -1.0021
   18CHL1  H18C 1288   5.163   6.592   9.464  2.5272 -1.3862  0.9303
   18CHL1   C12 1289   5.442   6.594   9.561  0.0699 -0.3864 -0.2885
   18CHL1  H12A 1290   5.415   6.503   9.503 -1.7536  1.0185 -1.8087
   18CHL1  H12B 1291   5.546   6.623   9.533 -0.3499  1.2550 -0.2242
   18CHL1   C11 1292   5.436   6.567   9.717 -0.6692  0.9230  0.0547
   18CHL1  H11A 1293   5.337   6.518   9.732 -0.6670  0.5503 -1.0603
   18CHL1  H11B 1294   5.514   6.493   9.748  0.5290  2.2731  0.3421
   18CHL1    C9 1295   5.459   6.695   9.807  0.0807  0.2019  0.3643
   18CHL1    H9 1296   5.559   6.728   9.772 -0.7495  2.3330 -0.1564
   18CHL1   C10 1297   5.469   6.673   9.961  1.6783  0.5771 -0.5645
   18CHL1   C19 1298   5.351   6.597  10.017  0.2996  0.0104  0.4254
   18CHL1  H19A 1299   5.253   6.637   9.985 -0.4059 -1.7966  0.2104
   18CHL1  H19B 1300   5.350   6.493   9.978 -0.8325  0.7845 -1.8016
   18CHL1  H19C 1301   5.365   6.569  10.123 -0.0238 -1.7764  0.0287
   18CHL1    C1 1302   5.600   6.590   9.990 -0.0535  0.4105 -0.6251
   18CHL1   H1A 1303   5.581   6.485   9.959  1.9096 -0.3313  0.5313
   18CHL1   H1B 1304   5.681   6.623   9.922  1.7762  0.9046  1.6589
   18CHL1    C2 1305   5.639   6.595  10.139 -0.4146 -0.2188  0.6852
   18CHL1   H2A 1306   5.743   6.556  10.148 -0.5982 -0.3925  2.3115
   18CHL1   H2B 1307   5.569   6.543  10.208 -1.0715 -0.2479  0.0174
   18CHL1   C20 1308   5.303   6.735   9.261 -0.5508  0.7255  0.2100
   18CHL1   H20 1309   5.192   6.726   9.268 -0.5283  1.5289  2.2306
   18CHL1   C21 1310   5.377   6.602   9.240  0.5235 -0.7741  0.2336
   18CHL1  H21A 1311   5.351   6.534   9.324  2.9431 -2.2488 -0.1482
   18CHL1  H21B 1312   5.486   6.617   9.226  0.4615  0.9335  1.2986
   18CHL1  H21C 1313   5.334   6.542   9.157  0.8122  0.9270 -1.1971
   18CHL1   C22 1314   5.330   6.828   9.134  0.0665  0.6732 -0.1584
   18CHL1  H22A 1315   5.285   6.927   9.154 -0.0544  0.6954 -0.5436
   18CHL1  H22B 1316   5.439   6.853   9.130  0.4120 -0.3582  1.5567
   18CHL1   C23 1317   5.287   6.775   9.000  0.1575  0.0415 -0.1749
   18CHL1  H23A 1318   5.333   6.677   8.976 -1.4498 -0.3524 -1.8534
   18CHL1  H23B 1319   5.180   6.750   9.011  0.5125 -1.4394  0.2001
   18CHL1   C24 1320   5.307   6.869   8.878  0.4559 -0.8465  0.5964
   18CHL1  H24A 1321   5.237   6.954   8.896 -0.0979 -0.7031 -1.8348
   18CHL1  H24B 1322   5.410   6.911   8.871  0.4997 -0.9225  0.8013
   18CHL1   C25 1323   5.281   6.804   8.739  0.2998 -0.1420  0.1722
   18CHL1   H25 1324   5.364   6.732   8.726  0.7508  0.3850  0.1088
   18CHL1   C26 1325   5.149   6.716   8.738 -0.6642  0.0664  0.0382
   18CHL1  H26A 1326   5.061   6.778   8.767  0.2678  0.5245  2.1291
   18CHL1  H26B 1327   5.131   6.680   8.635 -4.3627 -0.3984  0.6920
   18CHL1  H26C 1328   5.150   6.631   8.810 -2.8865 -0.3292 -0.3105
   18CHL1   C27 1329   5.269   6.912   8.628 -0.2902  0.5428 -0.7951
   18CHL1  H27A 1330   5.368   6.956   8.606 -0.9469  2.2563 -0.4658
   18CHL1  H27B 1331   5.230   6.859   8.538 -0.7133  0.1287 -0.3772
   18CHL1  H27C 1332   5.201   6.990   8.668  2.1914  1.4577  2.0289
   19CHL1    C3 1333   2.682   4.940   9.958 -0.2460  0.2438 -0.7317
   19CHL1    H3 1334   2.691   5.042   9.914  0.6295  0.5853  0.1953
   19CHL1    O3 1335   2.696   4.939  10.097 -0.1193  0.5736  0.3537
   19CHL1   H3' 1336   2.748   5.018  10.114  0.6498  0.3496 -0.8801
   19CHL1    C4 1337   2.551   4.879   9.909 -0.0910  0.2422 -0.4023
   19CHL1   H4A 1338   2.550   4.781   9.962  1.6013  0.9422  0.9928
   19CHL1   H4B 1339   2.464   4.941   9.940  0.4875  3.0405 -3.7132
   19CHL1    C5 1340   2.555   4.873   9.755 -0.7004 -0.3597  0.4202
   19CHL1    C6 1341   2.463   4.931   9.673  1.2728 -0.3742 -0.4440
   19CHL1    H6 1342   2.383   4.983   9.727  1.4410  0.1947 -0.7330
   19CHL1    C7 1343   2.461   4.926   9.526  1.0988  0.9039  0.2615
   19CHL1   H7A 1344   2.360   4.894   9.492  0.8915 -0.8364  2.3037
   19CHL1   H7B 1345   2.488   5.025   9.483  0.8234  1.5151  1.4561
   19CHL1    C8 1346   2.555   4.819   9.468  0.4965 -0.6832  0.4321
   19CHL1    H8 1347   2.505   4.721   9.486 -0.0191 -0.6583 -0.7849
   19CHL1   C14 1348   2.571   4.840   9.316 -0.3456 -0.3873 -1.1218
   19CHL1   H14 1349   2.600   4.946   9.299 -0.4070 -0.2927 -0.6447
   19CHL1   C15 1350   2.445   4.829   9.227 -0.0836  0.3649 -0.1755
   19CHL1  H15A 1351   2.387   4.739   9.255 -0.4815  1.3311  2.4366
   19CHL1  H15B 1352   2.368   4.909   9.236 -0.7354 -0.0448 -1.7435
   19CHL1   C16 1353   2.501   4.821   9.087  0.0458 -0.7933 -0.0807
   19CHL1  H16A 1354   2.462   4.726   9.046 -1.3392  0.6118 -2.2577
   19CHL1  H16B 1355   2.480   4.906   9.018 -0.8617  0.0978  1.2378
   19CHL1   C17 1356   2.655   4.820   9.104 -0.4556 -0.2233 -0.7968
   19CHL1   H17 1357   2.699   4.921   9.097 -0.0148 -0.3915 -0.5293
   19CHL1   C13 1358   2.682   4.758   9.250 -0.0322  0.4787  0.4203
   19CHL1   C18 1359   2.646   4.600   9.251  0.2407 -0.6353  0.3415
   19CHL1  H18A 1360   2.708   4.545   9.177 -1.3655 -1.8451 -0.1496
   19CHL1  H18B 1361   2.664   4.569   9.357 -0.9642  1.8329  1.3434
   19CHL1  H18C 1362   2.544   4.568   9.222  0.2055 -0.0154 -0.2289
   19CHL1   C12 1363   2.815   4.796   9.321  0.3964  0.1588 -0.2546
   19CHL1  H12A 1364   2.890   4.727   9.276 -0.6826 -0.9294 -0.4110
   19CHL1  H12B 1365   2.842   4.904   9.322  0.7719  0.0710 -0.5710
   19CHL1   C11 1366   2.803   4.757   9.473  0.0483  0.4631 -0.2325
   19CHL1  H11A 1367   2.801   4.646   9.485  1.1452  0.1264 -2.6700
   19CHL1  H11B 1368   2.896   4.798   9.518  1.6741 -1.1009 -1.9814
   19CHL1    C9 1369   2.692   4.836   9.535  0.0850  0.4562  0.3565
   19CHL1    H9 1370   2.727   4.941   9.523  2.1928 -0.0819  1.3326
   19CHL1   C10 1371   2.679   4.805   9.686  0.6301  0.9643 -0.0929
   19CHL1   C19 1372   2.676   4.653   9.717  0.2685 -0.1466  0.3503
   19CHL1  H19A 1373   2.590   4.605   9.666 -1.9355  2.6116  1.2179
   19CHL1  H19B 1374   2.775   4.605   9.697 -0.1119 -1.2530  0.9922
   19CHL1  H19C 1375   2.661   4.640   9.826  0.5318  0.8474  0.5193
   19CHL1    C1 1376   2.805   4.856   9.754 -0.8802 -0.3655 -0.4236
   19CHL1   H1A 1377   2.898   4.806   9.721 -0.8169 -1.3097  1.0750
   19CHL1   H1B 1378   2.819   4.965   9.737  0.7890 -0.3565  0.7749
   19CHL1    C2 1379   2.800   4.848   9.907 -0.5678  0.0514 -0.6526
   19CHL1   H2A 1380   2.898   4.892   9.938 -0.6523  0.0728 -0.4195
   19CHL1   H2B 1381   2.804   4.743   9.943  1.9115  0.6702  1.1620
   19CHL1   C20 1382   2.720   4.748   8.987  0.3249  0.2992  0.1879
   19CHL1   H20 1383   2.681   4.645   8.987 -0.4655  0.5920  0.7175
   19CHL1   C21 1384   2.878   4.739   9.005  0.0669  0.5290 -1.1305
   19CHL1  H21A 1385   2.926   4.731   8.905 -0.1531  1.7142 -1.3471
   19CHL1  H21B 1386   2.900   4.646   9.062 -1.1578  0.8866 -0.0231
   19CHL1  H21C 1387   2.908   4.825   9.069  0.2178 -1.7633  2.1668
   19CHL1   C22 1388   2.680   4.813   8.847 -0.1912 -0.2540  0.4273
   19CHL1  H22A 1389   2.578   4.854   8.827  0.5930  0.7088 -1.9764
   19CHL1  H22B 1390   2.744   4.901   8.828  2.4773 -1.2770  3.8170
   19CHL1   C23 1391   2.720   4.721   8.728  0.0051  0.2973 -0.1812
   19CHL1  H23A 1392   2.818   4.757   8.690  0.9393 -1.8606  0.0619
   19CHL1  H23B 1393   2.723   4.614   8.758  1.1731  0.3080 -0.2474
   19CHL1   C24 1394   2.626   4.732   8.614  0.4233  0.1776  0.4363
   19CHL1  H24A 1395   2.593   4.838   8.612  1.4712  0.5216 -1.2543
   19CHL1  H24B 1396   2.681   4.698   8.523 -0.9069 -4.7693  1.2033
   19CHL1   C25 1397   2.493   4.647   8.629  0.0855  0.0107  0.3962
   19CHL1   H25 1398   2.441   4.681   8.721 -1.8425 -0.6444 -0.3978
   19CHL1   C26 1399   2.380   4.669   8.526  0.5569 -0.1136 -0.5233
   19CHL1  H26A 1400   2.287   4.632   8.575  0.7168  1.2445  0.9050
   19CHL1  H26B 1401   2.353   4.777   8.517 -1.7476 -0.7033 -1.3077
   19CHL1  H26C 1402   2.392   4.620   8.427 -2.2204  0.4823 -1.2511
   19CHL1   C27 1403   2.521   4.492   8.646  1.0124 -0.5135 -0.0661
   19CHL1  H27A 1404   2.626   4.465   8.672  1.2273  1.5947  1.5048
   19CHL1  H27B 1405   2.448   4.456   8.722  1.0060 -1.1707 -0.3725
   19CHL1  H27C 1406   2.497   4.447   8.547 -0.8141 -1.2012  0.6337
   20CHL1    C3 1407   6.036   3.537  10.327  0.3148 -0.2818 -0.5080
   20CHL1    H3 1408   5.973   3.454  10.289 -1.3867  1.3470 -1.4066
   20CHL1    O3 1409   6.038   3.553  10.467 -0.9793  0.3381  0.2394
   20CHL1   H3' 1410   6.077   3.640  10.473 -0.9291  0.2372  1.7602
   20CHL1    C4 1411   6.176   3.525  10.279  0.7484 -0.0764  0.1337
   20CHL1   H4A 1412   6.242   3.603  10.323 -0.2985  0.5126  0.7195
   20CHL1   H4B 1413   6.221   3.434  10.325  1.5118 -0.3401 -1.1043
   20CHL1    C5 1414   6.172   3.508  10.130 -0.6440  0.1896 -0.6339
   20CHL1    C6 1415   6.221   3.392  10.074  0.2642 -0.6941 -0.0214
   20CHL1    H6 1416   6.266   3.319  10.143 -0.3491  0.4910  1.7086
   20CHL1    C7 1417   6.212   3.358   9.927 -0.3928  0.4584  0.1607
   20CHL1   H7A 1418   6.307   3.315   9.888 -0.5429  1.6301 -1.6045
   20CHL1   H7B 1419   6.124   3.293   9.910  0.7516 -0.5960 -2.1782
   20CHL1    C8 1420   6.185   3.482   9.838  0.0844 -0.3417  0.6697
   20CHL1    H8 1421   6.273   3.549   9.837  0.2472 -0.5509 -0.9175
   20CHL1   C14 1422   6.149   3.439   9.696 -0.3349 -0.1999  0.3691
   20CHL1   H14 1423   6.059   3.375   9.707  0.4236 -1.2887  0.4180
   20CHL1   C15 1424   6.257   3.351   9.623 -0.3431  0.5433 -0.1299
   20CHL1  H15A 1425   6.356   3.402   9.631  0.4928 -0.9396 -0.4979
   20CHL1  H15B 1426   6.267   3.247   9.662  1.8857  1.0186  0.7223
   20CHL1   C16 1427   6.198   3.346   9.475 -0.2415 -0.7686  0.1578
   20CHL1  H16A 1428   6.288   3.358   9.411 -1.4381  0.1985 -1.4299
   20CHL1  H16B 1429   6.150   3.253   9.438  0.9657 -0.9345 -1.0819
   20CHL1   C17 1430   6.083   3.457   9.481 -0.4903 -0.2526 -0.9550
   20CHL1   H17 1431   5.991   3.398   9.500 -2.0064  2.0048 -0.9029
   20CHL1   C13 1432   6.110   3.553   9.601  0.3405 -0.2742 -0.2269
   20CHL1   C18 1433   6.226   3.645   9.575  0.1905 -0.2262  0.5614
   20CHL1  H18A 1434   6.196   3.728   9.507  2.6198  1.4793  1.4160
   20CHL1  H18B 1435   6.264   3.704   9.661 -0.2371  1.4385 -0.3436
   20CHL1  H18C 1436   6.307   3.593   9.521 -1.8694  0.7571 -3.9771
   20CHL1   C12 1437   5.990   3.623   9.669  0.1294 -0.0912 -0.3712
   20CHL1  H12A 1438   5.949   3.710   9.612 -2.4309 -0.5733  0.5955
   20CHL1  H12B 1439   5.902   3.555   9.672  0.5512 -0.6800 -0.9498
   20CHL1   C11 1440   6.020   3.671   9.810  0.0098 -0.1628  0.2724
   20CHL1  H11A 1441   6.100   3.746   9.794  1.6634 -1.9137  0.0349
   20CHL1  H11B 1442   5.934   3.718   9.863  0.2742  0.4881  0.1426
   20CHL1    C9 1443   6.069   3.561   9.908  0.2063  0.1506 -0.4535
   20CHL1    H9 1444   5.987   3.487   9.921  0.0979  0.4388  0.6248
   20CHL1   C10 1445   6.105   3.615  10.048 -0.5376  0.5272 -0.2960
   20CHL1   C19 1446   6.205   3.731  10.026 -0.1390  0.5555 -0.2498
   20CHL1  H19A 1447   6.275   3.704   9.944 -0.4546  1.7071 -0.9197
   20CHL1  H19B 1448   6.164   3.828   9.991 -2.4239 -1.0710 -2.4019
   20CHL1  H19C 1449   6.260   3.742  10.122  1.0266 -1.0851 -0.6784
   20CHL1    C1 1450   5.974   3.656  10.119 -0.0041 -0.3050 -0.0411
   20CHL1   H1A 1451   5.934   3.747  10.071  1.2223  0.3929  0.1984
   20CHL1   H1B 1452   5.908   3.568  10.107 -0.0897 -0.2008 -0.3412
   20CHL1    C2 1453   5.985   3.667  10.273 -0.5787  0.5817  0.5072
   20CHL1   H2A 1454   5.880   3.689  10.304 -1.7414  0.4455 -2.8806
   20CHL1   H2B 1455   6.058   3.747  10.295  0.5510 -0.4105  0.4292
   20CHL1   C20 1456   6.063   3.524   9.347 -0.2276 -0.0013  0.9005
   20CHL1   H20 1457   6.150   3.588   9.321  1.4027 -2.3729  0.1707
   20CHL1   C21 1458   5.943   3.611   9.356  0.3360 -0.2451 -0.3181
   20CHL1  H21A 1459   5.907   3.636   9.254  2.7951  1.2273 -0.8919
   20CHL1  H21B 1460   5.965   3.707   9.407 -1.1785  0.5086 -1.0207
   20CHL1  H21C 1461   5.865   3.556   9.413  0.7807 -1.7830 -1.1530
   20CHL1   C22 1462   6.066   3.421   9.226  1.3088 -0.0260 -0.2781
   20CHL1  H22A 1463   6.139   3.337   9.232  0.1043 -1.1767 -1.2327
   20CHL1  H22B 1464   5.963   3.382   9.220  1.5062 -0.6931  0.6090
   20CHL1   C23 1465   6.101   3.499   9.097  0.2481 -0.0997 -0.3538
   20CHL1  H23A 1466   6.023   3.577   9.089 -2.0695 -2.3225 -0.6935
   20CHL1  H23B 1467   6.206   3.536   9.108  0.2695 -0.3446  0.2975
   20CHL1   C24 1468   6.116   3.412   8.977  0.1075  0.1567 -0.4391
   20CHL1  H24A 1469   6.197   3.338   8.991 -1.0346 -0.9246  0.6776
   20CHL1  H24B 1470   6.029   3.345   8.957  0.0096  0.1178  0.1118
   20CHL1   C25 1471   6.112   3.498   8.844  0.0712  0.3435 -0.3968
   20CHL1   H25 1472   6.161   3.595   8.868 -3.3703  2.1356 -0.0281
   20CHL1   C26 1473   6.197   3.428   8.732  0.0366 -0.3988 -0.0028
   20CHL1  H26A 1474   6.163   3.458   8.631 -0.2925 -1.3026 -0.1699
   20CHL1  H26B 1475   6.306   3.447   8.745 -0.1227 -0.8243  2.3887
   20CHL1  H26C 1476   6.187   3.318   8.730 -0.6931 -0.3418  0.2529
   20CHL1   C27 1477   5.979   3.543   8.802 -0.6274 -0.5484 -0.1096
   20CHL1  H27A 1478   5.914   3.462   8.763  0.9446 -1.3306 -1.1968
   20CHL1  H27B 1479   5.926   3.592   8.886 -0.4752 -0.0344 -0.3067
   20CHL1  H27C 1480   5.982   3.613   8.715  0.5513 -0.9964 -0.4512
   21CHL1    C3 1481   4.397   0.740  10.373  0.7695  0.1643 -0.0815
   21CHL1    H3 1482   4.390   0.630  10.361 -0.1939  0.1659  0.3997
   21CHL1    O3 1483   4.449   0.765  10.501  0.2039 -0.1685  0.2894
   21CHL1   H3' 1484   4.435   0.859  10.512  0.4837  0.4984 -3.5946
   21CHL1    C4 1485   4.494   0.800  10.271  0.8000 -0.3117 -0.2319
   21CHL1   H4A 1486   4.522   0.906  10.292 -1.1187  0.3449 -0.7634
   21CHL1   H4B 1487   4.590   0.746  10.285  1.1781 -0.1494 -1.9304
   21CHL1    C5 1488   4.444   0.775  10.124  0.1461 -0.4500 -0.5540
   21CHL1    C6 1489   4.519   0.715  10.041 -0.0050 -0.2900  0.0421
   21CHL1    H6 1490   4.623   0.691  10.065 -0.8296 -2.3001  1.9128
   21CHL1    C7 1491   4.476   0.695   9.895  0.3931 -0.0028 -0.3950
   21CHL1   H7A 1492   4.563   0.703   9.825  0.2089 -0.2819 -0.6594
   21CHL1   H7B 1493   4.455   0.586   9.887 -0.9378  0.2032  0.0667
   21CHL1    C8 1494   4.359   0.775   9.848 -0.0174  0.3863  0.3969
   21CHL1    H8 1495   4.384   0.881   9.825 -2.3605  0.6813 -1.1107
   21CHL1   C14 1496   4.303   0.716   9.726  0.5234  0.0401  0.1920
   21CHL1   H14 1497   4.272   0.615   9.758  2.5123 -0.6416  0.1002
   21CHL1   C15 1498   4.394   0.702   9.605  0.1187  0.4933  0.0903
   21CHL1  H15A 1499   4.449   0.797   9.586  0.0362  0.8450  1.4842
   21CHL1  H15B 1500   4.452   0.607   9.610  0.8067  0.9291  0.7055
   21CHL1   C16 1501   4.292   0.677   9.494  0.2889  0.1747 -0.9201
   21CHL1  H16A 1502   4.326   0.747   9.415  0.8508  0.9650 -0.0085
   21CHL1  H16B 1503   4.283   0.575   9.451  0.4295 -0.3713  0.3025
   21CHL1   C17 1504   4.147   0.704   9.559  0.2621 -0.2764  0.2310
   21CHL1   H17 1505   4.112   0.605   9.595  1.7694 -0.7173  0.5564
   21CHL1   C13 1506   4.178   0.787   9.680 -0.0879  0.4934 -0.7240
   21CHL1   C18 1507   4.203   0.935   9.640 -0.8437 -0.0437 -0.2450
   21CHL1  H18A 1508   4.108   0.976   9.601 -2.5679 -0.8651  2.7485
   21CHL1  H18B 1509   4.224   1.004   9.725  1.0509 -0.6819 -0.1489
   21CHL1  H18C 1510   4.284   0.939   9.564  1.0943 -1.0423  1.6551
   21CHL1   C12 1511   4.067   0.778   9.790 -0.5054  0.5000 -0.3391
   21CHL1  H12A 1512   3.977   0.833   9.753 -1.3195 -0.3136  0.3721
   21CHL1  H12B 1513   4.040   0.671   9.801 -0.1736  0.2470 -1.8016
   21CHL1   C11 1514   4.117   0.841   9.920  0.4575 -0.0263  0.2282
   21CHL1  H11A 1515   4.125   0.951   9.914  1.2328 -0.1091 -0.3271
   21CHL1  H11B 1516   4.037   0.826   9.996 -0.6211 -1.1226 -1.0522
   21CHL1    C9 1517   4.251   0.769   9.964 -0.0977 -0.6642  0.6658
   21CHL1    H9 1518   4.234   0.661   9.985 -0.3771 -0.7805 -0.1192
   21CHL1   C10 1519   4.305   0.824  10.101  0.1551 -0.2416 -0.4699
   21CHL1   C19 1520   4.299   0.975  10.106 -0.2219  0.0038  0.3654
   21CHL1  H19A 1521   4.200   1.023  10.096  1.0190  2.9507  1.0706
   21CHL1  H19B 1522   4.339   1.020  10.200  2.0673  1.8216 -1.3650
   21CHL1  H19C 1523   4.363   1.009  10.022 -0.6200  1.8606  0.7532
   21CHL1    C1 1524   4.213   0.766  10.214 -0.1174 -0.0383  0.5125
   21CHL1   H1A 1525   4.114   0.810  10.189  0.1136  0.2406  0.0738
   21CHL1   H1B 1526   4.213   0.655  10.215 -0.2354 -0.0902 -1.4736
   21CHL1    C2 1527   4.254   0.803  10.357  0.5499  0.1909  0.1022
   21CHL1   H2A 1528   4.197   0.756  10.439  0.3468 -0.1177 -0.2166
   21CHL1   H2B 1529   4.259   0.911  10.386  2.0391  0.0217  0.5858
   21CHL1   C20 1530   4.029   0.754   9.466 -0.3674 -0.2748  0.3583
   21CHL1   H20 1531   3.978   0.831   9.526 -3.5890 -2.0302  0.1132
   21CHL1   C21 1532   3.935   0.641   9.438 -0.0251  0.1874 -0.9914
   21CHL1  H21A 1533   3.912   0.589   9.533  0.7562 -0.8342 -1.3427
   21CHL1  H21B 1534   3.975   0.578   9.356 -0.4990  0.8812 -1.7781
   21CHL1  H21C 1535   3.840   0.685   9.400 -1.2466 -0.2674  1.3436
   21CHL1   C22 1536   4.086   0.822   9.331 -0.2616 -0.5933  0.0688
   21CHL1  H22A 1537   4.162   0.896   9.361 -1.5922 -0.2332  2.9124
   21CHL1  H22B 1538   4.130   0.745   9.264  0.1707  1.5079 -2.1992
   21CHL1   C23 1539   3.972   0.888   9.249  0.1475  0.6757  0.1813
   21CHL1  H23A 1540   3.899   0.810   9.219 -0.0406  0.3237  1.5226
   21CHL1  H23B 1541   3.920   0.968   9.306 -6.6382 -2.4464 -0.5461
   21CHL1   C24 1542   4.033   0.949   9.117 -0.1195 -0.3147 -0.1244
   21CHL1  H24A 1543   4.107   1.029   9.139  1.0440 -1.0513 -1.2186
   21CHL1  H24B 1544   4.086   0.871   9.058  1.0641  1.4555 -1.5249
   21CHL1   C25 1545   3.933   1.004   9.012 -0.5365  0.0380 -0.7016
   21CHL1   H25 1546   3.890   1.096   9.057 -1.3229  0.3324 -2.0288
   21CHL1   C26 1547   4.019   1.041   8.892 -0.5174  0.0387 -0.3753
   21CHL1  H26A 1548   3.966   1.101   8.815 -1.7081  0.8036  0.9903
   21CHL1  H26B 1549   4.111   1.096   8.923 -0.1521 -0.1353 -1.1342
   21CHL1  H26C 1550   4.042   0.948   8.836 -1.7974  1.0127 -2.6794
   21CHL1   C27 1551   3.818   0.905   8.984  0.1525  0.2980 -0.1362
   21CHL1  H27A 1552   3.759   0.888   9.076  1.0605  1.7133  0.7539
   21CHL1  H27B 1553   3.754   0.922   8.894 -0.6866 -0.0843  0.3794
   21CHL1  H27C 1554   3.861   0.806   8.958 -0.8391  0.1267 -1.2066
   22CHL1    C3 1555   4.986   2.772   9.905 -0.1986 -0.1742 -0.5556
   22CHL1    H3 1556   4.899   2.840   9.890  0.1001  0.9335  2.1337
   22CHL1    O3 1557   5.015   2.798  10.047  0.6182  0.1158  0.3621
   22CHL1   H3' 1558   5.065   2.721  10.075 -0.3357 -0.3756  0.7624
   22CHL1    C4 1559   4.942   2.623   9.884  0.1192  0.1525 -0.5007
   22CHL1   H4A 1560   5.022   2.561   9.929 -2.5795 -1.8286  1.8751
   22CHL1   H4B 1561   4.850   2.595   9.939  1.7301 -3.4879  0.6713
   22CHL1    C5 1562   4.914   2.593   9.737 -0.4994 -0.4049  0.0410
   22CHL1    C6 1563   4.791   2.551   9.701  0.6339  0.4196 -0.1872
   22CHL1    H6 1564   4.702   2.548   9.766 -0.8326 -3.9911 -2.0590
   22CHL1    C7 1565   4.768   2.503   9.563  0.4949  0.2633 -0.1873
   22CHL1   H7A 1566   4.705   2.411   9.565 -0.4171  0.8751  1.9365
   22CHL1   H7B 1567   4.712   2.575   9.501 -0.7616 -1.8924 -1.6885
   22CHL1    C8 1568   4.895   2.476   9.475  0.4242 -0.3599  0.0057
   22CHL1    H8 1569   4.944   2.383   9.511 -1.2523 -1.5179 -0.5944
   22CHL1   C14 1570   4.866   2.460   9.319  0.4163 -0.5652 -0.4134
   22CHL1   H14 1571   4.821   2.555   9.282 -1.9459 -0.9673  1.1882
   22CHL1   C15 1572   4.762   2.362   9.277  0.2414  0.5194  0.1141
   22CHL1  H15A 1573   4.803   2.273   9.328  2.1636  1.3918  0.1864
   22CHL1  H15B 1574   4.654   2.380   9.293  0.6351  2.3960  0.8861
   22CHL1   C16 1575   4.792   2.332   9.129 -0.7195 -0.4316  0.3163
   22CHL1  H16A 1576   4.796   2.222   9.119 -0.9015 -0.3418 -0.9530
   22CHL1  H16B 1577   4.710   2.377   9.068 -0.5902  2.6411  2.2061
   22CHL1   C17 1578   4.928   2.400   9.100  0.2956 -0.3801  0.1821
   22CHL1   H17 1579   4.922   2.493   9.038  0.9230 -0.4932 -0.0580
   22CHL1   C13 1580   4.992   2.435   9.238  0.2937 -0.0715 -0.1831
   22CHL1   C18 1581   5.065   2.308   9.294  0.6262  0.0495 -0.2786
   22CHL1  H18A 1582   5.097   2.323   9.400  2.4450  1.9700 -1.0389
   22CHL1  H18B 1583   4.994   2.223   9.299 -0.1325  0.7004  0.4931
   22CHL1  H18C 1584   5.148   2.279   9.226  1.6090  0.2801  0.7946
   22CHL1   C12 1585   5.079   2.560   9.253 -0.0644  0.3571 -1.0917
   22CHL1  H12A 1586   5.171   2.542   9.194 -0.4084 -1.5364 -1.1095
   22CHL1  H12B 1587   5.028   2.646   9.204 -1.3014  0.1020 -0.2975
   22CHL1   C11 1588   5.114   2.598   9.397  0.2454 -0.0880  0.3709
   22CHL1  H11A 1589   5.188   2.523   9.432 -0.4735 -0.4507  1.1511
   22CHL1  H11B 1590   5.161   2.698   9.402 -1.5027  0.7265  1.8446
   22CHL1    C9 1591   4.997   2.592   9.500 -0.1556 -0.1926  0.6383
   22CHL1    H9 1592   4.939   2.682   9.472  1.1058  0.5960  0.4724
   22CHL1   C10 1593   5.034   2.608   9.649 -0.7486  0.0661  0.1579
   22CHL1   C19 1594   5.142   2.505   9.690  0.9379  0.0397 -0.8172
   22CHL1  H19A 1595   5.172   2.510   9.796 -1.2594  1.5719 -0.2094
   22CHL1  H19B 1596   5.125   2.396   9.671  0.0439 -0.0739  0.5111
   22CHL1  H19C 1597   5.232   2.527   9.630  1.0180 -0.8068 -1.0296
   22CHL1    C1 1598   5.081   2.760   9.669  0.2620  0.8845 -0.6528
   22CHL1   H1A 1599   5.171   2.778   9.606  0.6969  1.3512  0.0797
   22CHL1   H1B 1600   5.011   2.821   9.608  0.5603  0.0894 -1.8255
   22CHL1    C2 1601   5.103   2.813   9.817 -0.1340 -0.2411  0.4078
   22CHL1   H2A 1602   5.100   2.921   9.792 -2.2055 -0.6642 -1.3774
   22CHL1   H2B 1603   5.202   2.778   9.856 -0.0643 -0.8458 -0.3119
   22CHL1   C20 1604   5.009   2.313   9.005  0.7326  1.4311  0.1114
   22CHL1   H20 1605   5.032   2.212   9.046 -3.5752  0.4208  0.4745
   22CHL1   C21 1606   5.135   2.389   8.959 -0.3605 -0.1923  0.5153
   22CHL1  H21A 1607   5.118   2.476   8.892  1.2020 -2.1317 -2.6673
   22CHL1  H21B 1608   5.204   2.319   8.907  0.7589  2.6111 -2.1228
   22CHL1  H21C 1609   5.201   2.421   9.043 -1.2954 -0.9393  1.5702
   22CHL1   C22 1610   4.922   2.270   8.887  0.7067 -0.8053 -0.2627
   22CHL1  H22A 1611   4.968   2.203   8.810  0.7215  2.9373 -3.8923
   22CHL1  H22B 1612   4.836   2.210   8.922  0.0789 -1.2782 -2.4451
   22CHL1   C23 1613   4.870   2.386   8.798 -0.4127  0.1159  0.6649
   22CHL1  H23A 1614   4.806   2.454   8.859 -0.3231 -0.0231  0.9131
   22CHL1  H23B 1615   4.944   2.458   8.756  1.7085 -0.4232  3.2217
   22CHL1   C24 1616   4.789   2.333   8.676 -0.5841 -0.8375 -0.4132
   22CHL1  H24A 1617   4.708   2.276   8.728 -0.6997 -2.8507 -2.6757
   22CHL1  H24B 1618   4.740   2.421   8.629  1.2025 -0.5096 -1.7448
   22CHL1   C25 1619   4.860   2.261   8.555 -1.0417 -0.4558  0.1234
   22CHL1   H25 1620   4.910   2.165   8.580  0.5973 -0.1358 -1.6714
   22CHL1   C26 1621   4.772   2.232   8.437  0.4651 -0.2528 -0.6452
   22CHL1  H26A 1622   4.725   2.329   8.409  0.7267 -0.2346 -1.0224
   22CHL1  H26B 1623   4.821   2.194   8.345 -0.6026  1.3810 -1.9528
   22CHL1  H26C 1624   4.693   2.168   8.482  0.6154  0.5256  0.8019
   22CHL1   C27 1625   4.978   2.348   8.499  0.3742  0.3080 -0.0873
   22CHL1  H27A 1626   5.032   2.294   8.418  1.9419  2.0808 -0.2902
   22CHL1  H27B 1627   4.943   2.440   8.447 -1.2929  0.8530  1.8722
   22CHL1  H27C 1628   5.052   2.361   8.581  0.6840 -1.1042 -0.1103
   23CHL1    C3 1629   0.846   2.965  10.011 -0.0409 -0.3459  0.6107
   23CHL1    H3 1630   0.933   2.905   9.978  1.9115  2.7691 -0.4215
   23CHL1    O3 1631   0.868   2.985  10.149  0.3055  0.3539 -0.3026
   23CHL1   H3' 1632   0.838   3.075  10.165  2.1316  0.8069  0.9461
   23CHL1    C4 1633   0.841   3.096   9.926 -0.4742 -0.3238 -0.1986
   23CHL1   H4A 1634   0.760   3.163   9.961  0.0039  0.1543 -0.0044
   23CHL1   H4B 1635   0.936   3.146   9.955 -0.2252 -0.9147  0.0348
   23CHL1    C5 1636   0.823   3.064   9.779 -0.7667 -0.5764  0.6319
   23CHL1    C6 1637   0.909   3.108   9.683  0.8593 -0.5737  0.1741
   23CHL1    H6 1638   0.971   3.196   9.706 -2.3495  1.3025  2.4774
   23CHL1    C7 1639   0.890   3.088   9.538 -0.4413 -0.4468  0.2440
   23CHL1   H7A 1640   0.911   3.181   9.480 -0.1811 -0.9632 -0.4942
   23CHL1   H7B 1641   0.973   3.023   9.506  0.2804  0.4302  0.3056
   23CHL1    C8 1642   0.758   3.031   9.497  0.5093  0.1295 -0.5871
   23CHL1    H8 1643   0.694   3.122   9.494  1.5222  0.8848  0.0235
   23CHL1   C14 1644   0.756   2.962   9.363 -0.1186 -0.8471 -0.4182
   23CHL1   H14 1645   0.811   2.867   9.381 -0.0470 -1.0950 -1.8276
   23CHL1   C15 1646   0.836   3.020   9.247  0.4698 -0.0997  0.0323
   23CHL1  H15A 1647   0.815   3.128   9.257  1.3591 -0.0469  1.7227
   23CHL1  H15B 1648   0.945   2.998   9.248  0.5070  0.0417  2.0688
   23CHL1   C16 1649   0.771   2.966   9.122  0.8641  0.7862  0.4771
   23CHL1  H16A 1650   0.731   3.053   9.067  3.9091  1.0863 -1.4629
   23CHL1  H16B 1651   0.850   2.920   9.060  0.8322  1.5764 -0.1642
   23CHL1   C17 1652   0.661   2.864   9.168 -0.0290 -0.1998 -0.2381
   23CHL1   H17 1653   0.714   2.766   9.173 -0.6127 -0.8205 -3.8170
   23CHL1   C13 1654   0.621   2.912   9.313 -0.5094 -0.1523  0.5397
   23CHL1   C18 1655   0.518   3.028   9.301 -0.3672 -0.3496  0.1540
   23CHL1  H18A 1656   0.520   3.103   9.383  1.1531  0.8658 -0.9057
   23CHL1  H18B 1657   0.550   3.092   9.216 -2.5059 -0.0186 -0.4586
   23CHL1  H18C 1658   0.415   2.993   9.281 -1.5092  2.3125  0.8624
   23CHL1   C12 1659   0.571   2.802   9.409  0.0993 -0.8323 -0.5422
   23CHL1  H12A 1660   0.465   2.781   9.381 -0.4301  0.6128  0.2578
   23CHL1  H12B 1661   0.642   2.717   9.408  1.0644 -0.0506 -1.4483
   23CHL1   C11 1662   0.570   2.856   9.555  0.4607 -0.0238  0.3182
   23CHL1  H11A 1663   0.488   2.931   9.555  0.4452 -0.0405 -0.0025
   23CHL1  H11B 1664   0.543   2.763   9.610  1.1216  0.6397  1.8162
   23CHL1    C9 1665   0.704   2.921   9.600 -0.1700 -0.0751  0.4169
   23CHL1    H9 1666   0.782   2.842   9.594  0.4396  0.6167 -1.6814
   23CHL1   C10 1667   0.702   2.969   9.748 -0.3995 -0.1332  0.1970
   23CHL1   C19 1668   0.575   3.053   9.770  0.4869  0.9975 -0.6380
   23CHL1  H19A 1669   0.573   3.132   9.692 -1.7755  1.2016 -0.4281
   23CHL1  H19B 1670   0.480   2.996   9.763 -0.3166  2.3589 -1.0253
   23CHL1  H19C 1671   0.577   3.102   9.869 -0.2408  1.0574 -0.6486
   23CHL1    C1 1672   0.713   2.843   9.843  0.4363 -0.1741  0.3322
   23CHL1   H1A 1673   0.616   2.790   9.831  1.5784 -2.1780 -0.6894
   23CHL1   H1B 1674   0.803   2.780   9.823  1.5974  1.1713  1.1446
   23CHL1    C2 1675   0.720   2.878   9.987  0.1087  0.3620 -0.1651
   23CHL1   H2A 1676   0.732   2.784  10.046  0.5458  1.1504  1.0452
   23CHL1   H2B 1677   0.627   2.930  10.019 -0.9324 -1.0854 -0.7451
   23CHL1   C20 1678   0.555   2.856   9.057 -0.0664  1.1383 -0.1786
   23CHL1   H20 1679   0.505   2.955   9.050 -1.6577  0.6577  2.6515
   23CHL1   C21 1680   0.441   2.763   9.101  0.9978  0.4825 -0.1231
   23CHL1  H21A 1681   0.358   2.777   9.028 -0.9944  1.2827  2.1614
   23CHL1  H21B 1682   0.398   2.799   9.197  0.6148 -0.3938  0.0368
   23CHL1  H21C 1683   0.476   2.660   9.119 -1.0321 -0.4362 -1.1030
   23CHL1   C22 1684   0.608   2.798   8.920  0.5687 -0.0002 -0.1726
   23CHL1  H22A 1685   0.709   2.838   8.896  0.7352 -1.2388 -1.7808
   23CHL1  H22B 1686   0.623   2.689   8.936  0.3093 -0.0465 -0.2349
   23CHL1   C23 1687   0.510   2.822   8.798 -0.2601  0.3651  0.2248
   23CHL1  H23A 1688   0.431   2.745   8.811  1.0764 -0.9372  0.9771
   23CHL1  H23B 1689   0.469   2.923   8.819  0.2451 -0.1095  4.4154
   23CHL1   C24 1690   0.580   2.829   8.660  1.0047  0.3886  0.6191
   23CHL1  H24A 1691   0.654   2.912   8.649  1.0627 -0.0064 -3.0500
   23CHL1  H24B 1692   0.642   2.737   8.666  2.1654  1.1343  0.3671
   23CHL1   C25 1693   0.488   2.827   8.537 -0.3351  0.1329 -0.6642
   23CHL1   H25 1694   0.561   2.825   8.453 -0.5814 -0.0028 -0.8748
   23CHL1   C26 1695   0.418   2.683   8.537  0.5557 -0.8869  0.0569
   23CHL1  H26A 1696   0.355   2.662   8.449 -0.6374  1.3281  0.3060
   23CHL1  H26B 1697   0.495   2.605   8.553 -0.1166 -1.2225  1.9750
   23CHL1  H26C 1698   0.355   2.672   8.629  2.3394 -0.9488  1.3238
   23CHL1   C27 1699   0.389   2.945   8.525  0.0420  0.1727  0.7528
   23CHL1  H27A 1700   0.327   2.947   8.616 -0.5566  1.7765  0.3528
   23CHL1  H27B 1701   0.435   3.046   8.519  0.4603 -0.0880 -0.8837
   23CHL1  H27C 1702   0.312   2.924   8.448  0.9863  1.4347 -0.6066
   24CHL1    C3 1703   2.869   4.065  10.121 -0.3388  0.3545 -0.6666
   24CHL1    H3 1704   2.967   4.092  10.077 -0.0406 -0.6632 -0.6363
   24CHL1    O3 1705   2.897   4.067  10.259  0.7958  0.1656 -0.2118
   24CHL1   H3' 1706   2.954   3.992  10.278  0.2507  0.0784  1.2146
   24CHL1    C4 1707   2.760   4.169  10.098 -0.6891  0.4702 -0.2354
   24CHL1   H4A 1708   2.670   4.126  10.148 -1.3588  2.4288  0.3611
   24CHL1   H4B 1709   2.786   4.266  10.147  0.3327  0.1916 -0.2034
   24CHL1    C5 1710   2.725   4.177   9.951  0.6047  0.1869  0.1020
   24CHL1    C6 1711   2.719   4.293   9.878  0.5433  0.7076 -0.4470
   24CHL1    H6 1712   2.735   4.391   9.925  0.6356  0.1203  0.7957
   24CHL1    C7 1713   2.682   4.298   9.733 -0.0606  0.8699  0.1341
   24CHL1   H7A 1714   2.632   4.394   9.705 -0.6563  0.5263  0.0127
   24CHL1   H7B 1715   2.781   4.299   9.683  0.4572  3.2561  1.0382
   24CHL1    C8 1716   2.612   4.173   9.678  0.7745 -0.2203 -0.1429
   24CHL1    H8 1717   2.511   4.170   9.722  1.1317 -1.8448  0.6444
   24CHL1   C14 1718   2.603   4.179   9.526 -0.1870  0.0438 -0.0381
   24CHL1   H14 1719   2.706   4.174   9.484 -1.1458 -0.0847 -2.5048
   24CHL1   C15 1720   2.542   4.300   9.461 -0.4284  0.5867 -0.2278
   24CHL1  H15A 1721   2.449   4.331   9.513 -0.9023 -0.4867 -0.4026
   24CHL1  H15B 1722   2.622   4.377   9.468  1.9970 -1.8281  0.4914
   24CHL1   C16 1723   2.501   4.248   9.319  0.1797 -0.0573 -0.0119
   24CHL1  H16A 1724   2.396   4.271   9.293  0.6119  2.7751  0.4284
   24CHL1  H16B 1725   2.560   4.306   9.246 -2.1480  0.4182 -1.6183
   24CHL1   C17 1726   2.530   4.095   9.317  0.0415 -0.4522 -0.2857
   24CHL1   H17 1727   2.635   4.086   9.281  0.5931 -0.2861  1.2078
   24CHL1   C13 1728   2.527   4.060   9.464  0.1381 -0.6661 -0.1325
   24CHL1   C18 1729   2.384   4.043   9.506 -0.4017 -1.2179  0.6700
   24CHL1  H18A 1730   2.340   3.949   9.465 -0.4435 -0.1678 -1.9526
   24CHL1  H18B 1731   2.375   4.037   9.616  1.1693  1.9062  1.0925
   24CHL1  H18C 1732   2.322   4.127   9.468  0.0717 -1.3975 -0.5434
   24CHL1   C12 1733   2.610   3.935   9.510 -0.2942  0.5592  0.1879
   24CHL1  H12A 1734   2.575   3.847   9.453  2.9836 -0.8969  0.1810
   24CHL1  H12B 1735   2.712   3.951   9.468 -0.9903  0.4195 -1.6377
   24CHL1   C11 1736   2.626   3.916   9.659 -0.6793 -0.1490 -0.0231
   24CHL1  H11A 1737   2.527   3.886   9.700  0.2097 -3.1930  0.1415
   24CHL1  H11B 1738   2.689   3.830   9.690 -1.0281 -1.1561 -1.9548
   24CHL1    C9 1739   2.683   4.043   9.729 -0.1826 -0.1364  0.5713
   24CHL1    H9 1740   2.786   4.037   9.688 -0.7197 -0.0539 -0.8655
   24CHL1   C10 1741   2.691   4.043   9.879  0.0662 -0.6633 -0.5405
   24CHL1   C19 1742   2.556   3.997   9.939 -0.3513 -0.3653 -0.6821
   24CHL1  H19A 1743   2.524   3.898   9.900 -1.0634 -0.1980 -0.5272
   24CHL1  H19B 1744   2.548   3.986  10.049 -0.2407 -1.3263 -0.7642
   24CHL1  H19C 1745   2.477   4.071   9.915 -0.8419 -0.0906  1.5455
   24CHL1    C1 1746   2.806   3.938   9.920 -0.5959  0.4521  0.2558
   24CHL1   H1A 1747   2.772   3.842   9.875 -1.0195  1.7034 -2.3258
   24CHL1   H1B 1748   2.898   3.981   9.876 -1.8331  1.8535 -1.1129
   24CHL1    C2 1749   2.830   3.925  10.070 -0.0667 -0.7319  0.4124
   24CHL1   H2A 1750   2.925   3.868  10.080  0.2075 -0.5111 -0.7776
   24CHL1   H2B 1751   2.746   3.870  10.116 -1.3169 -0.6901 -1.7212
   24CHL1   C20 1752   2.446   4.018   9.209  0.4177  0.4044  0.3697
   24CHL1   H20 1753   2.340   4.004   9.237  0.9639 -1.3249  1.7592
   24CHL1   C21 1754   2.504   3.871   9.193  0.1162  0.0098  0.1683
   24CHL1  H21A 1755   2.608   3.875   9.154  0.0284  0.5478 -0.0253
   24CHL1  H21B 1756   2.448   3.820   9.111  1.7211 -0.9276 -0.3938
   24CHL1  H21C 1757   2.477   3.815   9.285  2.9672  2.2506  2.5441
   24CHL1   C22 1758   2.451   4.090   9.069 -0.7284  0.2092  0.6080
   24CHL1  H22A 1759   2.407   4.192   9.076  1.0152  0.9864  0.5945
   24CHL1  H22B 1760   2.556   4.095   9.033 -0.2864 -0.1232  1.7815
   24CHL1   C23 1761   2.366   4.027   8.954 -0.1580  0.1812 -0.9186
   24CHL1  H23A 1762   2.398   3.923   8.935  1.9001  0.3593  1.1276
   24CHL1  H23B 1763   2.265   4.020   9.000  0.5334 -3.1406  0.4037
   24CHL1   C24 1764   2.380   4.109   8.826  0.2560 -0.0381  0.2488
   24CHL1  H24A 1765   2.371   4.219   8.838 -0.1169 -0.0876  0.4221
   24CHL1  H24B 1766   2.485   4.099   8.790 -0.5583 -0.7647 -2.1072
   24CHL1   C25 1767   2.298   4.059   8.704 -0.2214 -0.8650  0.4056
   24CHL1   H25 1768   2.302   3.948   8.703  0.1664 -0.8522 -0.5096
   24CHL1   C26 1769   2.155   4.109   8.699 -0.1291  0.5715 -0.2473
   24CHL1  H26A 1770   2.108   4.041   8.624 -0.0350 -1.2834  1.2724
   24CHL1  H26B 1771   2.104   4.083   8.794 -1.3158  0.0859 -0.9918
   24CHL1  H26C 1772   2.141   4.216   8.673  1.7431  1.0289  0.4958
   24CHL1   C27 1773   2.372   4.102   8.578  0.1451 -0.3634 -0.3260
   24CHL1  H27A 1774   2.470   4.051   8.564 -0.3424 -0.9145 -1.9980
   24CHL1  H27B 1775   2.316   4.076   8.486  0.8925 -1.2900 -0.5398
   24CHL1  H27C 1776   2.388   4.212   8.573 -0.3789 -0.3416 -2.9355
   25CHL1    C3 1777   4.035   4.395  10.268  0.0280 -0.1614  0.8732
   25CHL1    H3 1778   3.933   4.353  10.282 -0.8692  1.1371 -1.2966
   25CHL1    O3 1779   4.089   4.448  10.389  0.3370  0.0801 -0.4899
   25CHL1   H3' 1780   4.042   4.521  10.429  0.8588  0.8969 -1.3362
   25CHL1    C4 1781   4.123   4.283  10.213  0.1953  0.6084  0.3623
   25CHL1   H4A 1782   4.230   4.310  10.223  0.2778  0.2726  0.4072
   25CHL1   H4B 1783   4.103   4.201  10.285 -0.0508 -0.7989 -1.2303
   25CHL1    C5 1784   4.083   4.232  10.078  0.3774 -0.5545 -1.3599
   25CHL1    C6 1785   4.059   4.103  10.044  0.0271  0.3271  0.7718
   25CHL1    H6 1786   4.066   4.022  10.118  3.5389 -0.0858  0.1696
   25CHL1    C7 1787   4.032   4.062   9.899 -0.0565 -0.0031 -0.4695
   25CHL1   H7A 1788   4.072   3.959   9.884 -1.7761 -0.4493 -2.3845
   25CHL1   H7B 1789   3.922   4.053   9.892 -0.0154 -0.0711 -1.1057
   25CHL1    C8 1790   4.084   4.158   9.790 -0.6128 -0.3381  0.5339
   25CHL1    H8 1791   4.194   4.154   9.802 -0.6554 -0.1867  0.9845
   25CHL1   C14 1792   4.042   4.109   9.645 -0.5522 -0.6543  0.5321
   25CHL1   H14 1793   3.931   4.113   9.639 -0.7207  1.2985  3.1965
   25CHL1   C15 1794   4.078   3.966   9.610  0.2216  0.6713 -0.2749
   25CHL1  H15A 1795   4.174   3.938   9.659  0.8371 -0.5192 -2.0827
   25CHL1  H15B 1796   3.996   3.893   9.627 -1.2645  2.2099 -0.4971
   25CHL1   C16 1797   4.105   3.968   9.457  0.1726  0.0009 -0.3259
   25CHL1  H16A 1798   4.210   3.939   9.433  0.5344  1.6784 -0.8850
   25CHL1  H16B 1799   4.036   3.912   9.390 -0.4921 -0.7815  0.9559
   25CHL1   C17 1800   4.074   4.117   9.415  0.8823  0.4901  0.3145
   25CHL1   H17 1801   3.964   4.115   9.401  1.0304 -0.1611 -0.8362
   25CHL1   C13 1802   4.102   4.205   9.539  0.4604 -0.0858 -0.4577
   25CHL1   C18 1803   4.253   4.227   9.551 -0.2612  0.0162  0.4808
   25CHL1  H18A 1804   4.316   4.137   9.538 -1.5261 -0.8978  0.5534
   25CHL1  H18B 1805   4.287   4.298   9.472 -0.1677  3.6590  3.4714
   25CHL1  H18C 1806   4.270   4.278   9.649 -1.4911  0.2312  0.5993
   25CHL1   C12 1807   4.019   4.344   9.564  0.2990 -0.7969 -0.4051
   25CHL1  H12A 1808   4.051   4.424   9.493 -0.8333 -0.3986 -0.4869
   25CHL1  H12B 1809   3.911   4.330   9.547  0.3591 -1.0711 -0.5690
   25CHL1   C11 1810   4.042   4.402   9.711  0.1248 -0.1217  0.2535
   25CHL1  H11A 1811   4.144   4.446   9.708 -0.8505  2.2893 -1.6707
   25CHL1  H11B 1812   3.964   4.479   9.732 -2.1544 -2.2163 -0.0215
   25CHL1    C9 1813   4.026   4.299   9.827 -0.1197  0.2647 -0.8942
   25CHL1    H9 1814   3.917   4.283   9.840  0.4514 -2.2940  2.3606
   25CHL1   C10 1815   4.073   4.347   9.970  0.6688 -0.1938  0.3137
   25CHL1   C19 1816   4.213   4.400   9.953 -0.1615 -0.4399  0.1310
   25CHL1  H19A 1817   4.289   4.330   9.912  1.3819  1.2772 -0.0881
   25CHL1  H19B 1818   4.218   4.500   9.905 -0.4093  0.0308  1.0701
   25CHL1  H19C 1819   4.259   4.422  10.052  2.3931  3.1056 -1.6140
   25CHL1    C1 1820   3.971   4.457  10.027 -0.8357 -0.2886 -0.2471
   25CHL1   H1A 1821   3.969   4.539   9.953  0.4439  1.4196  1.4990
   25CHL1   H1B 1822   3.868   4.417  10.021 -1.0391  0.2796 -0.5616
   25CHL1    C2 1823   4.017   4.507  10.166 -0.8647  0.2636  0.6099
   25CHL1   H2A 1824   3.947   4.584  10.206 -2.0391 -1.7157  2.5435
   25CHL1   H2B 1825   4.113   4.562  10.161 -0.4379 -0.5194 -3.7659
   25CHL1   C20 1826   4.128   4.155   9.274  0.2541  0.6655 -0.7359
   25CHL1   H20 1827   4.238   4.168   9.273  0.4499 -0.7404 -2.3213
   25CHL1   C21 1828   4.060   4.296   9.236  0.0706  0.7599 -0.3872
   25CHL1  H21A 1829   4.085   4.316   9.130  0.4788  1.6763 -0.1278
   25CHL1  H21B 1830   4.112   4.372   9.299 -0.3827  0.9363 -0.2222
   25CHL1  H21C 1831   3.952   4.292   9.261  0.1240 -1.7977 -0.2227
   25CHL1   C22 1832   4.091   4.060   9.165  0.0656 -1.2093 -0.7168
   25CHL1  H22A 1833   4.100   3.958   9.207 -0.2414 -0.4489  1.3266
   25CHL1  H22B 1834   3.989   4.067   9.121  0.2136 -0.0428 -0.9218
   25CHL1   C23 1835   4.192   4.065   9.043  0.3251 -0.0904 -0.0972
   25CHL1  H23A 1836   4.197   4.165   8.995 -0.8832  0.0153 -0.0361
   25CHL1  H23B 1837   4.294   4.058   9.087 -0.8688  1.6871  3.3484
   25CHL1   C24 1838   4.143   3.951   8.953  0.1610 -0.5670  0.2255
   25CHL1  H24A 1839   4.163   3.854   9.002 -0.0728 -1.4209 -1.3096
   25CHL1  H24B 1840   4.032   3.951   8.950  0.1054  1.1246  1.2864
   25CHL1   C25 1841   4.202   3.940   8.816 -0.8324  0.0597 -1.1371
   25CHL1   H25 1842   4.152   3.854   8.766  1.8556 -2.2901 -0.0180
   25CHL1   C26 1843   4.179   4.057   8.716 -0.2030  0.3004  0.2534
   25CHL1  H26A 1844   4.068   4.058   8.705 -0.6219 -1.4430  3.1648
   25CHL1  H26B 1845   4.211   4.155   8.756  1.8175  0.2591 -1.1148
   25CHL1  H26C 1846   4.215   4.039   8.613  0.0646 -0.9479  0.5483
   25CHL1   C27 1847   4.349   3.893   8.822  0.2615  0.0407 -0.1734
   25CHL1  H27A 1848   4.358   3.827   8.911 -1.8770  1.3389  1.0862
   25CHL1  H27B 1849   4.377   3.835   8.731 -0.5287 -1.9261  0.7797
   25CHL1  H27C 1850   4.411   3.984   8.835  0.8698 -0.6505  2.0927
   26CHL1    C3 1851   4.428   0.332  10.098 -0.9452  0.1868  0.8039
   26CHL1    H3 1852   4.437   0.436  10.057  0.2895 -0.6951 -1.3534
   26CHL1    O3 1853   4.456   0.344  10.239 -0.2054 -0.3972  0.0834
   26CHL1   H3' 1854   4.461   0.255  10.274  0.9009 -0.3230  0.1554
   26CHL1    C4 1855   4.280   0.290  10.080 -0.4542  0.0452  0.2794
   26CHL1   H4A 1856   4.257   0.192  10.127 -0.1800 -0.9572 -1.5978
   26CHL1   H4B 1857   4.210   0.358  10.133 -0.9617 -0.7217  0.6194
   26CHL1    C5 1858   4.250   0.270   9.931 -1.1245 -0.5400  0.3607
   26CHL1    C6 1859   4.146   0.336   9.871  0.1254  0.6778  0.7631
   26CHL1    H6 1860   4.089   0.403   9.936  2.2298  0.9652  2.4370
   26CHL1    C7 1861   4.098   0.318   9.730  0.4192 -0.1467 -0.0533
   26CHL1   H7A 1862   3.988   0.305   9.737  0.7476 -2.6481  1.9743
   26CHL1   H7B 1863   4.127   0.405   9.668 -0.2383 -0.2742 -0.5602
   26CHL1    C8 1864   4.157   0.194   9.655  0.3878  0.3005  0.7545
   26CHL1    H8 1865   4.101   0.106   9.691  0.9787 -1.5146 -2.3760
   26CHL1   C14 1866   4.139   0.209   9.504  0.0974  0.7145 -0.2359
   26CHL1   H14 1867   4.203   0.295   9.476  2.7534 -1.7768 -2.4922
   26CHL1   C15 1868   4.001   0.227   9.442  0.3026 -0.0001 -0.1387
   26CHL1  H15A 1869   3.931   0.152   9.484  1.4416 -0.8423  0.2814
   26CHL1  H15B 1870   3.957   0.329   9.433 -1.3312 -0.7385 -0.9395
   26CHL1   C16 1871   4.032   0.190   9.296  0.2472  0.0379  0.1029
   26CHL1  H16A 1872   3.969   0.103   9.267 -0.5876  0.9845 -0.9783
   26CHL1  H16B 1873   4.023   0.281   9.234  0.6358  1.7217  2.3798
   26CHL1   C17 1874   4.180   0.144   9.281 -0.2420 -0.4265  0.5265
   26CHL1   H17 1875   4.238   0.237   9.263  1.9740 -1.8802 -0.3198
   26CHL1   C13 1876   4.209   0.094   9.425  0.2093  0.0269  0.0304
   26CHL1   C18 1877   4.142  -0.040   9.455 -0.2388  0.2640  0.0693
   26CHL1  H18A 1878   4.128  -0.072   9.561  0.2876  2.7792  0.9699
   26CHL1  H18B 1879   4.040  -0.047   9.411 -1.4473  2.9760  2.1663
   26CHL1  H18C 1880   4.199  -0.126   9.414 -2.7719 -1.5613  0.1370
   26CHL1   C12 1881   4.362   0.089   9.462 -0.6665 -0.4095  0.2853
   26CHL1  H12A 1882   4.414   0.007   9.408 -2.2489 -0.9446 -0.4856
   26CHL1  H12B 1883   4.406   0.181   9.418  0.2975 -0.9643  0.0511
   26CHL1   C11 1884   4.382   0.076   9.613  0.4746  0.4179 -0.6362
   26CHL1  H11A 1885   4.339  -0.021   9.644 -1.0602  1.1237 -0.4267
   26CHL1  H11B 1886   4.491   0.070   9.633  0.6111  0.9304 -1.1870
   26CHL1    C9 1887   4.308   0.183   9.693  0.5139  0.2817 -0.5401
   26CHL1    H9 1888   4.359   0.281   9.683 -0.0274  0.5833 -0.3650
   26CHL1   C10 1889   4.339   0.171   9.849  0.7429 -1.1257  0.3027
   26CHL1   C19 1890   4.311   0.029   9.909 -0.3182  0.0857 -0.0223
   26CHL1  H19A 1891   4.301   0.037  10.020  1.5167  0.3716  0.1549
   26CHL1  H19B 1892   4.218  -0.015   9.866  0.1168  0.3069 -1.2070
   26CHL1  H19C 1893   4.397  -0.039   9.895 -1.1539 -1.0610  0.2703
   26CHL1    C1 1894   4.491   0.211   9.875  0.3898  0.2714  0.4633
   26CHL1   H1A 1895   4.559   0.128   9.844  0.1112 -0.1469  0.9683
   26CHL1   H1B 1896   4.512   0.302   9.815  1.8934 -0.8755 -0.8649
   26CHL1    C2 1897   4.524   0.232  10.029  0.2240 -0.1943  0.0475
   26CHL1   H2A 1898   4.631   0.262  10.033 -0.6977  3.7715 -0.7231
   26CHL1   H2B 1899   4.506   0.133  10.077  1.9325 -0.4543  0.2457
   26CHL1   C20 1900   4.197   0.042   9.159 -0.1571  0.2239 -0.2237
   26CHL1   H20 1901   4.117  -0.034   9.165 -1.4299  1.2801 -2.5414
   26CHL1   C21 1902   4.344  -0.002   9.150 -0.6045 -0.2775  0.3135
   26CHL1  H21A 1903   4.414   0.081   9.176 -0.8422  0.1512 -0.3823
   26CHL1  H21B 1904   4.370  -0.038   9.048 -1.7517  1.7418 -0.7686
   26CHL1  H21C 1905   4.354  -0.089   9.218 -0.6644 -0.5959 -0.0791
   26CHL1   C22 1906   4.154   0.111   9.025 -0.0083  0.6102  1.0523
   26CHL1  H22A 1907   4.050   0.150   9.021  0.0160  0.7637 -3.8612
   26CHL1  H22B 1908   4.231   0.190   9.012  0.4010  0.2998  1.5417
   26CHL1   C23 1909   4.173   0.026   8.896  0.3029 -0.1052  0.0289
   26CHL1  H23A 1910   4.281  -0.002   8.888  0.7038  0.6018  2.2667
   26CHL1  H23B 1911   4.124  -0.073   8.899 -3.1745  1.3233 -2.1780
   26CHL1   C24 1912   4.122   0.092   8.772 -0.8320  0.0136  0.1942
   26CHL1  H24A 1913   4.013   0.110   8.788 -0.6151  2.7963 -0.9000
   26CHL1  H24B 1914   4.176   0.189   8.774 -1.0487  0.1425 -0.0586
   26CHL1   C25 1915   4.155   0.024   8.637 -0.3929 -0.1058  0.6365
   26CHL1   H25 1916   4.266   0.021   8.643 -0.3784  0.3610  0.6224
   26CHL1   C26 1917   4.099  -0.116   8.633 -0.1934  0.6427  0.7166
   26CHL1  H26A 1918   4.123  -0.158   8.532 -1.6255  2.4120 -0.4192
   26CHL1  H26B 1919   4.142  -0.175   8.716 -2.9926 -0.5879  1.4223
   26CHL1  H26C 1920   3.988  -0.120   8.633 -0.2588  0.0843 -1.8254
   26CHL1   C27 1921   4.104   0.105   8.522 -0.0201 -0.7853  0.3611
   26CHL1  H27A 1922   3.993   0.099   8.528 -0.1075  1.3777  2.5152
   26CHL1  H27B 1923   4.124   0.214   8.527  0.8730 -0.9384  0.2489
   26CHL1  H27C 1924   4.128   0.061   8.423  0.3667  0.3810 -0.0864
   27CHL1    C3 1925   4.870   4.521  10.218 -0.5516 -0.2558 -0.2806
   27CHL1    H3 1926   4.826   4.622  10.203 -0.1660 -0.2533 -1.5052
   27CHL1    O3 1927   4.882   4.497  10.357  0.5835 -0.2238 -0.2861
   27CHL1   H3' 1928   4.940   4.422  10.366  1.6466  0.5859 -0.1497
   27CHL1    C4 1929   4.768   4.423  10.155 -0.1781 -0.3256  0.0576
   27CHL1   H4A 1930   4.800   4.320  10.182 -0.1885 -0.2910  0.2003
   27CHL1   H4B 1931   4.668   4.431  10.204 -0.6867  0.5317 -1.0654
   27CHL1    C5 1932   4.759   4.441  10.005 -0.0104 -0.1584  0.5826
   27CHL1    C6 1933   4.643   4.476   9.942 -0.3209  0.4759  0.6141
   27CHL1    H6 1934   4.552   4.494  10.001 -1.2151  0.6449 -0.7686
   27CHL1    C7 1935   4.639   4.499   9.797  0.2960  0.0664  0.3667
   27CHL1   H7A 1936   4.549   4.458   9.747  0.1769  0.3702  0.3275
   27CHL1   H7B 1937   4.653   4.608   9.780  0.1196  0.2957  1.5945
   27CHL1    C8 1938   4.763   4.444   9.713 -0.1147  0.7612 -0.3793
   27CHL1    H8 1939   4.760   4.333   9.715  2.3831  0.6199 -1.3801
   27CHL1   C14 1940   4.745   4.469   9.569 -0.0954  0.0367 -0.4957
   27CHL1   H14 1941   4.741   4.579   9.552  1.1059  1.1367  4.5881
   27CHL1   C15 1942   4.615   4.417   9.493 -0.3123 -0.1521  0.1896
   27CHL1  H15A 1943   4.589   4.314   9.526 -2.3423  0.4150  0.4779
   27CHL1  H15B 1944   4.539   4.498   9.497  1.6272  1.7227  2.4641
   27CHL1   C16 1945   4.669   4.406   9.348  0.1853  0.5329  0.4338
   27CHL1  H16A 1946   4.679   4.298   9.328 -1.0459  0.2142  1.3548
   27CHL1  H16B 1947   4.604   4.451   9.270 -0.0657 -0.4948  0.0343
   27CHL1   C17 1948   4.817   4.462   9.351 -0.3056  0.3361 -0.0261
   27CHL1   H17 1949   4.822   4.573   9.347 -2.9030  0.5230 -0.0669
   27CHL1   C13 1950   4.872   4.421   9.489 -0.5035  0.1543 -0.7139
   27CHL1   C18 1951   4.901   4.274   9.498 -0.0681  0.5626  0.3199
   27CHL1  H18A 1952   4.820   4.206   9.463 -0.0705  1.1930 -0.9549
   27CHL1  H18B 1953   4.996   4.249   9.446  0.8138 -0.1370  2.1804
   27CHL1  H18C 1954   4.928   4.237   9.599  2.1162 -0.4331 -0.5707
   27CHL1   C12 1955   4.992   4.502   9.544 -0.5255 -0.1400 -0.5513
   27CHL1  H12A 1956   5.085   4.490   9.483 -1.6200  0.4993 -2.4407
   27CHL1  H12B 1957   4.969   4.610   9.546 -0.1358 -0.0668 -0.0431
   27CHL1   C11 1958   5.019   4.469   9.694 -0.2668  0.3365 -0.0608
   27CHL1  H11A 1959   5.068   4.370   9.697  2.1682  1.4265 -0.8892
   27CHL1  H11B 1960   5.094   4.539   9.737 -0.6751 -0.9797  3.0208
   27CHL1    C9 1961   4.891   4.480   9.778 -0.1430 -0.0764 -0.4999
   27CHL1    H9 1962   4.876   4.589   9.794 -2.2648 -0.3085 -0.6965
   27CHL1   C10 1963   4.895   4.434   9.935 -0.2203  0.4399 -0.3378
   27CHL1   C19 1964   4.947   4.290   9.940  0.1287  0.3132 -0.4170
   27CHL1  H19A 1965   4.870   4.231   9.887  0.6958  0.3266 -1.2861
   27CHL1  H19B 1966   5.038   4.277   9.877  1.6782 -2.0529  2.0874
   27CHL1  H19C 1967   4.958   4.249  10.043 -0.3680  0.2548 -0.3833
   27CHL1    C1 1968   5.001   4.525  10.007  0.1419  0.5299  0.4153
   27CHL1   H1A 1969   5.103   4.542   9.966  0.0413 -0.2688 -0.1829
   27CHL1   H1B 1970   4.960   4.626   9.987  2.0804  2.1351  3.6374
   27CHL1    C2 1971   5.006   4.506  10.158 -0.4259  0.0554 -0.4486
   27CHL1   H2A 1972   5.073   4.583  10.200  0.5090 -0.5090 -0.8747
   27CHL1   H2B 1973   5.046   4.404  10.176  0.5479  0.3721 -0.8098
   27CHL1   C20 1974   4.891   4.404   9.223  0.4300 -0.3995 -0.0159
   27CHL1   H20 1975   4.896   4.294   9.239  1.0277 -0.3854 -0.0610
   27CHL1   C21 1976   5.045   4.444   9.237  0.2796  0.0185  0.5328
   27CHL1  H21A 1977   5.096   4.425   9.140 -0.1033  0.4802  0.2388
   27CHL1  H21B 1978   5.100   4.391   9.318 -0.5527  0.4208  1.3939
   27CHL1  H21C 1979   5.063   4.554   9.240 -1.9582  0.5908 -2.5787
   27CHL1   C22 1980   4.821   4.440   9.090 -0.4300  0.0041  0.4748
   27CHL1  H22A 1981   4.714   4.409   9.084 -0.6407  0.9784 -1.1962
   27CHL1  H22B 1982   4.808   4.549   9.075 -0.2564  0.0932  0.9654
   27CHL1   C23 1983   4.881   4.361   8.971  0.5602 -0.4853 -0.2928
   27CHL1  H23A 1984   4.985   4.398   8.953 -0.9977  3.6079 -1.9731
   27CHL1  H23B 1985   4.887   4.253   8.997  0.3634 -0.9264 -2.0004
   27CHL1   C24 1986   4.811   4.376   8.839  0.0989 -0.5026 -0.4517
   27CHL1  H24A 1987   4.807   4.486   8.828  1.6425 -0.1992  1.5936
   27CHL1  H24B 1988   4.876   4.342   8.756  3.1873  2.4550  0.5501
   27CHL1   C25 1989   4.678   4.298   8.825 -0.0020 -0.4623 -0.4961
   27CHL1   H25 1990   4.611   4.332   8.907  1.5353 -1.0060  1.0575
   27CHL1   C26 1991   4.620   4.322   8.690  0.9169 -0.3713  0.3132
   27CHL1  H26A 1992   4.696   4.280   8.620  1.7117  1.2135  0.1779
   27CHL1  H26B 1993   4.521   4.272   8.682  0.2922  0.5977  1.5513
   27CHL1  H26C 1994   4.606   4.432   8.677 -0.0325 -0.6623 -1.6313
   27CHL1   C27 1995   4.701   4.143   8.843 -0.1807 -0.5219  0.7102
   27CHL1  H27A 1996   4.649   4.096   8.757 -0.1782 -0.8305  0.8752
   27CHL1  H27B 1997   4.809   4.116   8.845  0.0098  0.0208 -0.7867
   27CHL1  H27C 1998   4.649   4.118   8.938 -2.8578  0.3917 -0.4260
   28CHL1    C3 1999   3.113   4.418   9.930  0.3904  0.2503  0.3465
   28CHL1    H3 2000   3.015   4.393   9.977 -0.1662 -0.7219 -1.2645
   28CHL1    O3 2001   3.192   4.463  10.035 -0.3550  0.0556  0.1866
   28CHL1   H3' 2002   3.286   4.461  10.014  0.3669  0.3418  3.0053
   28CHL1    C4 2003   3.179   4.299   9.862  0.7098  0.4321  0.1949
   28CHL1   H4A 2004   3.289   4.312   9.853  0.8332 -1.1356 -0.8213
   28CHL1   H4B 2005   3.168   4.216   9.935 -1.0165  0.6132  0.1846
   28CHL1    C5 2006   3.135   4.262   9.728 -0.0593 -0.8803  0.6999
   28CHL1    C6 2007   3.100   4.136   9.704  0.0218 -0.1321 -0.5677
   28CHL1    H6 2008   3.108   4.052   9.774 -0.9865 -0.2346 -0.5609
   28CHL1    C7 2009   3.055   4.086   9.573 -0.9223  0.2682 -0.1051
   28CHL1   H7A 2010   3.113   3.995   9.543  0.2539  0.2020  2.1639
   28CHL1   H7B 2011   2.952   4.046   9.582 -0.7993  0.2526  1.3777
   28CHL1    C8 2012   3.072   4.191   9.455  0.1818 -0.0024  0.2520
   28CHL1    H8 2013   3.179   4.193   9.425 -0.4203 -0.4184 -2.1304
   28CHL1   C14 2014   2.990   4.138   9.341 -0.4952 -0.3945  0.5486
   28CHL1   H14 2015   2.883   4.141   9.369 -0.5000 -0.6343  0.5528
   28CHL1   C15 2016   2.992   4.000   9.291  0.3419  0.2362  0.9312
   28CHL1  H15A 2017   3.093   3.955   9.276 -1.5995 -3.9674 -1.1472
   28CHL1  H15B 2018   2.947   3.922   9.356 -1.1437  0.8838  0.7260
   28CHL1   C16 2019   2.927   4.004   9.144 -0.7712  0.0123 -0.6937
   28CHL1  H16A 2020   2.994   3.954   9.072  0.0462  0.6076 -0.3687
   28CHL1  H16B 2021   2.830   3.950   9.147 -1.0014  0.4590  0.9314
   28CHL1   C17 2022   2.890   4.151   9.115 -0.5598 -0.6083  0.3561
   28CHL1   H17 2023   2.787   4.169   9.153 -0.2336  0.0234  0.9651
   28CHL1   C13 2024   2.992   4.231   9.215  0.3531  0.1297 -0.2142
   28CHL1   C18 2025   3.128   4.228   9.142  0.2670  0.0995 -0.4783
   28CHL1  H18A 2026   3.173   4.129   9.117  1.2863  0.1964  0.8773
   28CHL1  H18B 2027   3.120   4.307   9.063  1.0116  1.2228  0.5318
   28CHL1  H18C 2028   3.197   4.277   9.214 -0.6835  0.4131  0.2319
   28CHL1   C12 2029   2.952   4.374   9.256  0.7386 -0.5628 -0.7243
   28CHL1  H12A 2030   2.976   4.436   9.168 -0.1285  0.7620 -0.0649
   28CHL1  H12B 2031   2.842   4.390   9.265  1.0812  3.0363 -1.6335
   28CHL1   C11 2032   3.020   4.427   9.380  0.2093 -0.0576 -0.6322
   28CHL1  H11A 2033   3.124   4.437   9.342  0.4364  0.3555  0.0709
   28CHL1  H11B 2034   2.978   4.524   9.413 -0.1116 -0.7076  0.9949
   28CHL1    C9 2035   3.030   4.331   9.500 -1.2032 -0.1644  0.0936
   28CHL1    H9 2036   2.926   4.317   9.536 -0.9473 -1.9759  0.2310
   28CHL1   C10 2037   3.118   4.379   9.623 -0.0290 -0.3746 -0.1178
   28CHL1   C19 2038   3.262   4.421   9.568  0.0645  0.2237 -0.5000
   28CHL1  H19A 2039   3.254   4.503   9.494 -1.0430 -1.5560 -2.4931
   28CHL1  H19B 2040   3.322   4.451   9.656 -0.3769  0.9525 -0.4433
   28CHL1  H19C 2041   3.303   4.325   9.527 -0.2568 -1.3416  2.5569
   28CHL1    C1 2042   3.044   4.492   9.696  0.3645  0.1627 -0.2121
   28CHL1   H1A 2043   3.041   4.586   9.637 -1.6242  0.5036  0.3846
   28CHL1   H1B 2044   2.936   4.466   9.699  0.6966 -1.5168 -1.3271
   28CHL1    C2 2045   3.098   4.537   9.831 -0.9192 -0.0241 -0.5872
   28CHL1   H2A 2046   3.020   4.602   9.877 -0.3989  0.9633 -1.0660
   28CHL1   H2B 2047   3.196   4.590   9.824 -1.2149  0.3299 -2.4676
   28CHL1   C20 2048   2.894   4.195   8.965  0.0659 -0.1602 -0.2878
   28CHL1   H20 2049   2.999   4.220   8.936  0.1574 -1.6438 -1.3503
   28CHL1   C21 2050   2.818   4.327   8.953  0.1093  0.2673 -0.0043
   28CHL1  H21A 2051   2.709   4.307   8.957  0.1890 -0.1832 -0.0108
   28CHL1  H21B 2052   2.839   4.374   8.855  0.6857 -0.1813 -0.1045
   28CHL1  H21C 2053   2.838   4.399   9.036 -2.8491  1.1101  0.0799
   28CHL1   C22 2054   2.827   4.095   8.869  0.5478 -0.2240 -0.7053
   28CHL1  H22A 2055   2.888   4.002   8.880 -0.5628 -0.7657  1.3810
   28CHL1  H22B 2056   2.721   4.077   8.895  0.9653  1.3641  2.5931
   28CHL1   C23 2057   2.844   4.131   8.716 -0.0098 -0.2192 -0.0570
   28CHL1  H23A 2058   2.814   4.238   8.707  1.1583  0.0038 -1.6383
   28CHL1  H23B 2059   2.953   4.128   8.696  0.3238 -0.7238  1.6451
   28CHL1   C24 2060   2.789   4.029   8.620  0.6675  0.0004 -0.7871
   28CHL1  H24A 2061   2.823   3.927   8.648  1.0839  0.6510  1.2441
   28CHL1  H24B 2062   2.680   4.023   8.644  0.5535 -1.7154 -1.6134
   28CHL1   C25 2063   2.802   4.055   8.470  0.0123  0.5466  0.9788
   28CHL1   H25 2064   2.911   4.062   8.449  0.2722 -2.2104  1.0083
   28CHL1   C26 2065   2.715   3.955   8.385 -0.5329  0.3373 -1.5717
   28CHL1  H26A 2066   2.739   3.853   8.421 -0.7563  0.2031 -1.8015
   28CHL1  H26B 2067   2.607   3.970   8.406  0.4131  3.0957  2.6516
   28CHL1  H26C 2068   2.730   3.952   8.275  0.2633 -0.6914 -1.4451
   28CHL1   C27 2069   2.751   4.197   8.431  0.1814  0.6169  0.1059
   28CHL1  H27A 2070   2.742   4.194   8.320 -0.9550  1.6039  0.1502
   28CHL1  H27B 2071   2.650   4.213   8.474 -1.0723 -1.3371 -1.9114
   28CHL1  H27C 2072   2.820   4.280   8.458  0.2469  0.1173  1.5264
   29CHL1    C3 2073   4.864   2.132   6.531 -1.1567  0.1658 -0.1076
   29CHL1    H3 2074   4.912   2.230   6.552  4.8500 -2.3231 -0.3444
   29CHL1    O3 2075   4.885   2.096   6.398  0.5884  0.3239  0.2184
   29CHL1   H3' 2076   4.854   2.168   6.343  2.1687  0.5768 -0.4091
   29CHL1    C4 2077   4.924   2.029   6.625  0.2311 -0.3870 -1.1722
   29CHL1   H4A 2078   4.881   1.931   6.594 -1.6220 -1.2651  3.3885
   29CHL1   H4B 2079   5.034   2.029   6.607  0.1873 -0.8479 -1.4446
   29CHL1    C5 2080   4.898   2.069   6.766  0.5620  0.4908 -0.2141
   29CHL1    C6 2081   4.993   2.101   6.860 -0.3170 -0.2325  1.3532
   29CHL1    H6 2082   5.096   2.076   6.829 -1.2081 -0.1086 -2.0711
   29CHL1    C7 2083   4.963   2.130   7.005  0.6019  0.2195 -0.0892
   29CHL1   H7A 2084   5.026   2.068   7.072  0.3422  1.3112  1.1882
   29CHL1   H7B 2085   4.968   2.230   7.052  1.5872  0.2591 -0.2450
   29CHL1    C8 2086   4.822   2.081   7.049  0.2697  0.0440  0.2016
   29CHL1    H8 2087   4.808   1.971   7.052 -0.6381  0.0599 -2.1511
   29CHL1   C14 2088   4.786   2.144   7.189  0.6472  0.0173 -0.4482
   29CHL1   H14 2089   4.799   2.253   7.173  2.5546 -0.4772 -2.9536
   29CHL1   C15 2090   4.870   2.117   7.309  0.0390 -0.2005  0.0907
   29CHL1  H15A 2091   4.872   2.008   7.330  0.0769 -0.1720  0.2366
   29CHL1  H15B 2092   4.970   2.165   7.309  0.4586 -1.0413 -0.4770
   29CHL1   C16 2093   4.792   2.179   7.425  0.7342 -0.0966  0.6501
   29CHL1  H16A 2094   4.779   2.102   7.504  0.3093 -0.9118 -0.1834
   29CHL1  H16B 2095   4.836   2.267   7.475  1.3371  1.0786 -1.7917
   29CHL1   C17 2096   4.645   2.213   7.367 -0.5846  0.6173 -0.4939
   29CHL1   H17 2097   4.639   2.322   7.347  1.0214  0.7584 -0.3466
   29CHL1   C13 2098   4.641   2.128   7.239  0.6214  0.5940 -0.5341
   29CHL1   C18 2099   4.614   1.981   7.266 -0.3100  0.1584 -0.4246
   29CHL1  H18A 2100   4.643   1.921   7.177 -1.1543 -2.1380  0.7651
   29CHL1  H18B 2101   4.673   1.954   7.356 -2.1753  2.7326  1.7383
   29CHL1  H18C 2102   4.510   1.959   7.300 -0.7388 -2.1592 -2.9243
   29CHL1   C12 2103   4.546   2.183   7.133  0.2469 -0.9362 -0.0071
   29CHL1  H12A 2104   4.439   2.166   7.156  0.4340 -0.7327  1.0453
   29CHL1  H12B 2105   4.571   2.291   7.127 -0.7299 -0.7527 -1.1235
   29CHL1   C11 2106   4.571   2.115   6.994  0.2703  0.0447 -0.2667
   29CHL1  H11A 2107   4.554   2.006   6.999  2.9613 -0.4360  0.1675
   29CHL1  H11B 2108   4.500   2.164   6.924 -0.2011  0.8721  0.7638
   29CHL1    C9 2109   4.724   2.133   6.946  0.4167 -0.0655 -0.0102
   29CHL1    H9 2110   4.730   2.244   6.952  0.6237 -0.0889  0.2078
   29CHL1   C10 2111   4.750   2.077   6.804 -0.6735  0.5481 -0.1813
   29CHL1   C19 2112   4.702   1.935   6.785 -0.5781  0.5093 -0.0910
   29CHL1  H19A 2113   4.725   1.885   6.689 -2.4162 -0.3965 -0.1089
   29CHL1  H19B 2114   4.744   1.871   6.866  1.1064  0.3298 -1.0539
   29CHL1  H19C 2115   4.591   1.926   6.786 -0.6299  1.1009  0.3689
   29CHL1    C1 2116   4.689   2.174   6.700  0.1546 -0.2644 -0.2480
   29CHL1   H1A 2117   4.579   2.171   6.710  0.1521 -2.2732 -0.3682
   29CHL1   H1B 2118   4.707   2.282   6.719  0.1078 -0.0455 -1.3351
   29CHL1    C2 2119   4.710   2.133   6.558 -0.0308 -0.1615  0.6975
   29CHL1   H2A 2120   4.653   2.204   6.495 -2.3742 -1.5040  1.1855
   29CHL1   H2B 2121   4.666   2.034   6.536  1.9749 -0.7384 -1.1636
   29CHL1   C20 2122   4.540   2.193   7.474  0.2012  0.4952  0.2065
   29CHL1   H20 2123   4.533   2.084   7.496 -2.0689  0.5074 -0.1775
   29CHL1   C21 2124   4.405   2.227   7.421  0.1249 -0.3378  0.6717
   29CHL1  H21A 2125   4.366   2.155   7.346 -0.8265 -0.8743  1.6495
   29CHL1  H21B 2126   4.387   2.334   7.396  2.1229  0.4663  2.4084
   29CHL1  H21C 2127   4.346   2.216   7.515 -0.5687  1.5440  0.5055
   29CHL1   C22 2128   4.552   2.274   7.608  0.5770  0.0346 -0.2352
   29CHL1  H22A 2129   4.658   2.306   7.625 -0.0092  0.7708  2.7247
   29CHL1  H22B 2130   4.488   2.365   7.610 -2.1265 -1.7298  2.5073
   29CHL1   C23 2131   4.507   2.190   7.731  0.3316 -0.4539  0.0237
   29CHL1  H23A 2132   4.401   2.157   7.732  0.0376  0.4894  0.4941
   29CHL1  H23B 2133   4.569   2.098   7.722  0.3575 -0.3510 -0.9942
   29CHL1   C24 2134   4.552   2.250   7.866  0.3464  0.1341 -1.0170
   29CHL1  H24A 2135   4.660   2.276   7.861  0.6760 -0.6694  0.9014
   29CHL1  H24B 2136   4.505   2.349   7.884 -1.0458 -0.7109  0.2436
   29CHL1   C25 2137   4.545   2.151   7.985 -0.3316  0.4211  0.7143
   29CHL1   H25 2138   4.597   2.061   7.948 -2.1233 -0.0302 -0.9072
   29CHL1   C26 2139   4.627   2.211   8.096  0.3082 -0.5130  0.7349
   29CHL1  H26A 2140   4.633   2.126   8.167 -0.9407 -0.5399  0.8242
   29CHL1  H26B 2141   4.723   2.252   8.058 -0.8539  1.7669  0.0414
   29CHL1  H26C 2142   4.571   2.292   8.148  0.2599 -2.2136  3.5086
   29CHL1   C27 2143   4.407   2.099   8.025 -0.5203  0.0600 -0.1643
   29CHL1  H27A 2144   4.342   2.184   8.057  1.2276  0.6370  2.1498
   29CHL1  H27B 2145   4.360   2.036   7.947 -1.0921  0.3894 -0.0915
   29CHL1  H27C 2146   4.436   2.041   8.115  0.0306 -0.9303 -0.9616
   30CHL1    C3 2147   2.614   6.645   7.067 -0.1266  0.0577 -0.5672
   30CHL1    H3 2148   2.546   6.727   7.098  0.8689 -0.4521  3.6381
   30CHL1    O3 2149   2.660   6.650   6.938  0.0761 -0.2966 -0.1722
   30CHL1   H3' 2150   2.701   6.563   6.935  1.7964  0.4430  0.6362
   30CHL1    C4 2151   2.731   6.643   7.164 -0.2717 -0.0709 -0.0713
   30CHL1   H4A 2152   2.795   6.562   7.122 -2.0136  0.3047 -3.7920
   30CHL1   H4B 2153   2.798   6.731   7.157 -1.9605  1.1455 -2.0052
   30CHL1    C5 2154   2.688   6.617   7.316 -0.3657 -0.4269  0.0104
   30CHL1    C6 2155   2.726   6.703   7.406 -0.6571  0.3974  0.0522
   30CHL1    H6 2156   2.785   6.789   7.371 -1.4577  1.1344  0.4665
   30CHL1    C7 2157   2.684   6.685   7.551 -0.3441  0.1147 -0.0345
   30CHL1   H7A 2158   2.777   6.713   7.605 -0.7839  0.7481  0.4123
   30CHL1   H7B 2159   2.610   6.764   7.575  1.6242  2.1875 -0.4465
   30CHL1    C8 2160   2.636   6.540   7.586  0.2116 -0.6015  0.1032
   30CHL1    H8 2161   2.734   6.487   7.583  0.7937  0.4204  0.3995
   30CHL1   C14 2162   2.578   6.540   7.732  0.1199  0.7505  0.8449
   30CHL1   H14 2163   2.485   6.600   7.726 -1.3858 -1.5176 -0.1537
   30CHL1   C15 2164   2.655   6.593   7.846 -0.0793 -0.5480 -0.3038
   30CHL1  H15A 2165   2.758   6.552   7.861 -0.6404 -1.6461  0.7370
   30CHL1  H15B 2166   2.671   6.702   7.833  0.2817 -0.4233  1.0706
   30CHL1   C16 2167   2.573   6.549   7.969  0.6334 -0.1123 -0.4635
   30CHL1  H16A 2168   2.638   6.507   8.048  3.6679  1.3532 -2.0142
   30CHL1  H16B 2169   2.514   6.634   8.010  1.6400  0.0658  0.6530
   30CHL1   C17 2170   2.474   6.429   7.924  0.0350 -0.5091  0.0730
   30CHL1   H17 2171   2.373   6.470   7.905 -0.5698 -1.7612  0.4987
   30CHL1   C13 2172   2.528   6.402   7.781  0.0923  0.0554  0.7696
   30CHL1   C18 2173   2.649   6.301   7.792  0.7005  0.0049 -0.4049
   30CHL1  H18A 2174   2.734   6.330   7.857 -0.2636 -2.5065  2.1697
   30CHL1  H18B 2175   2.616   6.211   7.848  0.2888  0.6381  0.3930
   30CHL1  H18C 2176   2.696   6.266   7.698 -1.1471 -3.2586 -0.2693
   30CHL1   C12 2177   2.426   6.349   7.677  0.3191 -0.2766  0.7846
   30CHL1  H12A 2178   2.380   6.251   7.701 -0.6601  0.2573  1.1409
   30CHL1  H12B 2179   2.347   6.427   7.677  1.7419  1.2223  1.5210
   30CHL1   C11 2180   2.481   6.341   7.536  0.5383 -0.4288 -0.8054
   30CHL1  H11A 2181   2.554   6.259   7.519 -1.3522 -2.1719 -0.8850
   30CHL1  H11B 2182   2.394   6.320   7.470 -0.1522 -0.3971  0.0872
   30CHL1    C9 2183   2.542   6.485   7.487  0.0297  0.4687  0.0728
   30CHL1    H9 2184   2.450   6.547   7.490  0.1545  0.6422  0.3299
   30CHL1   C10 2185   2.600   6.495   7.338  0.4051  0.5087 -0.5080
   30CHL1   C19 2186   2.669   6.360   7.303  0.1456 -0.3330  1.0248
   30CHL1  H19A 2187   2.743   6.378   7.223 -0.7244  0.6405  0.4029
   30CHL1  H19B 2188   2.718   6.316   7.392 -0.5852 -0.1348  1.5413
   30CHL1  H19C 2189   2.604   6.282   7.259  1.1735  0.1471 -1.5485
   30CHL1    C1 2190   2.491   6.512   7.231  0.8224 -0.7124 -0.0845
   30CHL1   H1A 2191   2.430   6.421   7.245  1.2520 -0.6875  2.6309
   30CHL1   H1B 2192   2.432   6.602   7.258  0.0416 -0.4942 -2.3124
   30CHL1    C2 2193   2.538   6.516   7.088  0.5186 -0.5410 -0.8607
   30CHL1   H2A 2194   2.445   6.509   7.028  0.0160 -1.9329  0.0462
   30CHL1   H2B 2195   2.594   6.423   7.065 -2.3678 -2.2013 -1.6336
   30CHL1   C20 2196   2.467   6.315   8.032 -0.2267 -0.4149 -0.3447
   30CHL1   H20 2197   2.572   6.281   8.050 -0.3758 -0.9112 -0.3842
   30CHL1   C21 2198   2.366   6.209   7.983 -0.5207 -0.6626 -0.7668
   30CHL1  H21A 2199   2.268   6.255   7.960 -0.7613 -1.0146 -0.4433
   30CHL1  H21B 2200   2.342   6.142   8.068 -1.9336  0.2378 -0.4232
   30CHL1  H21C 2201   2.405   6.155   7.893  0.7444 -2.7413  0.9261
   30CHL1   C22 2202   2.419   6.380   8.168  0.4799  0.5277 -0.1396
   30CHL1  H22A 2203   2.480   6.466   8.200 -0.6964  1.4662 -0.3554
   30CHL1  H22B 2204   2.318   6.419   8.144 -0.3463 -2.3208 -1.7668
   30CHL1   C23 2205   2.413   6.281   8.292 -0.5383 -0.1365 -0.2143
   30CHL1  H23A 2206   2.358   6.339   8.370  0.5709  1.7228 -0.7498
   30CHL1  H23B 2207   2.351   6.193   8.265  0.6671 -1.7930  2.1117
   30CHL1   C24 2208   2.544   6.238   8.351  0.8647  0.1405 -0.7299
   30CHL1  H24A 2209   2.610   6.193   8.273  0.2230 -1.9980 -0.1150
   30CHL1  H24B 2210   2.592   6.331   8.390  0.5175  0.3466 -0.7964
   30CHL1   C25 2211   2.529   6.145   8.468 -0.4884  0.3720 -0.1666
   30CHL1   H25 2212   2.630   6.124   8.508 -1.3358 -0.1531  1.8026
   30CHL1   C26 2213   2.457   6.207   8.588  0.3029  0.1524  0.0951
   30CHL1  H26A 2214   2.346   6.207   8.581  0.0086 -2.4047  2.6860
   30CHL1  H26B 2215   2.478   6.153   8.683 -0.3770 -0.1780  0.0684
   30CHL1  H26C 2216   2.483   6.315   8.592 -1.9073  0.7497 -0.3382
   30CHL1   C27 2217   2.482   6.004   8.429 -0.1989 -0.2156 -0.5344
   30CHL1  H27A 2218   2.548   5.963   8.350  0.4047 -0.2854 -0.0010
   30CHL1  H27B 2219   2.487   5.930   8.511 -0.5089 -0.4574 -0.7307
   30CHL1  H27C 2220   2.380   6.012   8.384 -0.5787 -0.5816  0.2377
   31CHL1    C3 2221   1.508   2.173   6.415  0.8195 -0.4163  0.1790
   31CHL1    H3 2222   1.538   2.069   6.393 -1.4814 -1.0574 -0.2268
   31CHL1    O3 2223   1.473   2.232   6.291 -0.4007 -0.0707 -0.5372
   31CHL1   H3' 2224   1.412   2.169   6.252 -0.4329 -1.4028  1.4902
   31CHL1    C4 2225   1.387   2.160   6.496  0.3988 -0.1401  0.5124
   31CHL1   H4A 2226   1.339   2.259   6.505  1.4045  0.5319 -1.0257
   31CHL1   H4B 2227   1.320   2.089   6.442  1.3393  0.0698 -0.9935
   31CHL1    C5 2228   1.405   2.118   6.637 -0.4775  0.8402  0.4782
   31CHL1    C6 2229   1.349   2.008   6.688  0.8437  0.1801  0.0398
   31CHL1    H6 2230   1.297   1.936   6.623  1.2765 -0.8104  0.7760
   31CHL1    C7 2231   1.381   1.945   6.824  0.3281  0.1517  0.0827
   31CHL1   H7A 2232   1.286   1.900   6.859  0.4559 -1.0740 -1.0777
   31CHL1   H7B 2233   1.459   1.866   6.824  0.3635  0.1792  0.7076
   31CHL1    C8 2234   1.438   2.055   6.914 -0.2667 -0.2124 -0.3290
   31CHL1    H8 2235   1.358   2.127   6.940 -1.4679 -1.2311 -1.0927
   31CHL1   C14 2236   1.494   1.991   7.047 -0.0280 -0.0478  0.4227
   31CHL1   H14 2237   1.586   1.943   7.008  1.1610  2.8310 -0.6117
   31CHL1   C15 2238   1.411   1.881   7.112  0.4254  0.3091 -0.3728
   31CHL1  H15A 2239   1.305   1.909   7.096 -0.5165 -2.8897 -0.4142
   31CHL1  H15B 2240   1.430   1.781   7.066  0.5535  0.6958 -1.1749
   31CHL1   C16 2241   1.462   1.884   7.262 -0.0808 -0.3696  0.0649
   31CHL1  H16A 2242   1.375   1.896   7.332 -0.4083 -0.4922 -0.3174
   31CHL1  H16B 2243   1.519   1.792   7.287 -0.1876  0.2291  2.8615
   31CHL1   C17 2244   1.562   2.004   7.276  0.1127  0.5906  0.0173
   31CHL1   H17 2245   1.663   1.959   7.262  0.7463  2.1356 -0.6155
   31CHL1   C13 2246   1.529   2.093   7.152 -0.7792 -0.0450  0.1027
   31CHL1   C18 2247   1.421   2.180   7.204 -0.2876 -0.3415 -0.1835
   31CHL1  H18A 2248   1.354   2.219   7.124  1.0781 -0.6689 -1.5214
   31CHL1  H18B 2249   1.365   2.136   7.290 -0.6382  0.9644  0.2845
   31CHL1  H18C 2250   1.469   2.271   7.246 -1.2018 -0.0583  0.2850
   31CHL1   C12 2251   1.653   2.172   7.089  0.5455 -0.2270  1.0949
   31CHL1  H12A 2252   1.691   2.246   7.163 -0.6142  1.8068 -0.2411
   31CHL1  H12B 2253   1.741   2.109   7.066  0.4833  0.3039 -0.8110
   31CHL1   C11 2254   1.609   2.236   6.955  0.1708 -0.0623 -0.3643
   31CHL1  H11A 2255   1.545   2.322   6.983  1.9295  1.1079  0.2541
   31CHL1  H11B 2256   1.696   2.289   6.910  0.1495  1.8481  1.6659
   31CHL1    C9 2257   1.544   2.135   6.850 -0.0958  0.6250  0.0762
   31CHL1    H9 2258   1.627   2.066   6.825  0.5492  1.4175 -0.0076
   31CHL1   C10 2259   1.505   2.200   6.715 -0.2337 -0.6533 -0.5572
   31CHL1   C19 2260   1.439   2.338   6.754 -0.4504 -1.3404  0.8947
   31CHL1  H19A 2261   1.505   2.408   6.808  0.6296 -1.1924 -0.5727
   31CHL1  H19B 2262   1.413   2.394   6.662 -0.5214 -2.0527  0.4681
   31CHL1  H19C 2263   1.340   2.332   6.804 -1.1109 -1.7271 -0.4140
   31CHL1    C1 2264   1.631   2.206   6.630 -0.0647  0.7039  0.0483
   31CHL1   H1A 2265   1.713   2.267   6.673  1.3343 -1.3527  0.4520
   31CHL1   H1B 2266   1.663   2.102   6.608 -2.2709  0.1796 -0.9857
   31CHL1    C2 2267   1.614   2.261   6.486 -0.2650 -0.0867  0.4773
   31CHL1   H2A 2268   1.705   2.267   6.423 -0.0479 -0.1334  0.7866
   31CHL1   H2B 2269   1.584   2.368   6.495  1.5598  0.4624  0.3651
   31CHL1   C20 2270   1.566   2.060   7.417 -0.7976  0.1231 -0.4278
   31CHL1   H20 2271   1.462   2.086   7.447 -0.2608 -0.0642  1.7699
   31CHL1   C21 2272   1.665   2.177   7.419  0.1566 -0.5220 -0.0421
   31CHL1  H21A 2273   1.764   2.144   7.380  0.0848 -1.2251  0.3548
   31CHL1  H21B 2274   1.689   2.210   7.522  2.1962  1.4299 -1.0694
   31CHL1  H21C 2275   1.638   2.264   7.356  1.7346 -0.6298 -0.9219
   31CHL1   C22 2276   1.597   1.957   7.523  0.0943 -0.1365  0.3401
   31CHL1  H22A 2277   1.537   1.865   7.509 -0.4565  0.0826  1.1215
   31CHL1  H22B 2278   1.701   1.920   7.515 -0.5928 -1.8954 -0.9200
   31CHL1   C23 2279   1.570   2.003   7.664  0.3612 -0.1346  0.1180
   31CHL1  H23A 2280   1.652   2.073   7.692 -1.4233  1.3503  1.8913
   31CHL1  H23B 2281   1.475   2.059   7.657  0.1562 -0.7032 -2.6060
   31CHL1   C24 2282   1.564   1.895   7.769 -0.4232  0.2731  0.7544
   31CHL1  H24A 2283   1.489   1.820   7.738  4.0189 -3.5746 -1.9653
   31CHL1  H24B 2284   1.660   1.839   7.771 -0.4114  0.1994 -0.7302
   31CHL1   C25 2285   1.533   1.952   7.901  0.4714 -0.3196  0.6485
   31CHL1   H25 2286   1.470   2.044   7.905  0.1011 -0.5986  1.5453
   31CHL1   C26 2287   1.437   1.867   7.986 -0.4878  0.4805  0.4872
   31CHL1  H26A 2288   1.354   1.831   7.922  0.2340  0.6925 -0.5983
   31CHL1  H26B 2289   1.490   1.783   8.035  0.0654 -0.1115 -1.0852
   31CHL1  H26C 2290   1.402   1.932   8.069  1.5390  0.6659  1.2518
   31CHL1   C27 2291   1.668   1.987   7.965  0.3190 -0.3303 -0.0705
   31CHL1  H27A 2292   1.725   1.896   7.993  0.8068 -0.3226 -1.0046
   31CHL1  H27B 2293   1.660   2.045   8.059  0.5829  0.2961 -0.4294
   31CHL1  H27C 2294   1.717   2.056   7.893 -1.5355 -1.1272 -2.2486
   32CHL1    C3 2295   3.100   6.192   6.929 -0.6743 -0.2853 -0.0270
   32CHL1    H3 2296   3.000   6.242   6.928 -0.0217  1.0912  0.2729
   32CHL1    O3 2297   3.150   6.161   6.803  0.5710  0.6194 -0.5521
   32CHL1   H3' 2298   3.102   6.080   6.787  0.8113  0.0632  1.3610
   32CHL1    C4 2299   3.179   6.311   6.991  0.1472  0.0168 -0.5322
   32CHL1   H4A 2300   3.285   6.277   6.989 -0.3705 -1.8801  1.2048
   32CHL1   H4B 2301   3.168   6.400   6.925 -0.2735  1.2781  1.1755
   32CHL1    C5 2302   3.142   6.347   7.135 -0.1791 -0.8597  1.0027
   32CHL1    C6 2303   3.104   6.475   7.159  0.8253 -0.9539  0.1048
   32CHL1    H6 2304   3.082   6.547   7.080  0.1982  0.9987  1.9620
   32CHL1    C7 2305   3.066   6.506   7.300  0.2281  0.4833  0.5362
   32CHL1   H7A 2306   3.089   6.610   7.332 -0.2058  0.4964  0.8279
   32CHL1   H7B 2307   2.955   6.511   7.306  0.0186  1.4320 -2.5349
   32CHL1    C8 2308   3.129   6.411   7.413  1.4388  0.1024 -0.1890
   32CHL1    H8 2309   3.238   6.431   7.408  1.2958  0.7571 -0.8595
   32CHL1   C14 2310   3.070   6.442   7.550  0.0053  0.3526 -0.2110
   32CHL1   H14 2311   2.961   6.426   7.538 -0.3822  0.2193  2.7197
   32CHL1   C15 2312   3.088   6.586   7.601 -0.1435  0.4584  0.8539
   32CHL1  H15A 2313   3.189   6.624   7.576  0.5827 -1.3033  1.0009
   32CHL1  H15B 2314   3.009   6.655   7.562  0.0052  0.0157 -0.2687
   32CHL1   C16 2315   3.067   6.576   7.753 -0.6254  0.8477 -0.0787
   32CHL1  H16A 2316   3.163   6.606   7.800  1.4208  0.0047 -3.3642
   32CHL1  H16B 2317   2.982   6.637   7.790 -2.1421  0.1153 -2.1481
   32CHL1   C17 2318   3.060   6.425   7.785 -0.1736  0.7695 -0.8553
   32CHL1   H17 2319   2.954   6.394   7.776 -0.2833  1.3326 -1.6121
   32CHL1   C13 2320   3.123   6.351   7.664 -0.3406 -0.1871 -0.2001
   32CHL1   C18 2321   3.278   6.343   7.670 -0.7852 -0.3872  0.7371
   32CHL1  H18A 2322   3.326   6.312   7.574 -1.5763  0.5748  0.0087
   32CHL1  H18B 2323   3.323   6.437   7.709 -1.9863 -0.0340  1.3068
   32CHL1  H18C 2324   3.303   6.256   7.734 -1.9384  0.2095  2.0346
   32CHL1   C12 2325   3.068   6.214   7.626 -0.4111  0.7301 -0.2392
   32CHL1  H12A 2326   3.105   6.131   7.690  0.6632  2.3153  1.3102
   32CHL1  H12B 2327   2.958   6.220   7.614 -0.7257  0.5274  2.0232
   32CHL1   C11 2328   3.115   6.173   7.487 -0.0402  1.3456  0.8191
   32CHL1  H11A 2329   3.224   6.153   7.497  0.0806  1.1757 -0.6327
   32CHL1  H11B 2330   3.074   6.072   7.469 -0.0481  1.3369  0.8873
   32CHL1    C9 2331   3.093   6.274   7.377  0.5925  0.5310  0.3424
   32CHL1    H9 2332   2.982   6.263   7.372  0.6056  0.9901 -1.3944
   32CHL1   C10 2333   3.149   6.236   7.234 -0.1608  0.7500  0.1082
   32CHL1   C19 2334   3.297   6.191   7.251 -0.0055  0.0150 -0.5597
   32CHL1  H19A 2335   3.303   6.100   7.315 -3.6855 -1.3815 -1.9093
   32CHL1  H19B 2336   3.347   6.183   7.152 -0.0170  0.2762 -0.5864
   32CHL1  H19C 2337   3.344   6.271   7.312 -2.1444  3.3227 -2.8344
   32CHL1    C1 2338   3.071   6.121   7.160  0.7745  0.0827  0.2225
   32CHL1   H1A 2339   3.083   6.034   7.229 -0.3382  0.1747  0.5606
   32CHL1   H1B 2340   2.962   6.140   7.154  0.6519 -0.0622  1.5956
   32CHL1    C2 2341   3.100   6.077   7.019 -0.1639 -0.8969  0.1336
   32CHL1   H2A 2342   3.031   5.996   6.987 -3.3606  1.5249  0.3898
   32CHL1   H2B 2343   3.201   6.036   7.040 -0.8219 -1.0451  3.5318
   32CHL1   C20 2344   3.111   6.398   7.929  0.6137  0.0121 -0.6453
   32CHL1   H20 2345   3.221   6.387   7.935  0.7975  2.1283  3.3631
   32CHL1   C21 2346   3.064   6.260   7.968  0.6952 -0.0195 -0.2716
   32CHL1  H21A 2347   3.116   6.178   7.914  0.2593 -1.8371  1.9145
   32CHL1  H21B 2348   2.955   6.242   7.960  0.5924 -0.3294  1.3722
   32CHL1  H21C 2349   3.096   6.236   8.072  1.5686 -1.0682 -0.7613
   32CHL1   C22 2350   3.081   6.503   8.040  0.5054  0.2115 -0.2135
   32CHL1  H22A 2351   3.146   6.589   8.014  0.2963  0.0949 -1.1349
   32CHL1  H22B 2352   2.974   6.524   8.022 -0.2764 -1.8551  1.4990
   32CHL1   C23 2353   3.097   6.461   8.189  0.5100 -0.0202 -0.0104
   32CHL1  H23A 2354   3.049   6.365   8.217  1.3847 -0.5718 -0.3608
   32CHL1  H23B 2355   3.199   6.430   8.221  0.6657  0.1206 -0.3634
   32CHL1   C24 2356   3.053   6.565   8.294 -0.2481 -0.7858 -0.6589
   32CHL1  H24A 2357   3.137   6.638   8.296 -0.4366 -0.5714 -0.5092
   32CHL1  H24B 2358   2.956   6.615   8.275  0.3188  1.3461  1.5928
   32CHL1   C25 2359   3.053   6.493   8.435 -0.2216  0.7257  0.2861
   32CHL1   H25 2360   3.135   6.418   8.426 -0.9558  0.1219 -2.8278
   32CHL1   C26 2361   3.083   6.596   8.542  0.0746 -0.0267 -0.2241
   32CHL1  H26A 2362   3.176   6.649   8.510 -0.2315  1.1671  0.7778
   32CHL1  H26B 2363   2.995   6.663   8.535 -0.2215 -0.4678 -0.7623
   32CHL1  H26C 2364   3.084   6.549   8.643  1.6188 -0.5730 -0.4629
   32CHL1   C27 2365   2.927   6.416   8.471  0.0266  0.8963 -0.7700
   32CHL1  H27A 2366   2.836   6.480   8.479  1.6017  3.1722 -0.0287
   32CHL1  H27B 2367   2.897   6.342   8.393 -1.3472  0.4384  0.1423
   32CHL1  H27C 2368   2.938   6.367   8.571  1.1590  0.0844 -1.2752
   33CHL1    C3 2369   3.763   0.479   6.782 -0.1082 -0.1879  0.2650
   33CHL1    H3 2370   3.837   0.396   6.781  1.1208  0.8677 -0.2449
   33CHL1    O3 2371   3.716   0.509   6.651  0.3681  0.9024 -0.2754
   33CHL1   H3' 2372   3.787   0.543   6.595  2.1033 -0.3244  1.0646
   33CHL1    C4 2373   3.633   0.444   6.864  0.0457 -0.1453 -0.2389
   33CHL1   H4A 2374   3.551   0.518   6.852 -0.7187 -1.1490 -1.5475
   33CHL1   H4B 2375   3.582   0.359   6.814 -1.7765  0.5609  0.3212
   33CHL1    C5 2376   3.668   0.421   7.008 -0.6920 -0.4190 -0.5700
   33CHL1    C6 2377   3.654   0.304   7.070 -0.2256 -0.0605 -0.2073
   33CHL1    H6 2378   3.633   0.211   7.015 -1.2772 -1.9864  3.1576
   33CHL1    C7 2379   3.664   0.283   7.218  0.1967 -0.2974  0.2105
   33CHL1   H7A 2380   3.577   0.229   7.263  0.9137 -1.4313  0.2747
   33CHL1   H7B 2381   3.748   0.214   7.237 -0.4599 -0.7050  1.8612
   33CHL1    C8 2382   3.694   0.415   7.297 -0.4014 -1.1562  0.3257
   33CHL1    H8 2383   3.595   0.456   7.325 -0.9064 -1.4787 -0.9278
   33CHL1   C14 2384   3.763   0.378   7.430 -0.0008  0.1430 -0.9190
   33CHL1   H14 2385   3.855   0.319   7.406 -1.1856 -3.0031  1.5236
   33CHL1   C15 2386   3.680   0.277   7.520 -0.3849  0.1173  1.1377
   33CHL1  H15A 2387   3.572   0.301   7.516 -0.5582 -0.7065  0.6105
   33CHL1  H15B 2388   3.691   0.170   7.493 -2.1042  0.2222 -0.1072
   33CHL1   C16 2389   3.738   0.301   7.657 -0.4542 -0.9316 -0.6988
   33CHL1  H16A 2390   3.660   0.326   7.732  1.8468  0.3111  1.4278
   33CHL1  H16B 2391   3.806   0.221   7.691  0.6514  0.8305  1.5251
   33CHL1   C17 2392   3.827   0.429   7.648  0.2089  0.6352  0.1557
   33CHL1   H17 2393   3.933   0.400   7.633 -0.7608 -2.3966 -1.6552
   33CHL1   C13 2394   3.785   0.499   7.515  0.6097  0.4739  0.2786
   33CHL1   C18 2395   3.650   0.574   7.539 -0.0722  0.1541  0.1848
   33CHL1  H18A 2396   3.593   0.519   7.616  0.5632  0.6798  1.0617
   33CHL1  H18B 2397   3.685   0.666   7.592  0.2399  0.5690 -0.7191
   33CHL1  H18C 2398   3.588   0.596   7.450  2.9357 -1.4574 -2.5148
   33CHL1   C12 2399   3.877   0.606   7.448  0.4623 -0.3065 -0.3630
   33CHL1  H12A 2400   3.887   0.701   7.505  0.9491  0.7013 -2.0544
   33CHL1  H12B 2401   3.981   0.568   7.451  2.1554  3.7168 -1.9904
   33CHL1   C11 2402   3.827   0.639   7.307  1.1553 -0.0064 -0.0970
   33CHL1  H11A 2403   3.734   0.699   7.317  1.5616  0.7020 -0.4433
   33CHL1  H11B 2404   3.900   0.703   7.253  0.0195  0.8657 -0.6294
   33CHL1    C9 2405   3.780   0.516   7.216 -0.3876  0.1802 -0.6060
   33CHL1    H9 2406   3.873   0.457   7.207  0.8203  1.7197  0.9224
   33CHL1   C10 2407   3.726   0.539   7.074 -0.0272  0.0800  0.4782
   33CHL1   C19 2408   3.612   0.644   7.082 -0.2374  0.2586 -0.2265
   33CHL1  H19A 2409   3.656   0.745   7.092 -0.0102  0.3037 -1.6210
   33CHL1  H19B 2410   3.532   0.649   7.005 -1.1778  0.0278  0.7058
   33CHL1  H19C 2411   3.561   0.613   7.176  1.2362  1.7409  1.1302
   33CHL1    C1 2412   3.844   0.586   6.987 -0.7275  0.3610 -0.2196
   33CHL1   H1A 2413   3.870   0.688   7.023 -1.8772  0.7078 -0.3308
   33CHL1   H1B 2414   3.918   0.506   7.008  0.8787  1.1170 -2.6079
   33CHL1    C2 2415   3.815   0.610   6.839  0.6214 -0.2526 -0.2602
   33CHL1   H2A 2416   3.910   0.640   6.789  2.5944 -2.0757  2.0943
   33CHL1   H2B 2417   3.728   0.678   6.830 -1.1946 -2.5667 -1.5445
   33CHL1   C20 2418   3.831   0.511   7.782  0.4062 -0.0420 -0.2927
   33CHL1   H20 2419   3.726   0.544   7.798  0.5506  0.5504 -0.5720
   33CHL1   C21 2420   3.923   0.627   7.764 -0.2086 -0.4807  0.0635
   33CHL1  H21A 2421   4.010   0.601   7.700 -1.1349  1.1847 -2.0229
   33CHL1  H21B 2422   3.971   0.658   7.859  0.9646 -2.0761  0.0269
   33CHL1  H21C 2423   3.872   0.715   7.720 -2.9308 -0.5442  2.7768
   33CHL1   C22 2424   3.857   0.424   7.911  0.5875  0.3336  0.0110
   33CHL1  H22A 2425   3.802   0.327   7.920  0.6205  0.2297 -0.8123
   33CHL1  H22B 2426   3.966   0.407   7.915  0.2977 -1.7925  0.3716
   33CHL1   C23 2427   3.812   0.510   8.034 -0.3266  0.4243 -0.0293
   33CHL1  H23A 2428   3.836   0.618   8.023 -2.1719  1.1540  2.2661
   33CHL1  H23B 2429   3.702   0.499   8.049 -0.0958 -2.1093  0.2356
   33CHL1   C24 2430   3.868   0.455   8.167  0.2683 -0.3011 -0.6705
   33CHL1  H24A 2431   3.968   0.407   8.157  0.0033 -0.7346 -1.2526
   33CHL1  H24B 2432   3.892   0.542   8.232  3.0857  0.3062 -2.3146
   33CHL1   C25 2433   3.767   0.359   8.233 -0.5109 -0.4225  0.3216
   33CHL1   H25 2434   3.728   0.294   8.152  2.5781 -1.2804 -0.5807
   33CHL1   C26 2435   3.850   0.262   8.315  0.4435  0.1361 -0.9344
   33CHL1  H26A 2436   3.783   0.187   8.363 -1.0160  1.7676 -0.3276
   33CHL1  H26B 2437   3.932   0.218   8.254  1.4468  1.4471 -0.5665
   33CHL1  H26C 2438   3.899   0.322   8.395 -0.1439 -0.1940 -0.3160
   33CHL1   C27 2439   3.656   0.426   8.308  0.2431 -0.2433  0.1708
   33CHL1  H27A 2440   3.676   0.477   8.405 -2.8721  0.3665  0.6260
   33CHL1  H27B 2441   3.606   0.498   8.240  1.4629 -1.3939 -2.0575
   33CHL1  H27C 2442   3.572   0.355   8.329  0.1937 -0.5470 -0.9979
   34CHL1    C3 2443   4.457   5.666   7.189  0.2285  0.7798  0.5231
   34CHL1    H3 2444   4.359   5.614   7.191  1.7153 -2.2252  0.9010
   34CHL1    O3 2445   4.489   5.660   7.052 -0.1195 -0.4693  0.1784
   34CHL1   H3' 2446   4.529   5.575   7.029  1.2984  0.1180  0.3402
   34CHL1    C4 2447   4.450   5.804   7.239 -1.0864  0.1109  0.4136
   34CHL1   H4A 2448   4.551   5.848   7.233 -1.7108  1.5483 -0.1660
   34CHL1   H4B 2449   4.386   5.858   7.165 -0.5343 -2.3241 -1.9920
   34CHL1    C5 2450   4.407   5.810   7.378  0.2860 -0.5172 -0.2394
   34CHL1    C6 2451   4.302   5.885   7.422 -0.5644 -0.6384  0.1526
   34CHL1    H6 2452   4.261   5.956   7.349 -0.3070  1.0377  1.5589
   34CHL1    C7 2453   4.253   5.895   7.561 -0.2791 -0.3796 -0.2356
   34CHL1   H7A 2454   4.229   6.000   7.589 -0.0121 -0.7147  1.3281
   34CHL1   H7B 2455   4.165   5.833   7.591 -1.2599  2.5945  3.9749
   34CHL1    C8 2456   4.367   5.855   7.664  0.3196  0.1324  0.5914
   34CHL1    H8 2457   4.443   5.936   7.669 -1.0768  1.7483 -2.2073
   34CHL1   C14 2458   4.304   5.833   7.800 -0.7544 -0.1986 -0.6855
   34CHL1   H14 2459   4.229   5.751   7.795  0.3671 -1.2649 -0.4589
   34CHL1   C15 2460   4.227   5.944   7.864  0.0297 -0.0501  0.7502
   34CHL1  H15A 2461   4.283   6.037   7.844  1.0896 -1.1881 -2.2207
   34CHL1  H15B 2462   4.127   5.959   7.818  0.6410  0.7599 -0.3475
   34CHL1   C16 2463   4.220   5.916   8.014 -0.2386  0.5637  0.5279
   34CHL1  H16A 2464   4.261   5.998   8.077  0.0583 -0.6495  1.9628
   34CHL1  H16B 2465   4.116   5.895   8.046  0.6581 -0.6859  2.8583
   34CHL1   C17 2466   4.319   5.802   8.036  0.8256 -0.1092 -0.3530
   34CHL1   H17 2467   4.253   5.713   8.043 -1.4960  1.5936  1.0193
   34CHL1   C13 2468   4.407   5.795   7.914 -0.3155 -0.1854 -0.0766
   34CHL1   C18 2469   4.513   5.898   7.918 -0.0416  0.0903 -0.1848
   34CHL1  H18A 2470   4.573   5.906   7.825  1.9423  0.6023  1.0710
   34CHL1  H18B 2471   4.468   5.992   7.956 -0.0885  0.0632 -0.1725
   34CHL1  H18C 2472   4.582   5.865   7.999  1.0284 -1.2246 -1.5784
   34CHL1   C12 2473   4.468   5.660   7.872 -0.1203  0.6454 -0.6131
   34CHL1  H12A 2474   4.556   5.636   7.935 -1.0782 -0.0992  0.4826
   34CHL1  H12B 2475   4.396   5.576   7.881 -1.9450  2.1798 -0.0910
   34CHL1   C11 2476   4.523   5.675   7.730 -0.9446  0.5516 -0.3793
   34CHL1  H11A 2477   4.618   5.732   7.728 -0.1151 -0.7846 -0.6108
   34CHL1  H11B 2478   4.554   5.577   7.688  1.7600  1.1314  0.1176
   34CHL1    C9 2479   4.434   5.725   7.620 -0.0698 -0.0821 -0.5755
   34CHL1    H9 2480   4.350   5.652   7.625 -1.6343  1.6593 -0.1117
   34CHL1   C10 2481   4.496   5.729   7.476 -0.2673  0.4659  0.5058
   34CHL1   C19 2482   4.640   5.783   7.483 -0.3421  0.0767 -0.2591
   34CHL1  H19A 2483   4.635   5.881   7.535 -2.9641 -0.1275 -0.0008
   34CHL1  H19B 2484   4.705   5.711   7.536  2.5158  1.0830 -2.1205
   34CHL1  H19C 2485   4.682   5.798   7.381 -0.3770 -0.0841 -0.2966
   34CHL1    C1 2486   4.513   5.583   7.418 -0.6409  0.4170  0.3004
   34CHL1   H1A 2487   4.586   5.528   7.481 -0.7947  0.8761  0.8878
   34CHL1   H1B 2488   4.411   5.541   7.427  0.0631 -1.2889  0.8259
   34CHL1    C2 2489   4.543   5.573   7.262 -0.3818 -0.2880 -0.3147
   34CHL1   H2A 2490   4.552   5.470   7.220  2.2987  0.1850 -1.1130
   34CHL1   H2B 2491   4.649   5.604   7.255 -0.1604 -1.3136 -2.2430
   34CHL1   C20 2492   4.389   5.810   8.172 -0.3034 -0.3608  0.5798
   34CHL1   H20 2493   4.462   5.894   8.178 -0.3285 -0.3829  1.2472
   34CHL1   C21 2494   4.463   5.678   8.195 -0.8748  0.4230  0.0206
   34CHL1  H21A 2495   4.560   5.676   8.140 -0.9670 -3.7913 -0.3651
   34CHL1  H21B 2496   4.409   5.582   8.177 -0.1896  0.1032 -0.4144
   34CHL1  H21C 2497   4.510   5.675   8.295 -0.4333  0.5497 -0.1775
   34CHL1   C22 2498   4.281   5.832   8.283 -0.4049  0.7282  0.3592
   34CHL1  H22A 2499   4.227   5.927   8.264 -1.0298  0.6707  1.7287
   34CHL1  H22B 2500   4.202   5.753   8.278 -1.7279  2.0584 -1.8055
   34CHL1   C23 2501   4.340   5.834   8.427 -0.1298 -0.1449 -0.2092
   34CHL1  H23A 2502   4.362   5.731   8.463  0.3641  0.1921  0.4721
   34CHL1  H23B 2503   4.433   5.896   8.428 -2.0289  2.9203 -0.6009
   34CHL1   C24 2504   4.241   5.898   8.525 -0.6278  0.2234 -0.9037
   34CHL1  H24A 2505   4.200   5.995   8.490  0.6481  1.5823  1.1491
   34CHL1  H24B 2506   4.163   5.821   8.542 -0.7928  0.1253 -2.0036
   34CHL1   C25 2507   4.306   5.927   8.664  0.1628 -0.7487 -0.5061
   34CHL1   H25 2508   4.358   5.835   8.698 -0.0984 -0.1842  1.5511
   34CHL1   C26 2509   4.406   6.040   8.660 -0.1932 -0.2092 -0.0204
   34CHL1  H26A 2510   4.376   6.106   8.577  0.6113 -0.6533 -0.6799
   34CHL1  H26B 2511   4.422   6.100   8.752 -0.3723  2.4692 -1.6595
   34CHL1  H26C 2512   4.510   6.016   8.627  0.5811  1.3277  1.1425
   34CHL1   C27 2513   4.205   5.955   8.766  0.7958  0.4120 -0.1665
   34CHL1  H27A 2514   4.114   5.892   8.760  0.2474  1.0864  0.7821
   34CHL1  H27B 2515   4.250   5.937   8.867  0.5604  1.0694  0.0639
   34CHL1  H27C 2516   4.175   6.062   8.768  0.0258  0.2009  0.3439
   35CHL1    C3 2517   0.879   6.671   7.181  0.3946 -0.0278  0.0398
   35CHL1    H3 2518   0.783   6.672   7.236  0.9950 -1.7060  1.2422
   35CHL1    O3 2519   0.863   6.636   7.049 -0.3173 -0.3252  0.2585
   35CHL1   H3' 2520   0.929   6.690   7.005 -0.0795 -1.7316 -1.1565
   35CHL1    C4 2521   0.934   6.811   7.205 -0.4166 -0.4054 -0.0024
   35CHL1   H4A 2522   1.026   6.816   7.144 -0.2665 -0.6020  0.2064
   35CHL1   H4B 2523   0.862   6.882   7.158  1.5671  0.5867 -1.6815
   35CHL1    C5 2524   0.965   6.845   7.351  0.4551 -0.5094  0.2509
   35CHL1    C6 2525   0.893   6.947   7.408 -0.2430  1.2536 -0.1757
   35CHL1    H6 2526   0.828   7.007   7.343  0.0505 -0.1468 -1.8339
   35CHL1    C7 2527   0.917   6.986   7.552  0.4937 -0.0438  0.1103
   35CHL1   H7A 2528   0.928   7.096   7.555 -0.4021  0.0358  1.0987
   35CHL1   H7B 2529   0.834   6.967   7.622  1.5297 -0.5581  1.2431
   35CHL1    C8 2530   1.049   6.924   7.606  0.6865 -0.7093  0.2664
   35CHL1    H8 2531   1.131   6.982   7.559 -0.3179  0.7957  0.3048
   35CHL1   C14 2532   1.071   6.950   7.759  0.0697 -0.2266  0.3185
   35CHL1   H14 2533   0.991   6.885   7.799 -1.0775  0.2483 -1.0950
   35CHL1   C15 2534   1.045   7.087   7.812  0.3969 -0.3782  0.4967
   35CHL1  H15A 2535   1.099   7.164   7.753  0.9208 -0.9386  0.2438
   35CHL1  H15B 2536   0.937   7.115   7.809 -0.0302 -2.0355 -1.7860
   35CHL1   C16 2537   1.112   7.071   7.954 -0.5038  0.2483 -0.4034
   35CHL1  H16A 2538   1.170   7.165   7.971  2.2369 -1.1357 -1.5649
   35CHL1  H16B 2539   1.025   7.068   8.024  2.2236  1.3849  3.4019
   35CHL1   C17 2540   1.190   6.937   7.960 -0.7153  0.5995  0.4959
   35CHL1   H17 2541   1.119   6.870   8.013 -0.8433  0.0166 -0.4004
   35CHL1   C13 2542   1.200   6.894   7.817 -0.7865  0.0439  0.1120
   35CHL1   C18 2543   1.316   6.965   7.741  0.4049 -0.6217 -0.0782
   35CHL1  H18A 2544   1.307   7.073   7.763 -0.7281 -1.0494  1.8238
   35CHL1  H18B 2545   1.418   6.937   7.775  2.6581  3.7232 -2.4769
   35CHL1  H18C 2546   1.322   6.950   7.631  1.4815 -2.1847  0.1610
   35CHL1   C12 2547   1.194   6.736   7.790 -0.6688 -0.4712 -0.1199
   35CHL1  H12A 2548   1.282   6.680   7.829  0.3702  2.1800  1.5650
   35CHL1  H12B 2549   1.106   6.681   7.830  0.3039 -0.9800  1.4020
   35CHL1   C11 2550   1.186   6.708   7.632 -0.2032 -0.2504 -0.4275
   35CHL1  H11A 2551   1.281   6.738   7.582  0.0240  1.0264  0.7203
   35CHL1  H11B 2552   1.187   6.597   7.627  0.5121 -0.2723  0.0319
   35CHL1    C9 2553   1.064   6.774   7.573 -0.0889  0.3858 -0.7066
   35CHL1    H9 2554   0.977   6.727   7.623  0.9332  2.2968  3.3160
   35CHL1   C10 2555   1.051   6.748   7.422 -0.0103 -0.2738  0.4233
   35CHL1   C19 2556   1.188   6.754   7.359  0.0137  0.2117  0.6613
   35CHL1  H19A 2557   1.247   6.846   7.379 -1.2706  1.4843 -1.0207
   35CHL1  H19B 2558   1.242   6.663   7.392 -0.0634 -0.1829 -0.2685
   35CHL1  H19C 2559   1.197   6.751   7.248 -2.0774  0.2805  0.4384
   35CHL1    C1 2560   0.991   6.607   7.402 -0.9133 -0.2543  0.5753
   35CHL1   H1A 2561   1.068   6.535   7.438  1.3858  1.8027  0.0224
   35CHL1   H1B 2562   0.896   6.618   7.459 -0.3288 -0.1898  1.5612
   35CHL1    C2 2563   0.970   6.565   7.254  0.1909 -0.5003  0.7856
   35CHL1   H2A 2564   0.921   6.466   7.260 -0.2460 -0.5039 -1.7148
   35CHL1   H2B 2565   1.060   6.558   7.189 -0.7713 -3.3011 -0.3952
   35CHL1   C20 2566   1.322   6.938   8.046 -0.7493  0.1755  0.0923
   35CHL1   H20 2567   1.394   7.008   7.997 -1.9113  3.5204  2.7691
   35CHL1   C21 2568   1.373   6.797   8.053  0.0391 -0.8666  0.3978
   35CHL1  H21A 2569   1.285   6.731   8.069 -0.7472  0.0045 -0.2005
   35CHL1  H21B 2570   1.442   6.793   8.140  0.4945  0.7851  0.1547
   35CHL1  H21C 2571   1.436   6.780   7.963  1.4157  1.8266  0.7619
   35CHL1   C22 2572   1.297   6.995   8.186 -0.4600 -1.1248  0.5697
   35CHL1  H22A 2573   1.264   7.100   8.167  2.0210 -0.4992 -0.6584
   35CHL1  H22B 2574   1.218   6.929   8.229 -0.2689 -2.4605 -1.0281
   35CHL1   C23 2575   1.416   7.027   8.270 -0.1620  0.2324  0.3704
   35CHL1  H23A 2576   1.472   6.933   8.290  1.4151  0.8242 -1.0708
   35CHL1  H23B 2577   1.489   7.082   8.208  1.1109 -1.5175  0.2373
   35CHL1   C24 2578   1.376   7.094   8.398 -0.1192  0.1536 -0.5741
   35CHL1  H24A 2579   1.375   7.202   8.370 -1.7900  0.5626  0.8529
   35CHL1  H24B 2580   1.273   7.072   8.433  0.5255  1.5179  2.5022
   35CHL1   C25 2581   1.474   7.075   8.509 -0.0646 -0.1933  0.3565
   35CHL1   H25 2582   1.575   7.096   8.466 -0.4200 -2.3397 -1.7784
   35CHL1   C26 2583   1.443   7.167   8.628 -1.0501  0.3149  0.5428
   35CHL1  H26A 2584   1.453   7.275   8.603 -0.0401  0.1564  0.2262
   35CHL1  H26B 2585   1.335   7.155   8.649 -1.3382  1.3005 -0.3181
   35CHL1  H26C 2586   1.505   7.150   8.719  1.2576  2.7146 -0.4407
   35CHL1   C27 2587   1.473   6.931   8.571  0.2772 -0.0158  0.6083
   35CHL1  H27A 2588   1.532   6.915   8.664 -0.7427  2.4222  1.7662
   35CHL1  H27B 2589   1.510   6.874   8.482  2.4334  1.7046  0.3172
   35CHL1  H27C 2590   1.367   6.907   8.596 -0.0200 -0.9050 -1.2642
   36CHL1    C3 2591   1.403   5.995   7.001  0.7801  1.1542  0.1568
   36CHL1    H3 2592   1.293   5.984   6.992  0.7450  2.1968 -0.8671
   36CHL1    O3 2593   1.462   5.979   6.878 -0.5559 -0.4877 -0.0078
   36CHL1   H3' 2594   1.547   6.014   6.904 -0.1700 -0.4276 -1.2687
   36CHL1    C4 2595   1.436   6.134   7.053  0.1462 -0.1362 -0.7982
   36CHL1   H4A 2596   1.547   6.144   7.059  0.1611 -0.3671 -0.6672
   36CHL1   H4B 2597   1.392   6.212   6.987 -0.1412  0.7657  0.4083
   36CHL1    C5 2598   1.369   6.140   7.188  0.5276 -0.9626 -0.2369
   36CHL1    C6 2599   1.283   6.245   7.228 -0.2640  0.2000 -0.5880
   36CHL1    H6 2600   1.245   6.315   7.152 -0.8586  0.0272 -0.4516
   36CHL1    C7 2601   1.238   6.271   7.371  0.6740  0.1693  0.1235
   36CHL1   H7A 2602   1.228   6.379   7.396  1.5768 -0.0800  1.6346
   36CHL1   H7B 2603   1.132   6.238   7.378  0.4925  0.9085  1.0411
   36CHL1    C8 2604   1.309   6.193   7.481 -0.0025 -0.3348  0.6450
   36CHL1    H8 2605   1.409   6.239   7.492  0.6683 -2.0059  2.0703
   36CHL1   C14 2606   1.222   6.188   7.605  0.2369  0.3602 -0.6249
   36CHL1   H14 2607   1.123   6.142   7.585  0.3982 -0.4476  0.3274
   36CHL1   C15 2608   1.185   6.328   7.663  0.0864  0.9788 -0.4548
   36CHL1  H15A 2609   1.271   6.399   7.659  0.1597  0.8450 -1.5601
   36CHL1  H15B 2610   1.107   6.368   7.596 -0.2224  0.9267 -0.1284
   36CHL1   C16 2611   1.164   6.302   7.816 -0.2063  0.4889  0.3334
   36CHL1  H16A 2612   1.240   6.354   7.877  0.0557 -1.3636  1.6839
   36CHL1  H16B 2613   1.061   6.330   7.848 -0.1013  0.8385  0.3681
   36CHL1   C17 2614   1.198   6.143   7.842  0.7646 -0.5404  0.3435
   36CHL1   H17 2615   1.098   6.098   7.825 -0.6705  1.6498  2.4739
   36CHL1   C13 2616   1.281   6.103   7.720 -0.5838  0.3473 -0.3448
   36CHL1   C18 2617   1.427   6.168   7.752 -0.0209  0.4633 -0.1568
   36CHL1  H18A 2618   1.466   6.129   7.848  1.9789  0.3935 -0.9530
   36CHL1  H18B 2619   1.492   6.138   7.667 -1.9311 -1.1881 -1.1351
   36CHL1  H18C 2620   1.415   6.277   7.768  1.3826  0.4304  1.2685
   36CHL1   C12 2621   1.286   5.951   7.673  0.7770 -0.7974 -0.3405
   36CHL1  H12A 2622   1.319   5.884   7.755 -0.4875  0.9528  1.7042
   36CHL1  H12B 2623   1.178   5.927   7.660 -0.3035  2.9118  0.5730
   36CHL1   C11 2624   1.372   5.948   7.540  0.5956 -0.4007 -0.4393
   36CHL1  H11A 2625   1.481   5.949   7.564  0.3196  3.4110  1.5165
   36CHL1  H11B 2626   1.356   5.844   7.504 -0.2581 -1.1492  1.9234
   36CHL1    C9 2627   1.328   6.049   7.436  0.4985  0.5209  0.4974
   36CHL1    H9 2628   1.230   6.015   7.398  0.5865 -1.5384  1.9954
   36CHL1   C10 2629   1.415   6.041   7.297 -0.0020  0.5007 -0.1368
   36CHL1   C19 2630   1.567   6.066   7.329 -0.0654 -0.1348 -0.3417
   36CHL1  H19A 2631   1.618   5.991   7.394 -2.0161 -1.0807  0.1563
   36CHL1  H19B 2632   1.624   6.069   7.234 -0.3431 -2.3337 -0.6154
   36CHL1  H19C 2633   1.592   6.162   7.380  0.0554  0.0856 -0.8027
   36CHL1    C1 2634   1.395   5.896   7.236 -0.6552 -0.1960  0.5037
   36CHL1   H1A 2635   1.453   5.824   7.297  0.1640 -1.4047 -1.5887
   36CHL1   H1B 2636   1.290   5.863   7.250 -0.3695 -1.2711  0.1473
   36CHL1    C2 2637   1.452   5.883   7.091 -0.4316  0.6492 -0.5743
   36CHL1   H2A 2638   1.414   5.781   7.068 -1.8522  1.1115 -0.3939
   36CHL1   H2B 2639   1.562   5.889   7.102 -0.4989 -1.0940  1.8010
   36CHL1   C20 2640   1.231   6.111   7.990 -0.0988 -0.2002 -0.0662
   36CHL1   H20 2641   1.335   6.140   8.014  0.3723 -1.9791  0.1505
   36CHL1   C21 2642   1.218   5.960   8.004 -0.4819  0.2207 -0.3308
   36CHL1  H21A 2643   1.119   5.918   7.975 -1.1787  0.9003  1.0067
   36CHL1  H21B 2644   1.228   5.925   8.109 -2.7223 -1.7347 -0.6700
   36CHL1  H21C 2645   1.297   5.909   7.944 -0.2958  0.3020 -0.1542
   36CHL1   C22 2646   1.142   6.181   8.086 -0.2702  0.2288  0.2671
   36CHL1  H22A 2647   1.145   6.290   8.065  0.2744  0.3487  0.9070
   36CHL1  H22B 2648   1.037   6.148   8.068  0.9570 -3.0838 -1.7209
   36CHL1   C23 2649   1.177   6.158   8.232 -0.3502  0.7352  0.2062
   36CHL1  H23A 2650   1.173   6.048   8.248 -0.3980  0.7463  0.2719
   36CHL1  H23B 2651   1.279   6.201   8.242  0.4566 -1.0806  0.1946
   36CHL1   C24 2652   1.068   6.218   8.322  0.0701  0.1578 -0.4890
   36CHL1  H24A 2653   1.074   6.329   8.311 -0.5354  0.1208 -1.2600
   36CHL1  H24B 2654   0.967   6.184   8.291 -0.8125 -0.2682  2.4834
   36CHL1   C25 2655   1.085   6.189   8.476  0.4142 -0.7645 -0.0339
   36CHL1   H25 2656   1.095   6.080   8.494 -0.3750 -0.8874 -0.2959
   36CHL1   C26 2657   1.215   6.257   8.530  0.8724  0.1474  0.5977
   36CHL1  H26A 2658   1.220   6.364   8.500 -3.9013  0.9099  1.6347
   36CHL1  H26B 2659   1.210   6.242   8.640 -1.1141  0.1883  0.5598
   36CHL1  H26C 2660   1.308   6.209   8.493  0.4904 -2.4966  2.7568
   36CHL1   C27 2661   0.963   6.242   8.553  0.0575 -0.0739  0.0413
   36CHL1  H27A 2662   0.866   6.199   8.519 -0.8136 -0.7894  3.1281
   36CHL1  H27B 2663   0.970   6.209   8.659 -0.7233 -1.2438 -0.2506
   36CHL1  H27C 2664   0.953   6.353   8.558  0.8013 -0.0055  0.0993
   37CHL1    C3 2665   4.567   1.456   6.935  0.5682  0.6255 -0.5632
   37CHL1    H3 2666   4.678   1.457   6.945  0.6892 -1.3098 -1.3384
   37CHL1    O3 2667   4.538   1.447   6.792  0.0507 -0.3046  0.4575
   37CHL1   H3' 2668   4.442   1.453   6.781  0.0505  0.6206  0.8874
   37CHL1    C4 2669   4.504   1.338   7.015 -0.5009 -0.4586  0.0138
   37CHL1   H4A 2670   4.395   1.335   6.991 -0.1717  2.1578 -2.2646
   37CHL1   H4B 2671   4.544   1.238   6.988  1.1021 -0.9813  3.7113
   37CHL1    C5 2672   4.514   1.364   7.166  0.5666 -0.4645  0.0081
   37CHL1    C6 2673   4.571   1.275   7.249 -0.1343 -0.1317  0.8886
   37CHL1    H6 2674   4.618   1.188   7.200 -0.5972 -1.0933  2.0904
   37CHL1    C7 2675   4.585   1.290   7.397 -0.6505  0.0116  0.1042
   37CHL1   H7A 2676   4.551   1.191   7.436  1.7814 -1.4334 -1.2054
   37CHL1   H7B 2677   4.687   1.293   7.439 -0.9201 -1.6443  0.9710
   37CHL1    C8 2678   4.510   1.412   7.453 -0.3665  1.1189 -0.0085
   37CHL1    H8 2679   4.402   1.386   7.454 -0.6688  2.2130 -1.5607
   37CHL1   C14 2680   4.560   1.439   7.593  0.2582  0.0612  0.9538
   37CHL1   H14 2681   4.667   1.464   7.575 -0.2316 -0.0922 -2.9989
   37CHL1   C15 2682   4.549   1.329   7.695 -0.6029 -0.3769  0.1468
   37CHL1  H15A 2683   4.441   1.302   7.692 -0.2336 -2.0824  1.0989
   37CHL1  H15B 2684   4.618   1.244   7.675  1.3752  1.3531 -0.7362
   37CHL1   C16 2685   4.584   1.398   7.824  0.1695  0.8870  0.7866
   37CHL1  H16A 2686   4.538   1.342   7.908  1.1655  2.2169  2.2644
   37CHL1  H16B 2687   4.694   1.383   7.832  0.4636  2.2910 -0.1967
   37CHL1   C17 2688   4.566   1.553   7.801  0.1470  0.2610 -0.1710
   37CHL1   H17 2689   4.668   1.595   7.799 -0.0692  1.0760  2.3063
   37CHL1   C13 2690   4.496   1.560   7.661 -0.0721 -1.0203  0.2108
   37CHL1   C18 2691   4.344   1.535   7.667  0.4543  0.0930 -0.0070
   37CHL1  H18A 2692   4.321   1.457   7.743  2.1263  1.1075  1.6203
   37CHL1  H18B 2693   4.295   1.627   7.705  0.0660  0.0904 -0.5021
   37CHL1  H18C 2694   4.291   1.523   7.570  0.1646  0.3725  0.1160
   37CHL1   C12 2695   4.511   1.690   7.571 -0.1198  0.2280  0.2059
   37CHL1  H12A 2696   4.454   1.771   7.622 -1.2479 -1.4261  1.6876
   37CHL1  H12B 2697   4.619   1.716   7.567  0.2670 -1.4190 -0.8947
   37CHL1   C11 2698   4.471   1.668   7.425  0.2328 -0.1979 -0.3786
   37CHL1  H11A 2699   4.363   1.687   7.408  0.0717 -0.2637  0.5103
   37CHL1  H11B 2700   4.519   1.756   7.377  0.2117  0.1029  0.1467
   37CHL1    C9 2701   4.531   1.536   7.368  0.1968 -1.3086  0.4809
   37CHL1    H9 2702   4.640   1.554   7.356 -0.1439  1.5872  1.0639
   37CHL1   C10 2703   4.475   1.503   7.221 -0.4879  0.8800 -0.1420
   37CHL1   C19 2704   4.321   1.515   7.217 -0.3267 -0.3910  0.5677
   37CHL1  H19A 2705   4.298   1.623   7.219 -1.5574 -0.6306  0.0815
   37CHL1  H19B 2706   4.278   1.477   7.122 -2.2047 -0.6305  1.4572
   37CHL1  H19C 2707   4.274   1.452   7.296 -2.8988 -0.9305 -1.2505
   37CHL1    C1 2708   4.541   1.612   7.128  0.4814  0.2493  0.1837
   37CHL1   H1A 2709   4.511   1.713   7.163  0.2841 -0.5139  2.3847
   37CHL1   H1B 2710   4.651   1.599   7.139  0.5516  2.0030  2.2772
   37CHL1    C2 2711   4.511   1.593   6.981 -0.3855 -0.2267  0.5120
   37CHL1   H2A 2712   4.561   1.666   6.913 -0.7277  0.0393  0.5442
   37CHL1   H2B 2713   4.402   1.595   6.960 -0.8081  0.4467  2.6129
   37CHL1   C20 2714   4.503   1.621   7.930  0.4683 -0.1971 -0.6079
   37CHL1   H20 2715   4.403   1.577   7.946  0.4492 -0.4006 -1.2998
   37CHL1   C21 2716   4.479   1.772   7.913  0.6337 -0.2731  0.0740
   37CHL1  H21A 2717   4.414   1.800   7.999  0.1687 -2.3074  0.4572
   37CHL1  H21B 2718   4.411   1.788   7.826 -1.5541  0.1484  1.7565
   37CHL1  H21C 2719   4.563   1.841   7.892  1.1557 -0.9309 -0.0352
   37CHL1   C22 2720   4.574   1.601   8.068 -0.3909 -0.0278 -0.6157
   37CHL1  H22A 2721   4.501   1.640   8.142 -1.8627  1.2902 -2.6403
   37CHL1  H22B 2722   4.579   1.492   8.087 -1.4372  0.2375  1.5361
   37CHL1   C23 2723   4.708   1.667   8.083  0.1605  0.0538 -0.8383
   37CHL1  H23A 2724   4.786   1.631   8.012  1.3243 -0.1419  0.4908
   37CHL1  H23B 2725   4.699   1.773   8.050  0.4133 -0.5239 -2.9203
   37CHL1   C24 2726   4.747   1.667   8.229 -0.5774 -0.3489 -0.1583
   37CHL1  H24A 2727   4.668   1.704   8.297  0.6648  3.5923 -0.5892
   37CHL1  H24B 2728   4.760   1.560   8.259 -0.8611 -0.5578 -0.7722
   37CHL1   C25 2729   4.879   1.749   8.252  0.2953 -0.2312  0.1355
   37CHL1   H25 2730   4.950   1.755   8.166  1.7606  1.5689  1.3717
   37CHL1   C26 2731   4.838   1.897   8.286  0.0762  0.7308 -0.1737
   37CHL1  H26A 2732   4.800   1.916   8.389  0.9855  0.7300  0.1715
   37CHL1  H26B 2733   4.934   1.952   8.281 -0.2679  1.6989  2.1909
   37CHL1  H26C 2734   4.773   1.943   8.209 -0.0522  1.4143  0.3318
   37CHL1   C27 2735   4.978   1.701   8.355 -0.3715 -0.3370  0.4318
   37CHL1  H27A 2736   5.060   1.775   8.372  1.5910 -1.7128 -2.2361
   37CHL1  H27B 2737   4.922   1.692   8.450 -0.1988 -1.9228  0.3987
   37CHL1  H27C 2738   5.019   1.599   8.340 -1.4519 -0.6833 -0.2327
   38CHL1    C3 2739   2.215   3.590   6.861 -0.2916 -0.3612 -0.7229
   38CHL1    H3 2740   2.269   3.688   6.866 -0.2668 -0.3341 -1.4035
   38CHL1    O3 2741   2.197   3.557   6.721 -0.0776 -0.7571  0.0824
   38CHL1   H3' 2742   2.200   3.462   6.708  0.4001 -0.6141 -0.9442
   38CHL1    C4 2743   2.305   3.482   6.919 -0.0347 -0.0533 -0.5163
   38CHL1   H4A 2744   2.258   3.383   6.899  1.6021 -1.0900  0.5747
   38CHL1   H4B 2745   2.395   3.472   6.853  0.6410  0.8840  0.2418
   38CHL1    C5 2746   2.327   3.501   7.066 -0.9500 -0.0549 -0.7898
   38CHL1    C6 2747   2.448   3.494   7.132 -0.5491  0.2912  0.2489
   38CHL1    H6 2748   2.540   3.469   7.076 -0.8261  0.8738 -0.4966
   38CHL1    C7 2749   2.469   3.504   7.280 -0.1839  0.2144  0.2289
   38CHL1   H7A 2750   2.548   3.433   7.310 -0.2293  0.0462 -0.0401
   38CHL1   H7B 2751   2.500   3.604   7.317  0.0458 -0.5283  2.1213
   38CHL1    C8 2752   2.338   3.469   7.357  0.8160 -0.6960 -0.2175
   38CHL1    H8 2753   2.311   3.362   7.359  1.6771 -0.9494 -1.3023
   38CHL1   C14 2754   2.355   3.524   7.500 -0.8587 -0.1187  0.2270
   38CHL1   H14 2755   2.384   3.630   7.491  1.3959 -0.5484  1.7193
   38CHL1   C15 2756   2.478   3.474   7.577 -0.3392 -0.3499 -0.4502
   38CHL1  H15A 2757   2.484   3.364   7.565  0.4037 -0.4986  1.0887
   38CHL1  H15B 2758   2.576   3.515   7.545 -1.1930  1.4168 -0.9324
   38CHL1   C16 2759   2.439   3.506   7.725 -0.5490 -0.1842  0.7491
   38CHL1  H16A 2760   2.456   3.409   7.776  0.6513 -1.6344 -2.2100
   38CHL1  H16B 2761   2.518   3.580   7.751 -0.2789  0.0089 -0.5773
   38CHL1   C17 2762   2.300   3.569   7.722 -0.5306 -0.1503  0.6482
   38CHL1   H17 2763   2.319   3.676   7.699 -0.1692 -0.5437 -1.0017
   38CHL1   C13 2764   2.238   3.513   7.588  0.4965  0.0142 -0.4866
   38CHL1   C18 2765   2.195   3.372   7.616 -0.6284  0.8390 -0.0117
   38CHL1  H18A 2766   2.165   3.332   7.517  1.0617  1.3844 -0.7690
   38CHL1  H18B 2767   2.276   3.315   7.666 -1.1852  1.4215  1.6157
   38CHL1  H18C 2768   2.108   3.362   7.685  0.8288 -1.8402  1.6292
   38CHL1   C12 2769   2.118   3.597   7.533 -0.4196 -0.8649 -0.2015
   38CHL1  H12A 2770   2.034   3.582   7.604 -2.0887  1.5431 -1.5108
   38CHL1  H12B 2771   2.125   3.707   7.549 -0.9916 -0.6719 -1.1664
   38CHL1   C11 2772   2.089   3.561   7.387 -0.7767  0.6745 -0.3550
   38CHL1  H11A 2773   2.027   3.470   7.395  0.3360  0.0264  1.6413
   38CHL1  H11B 2774   2.019   3.640   7.353 -0.2961 -0.3559 -4.2004
   38CHL1    C9 2775   2.217   3.551   7.290  0.4916  0.2138 -0.0980
   38CHL1    H9 2776   2.258   3.655   7.291 -0.8605  0.8017 -1.4858
   38CHL1   C10 2777   2.192   3.516   7.145 -0.3947  0.8175 -0.4623
   38CHL1   C19 2778   2.127   3.375   7.145 -0.3841  0.2215  0.2556
   38CHL1  H19A 2779   2.203   3.304   7.183 -1.3784 -1.7971 -1.3241
   38CHL1  H19B 2780   2.038   3.380   7.212  0.1733  2.1464  0.9206
   38CHL1  H19C 2781   2.100   3.342   7.042  1.6508 -0.3939 -0.1271
   38CHL1    C1 2782   2.093   3.617   7.081  0.0791  0.4152 -0.6145
   38CHL1   H1A 2783   1.992   3.607   7.126 -0.4756  3.4078 -1.0269
   38CHL1   H1B 2784   2.124   3.720   7.107 -2.7702  0.9992  0.7640
   38CHL1    C2 2785   2.080   3.600   6.931  0.0693 -0.8195  0.3040
   38CHL1   H2A 2786   2.025   3.682   6.880 -0.0488 -2.2202 -1.9862
   38CHL1   H2B 2787   2.014   3.512   6.912 -0.0573 -0.4715 -0.9457
   38CHL1   C20 2788   2.214   3.572   7.850  0.3082  0.2852  0.0120
   38CHL1   H20 2789   2.114   3.609   7.819  0.2691  0.6826  0.5949
   38CHL1   C21 2790   2.279   3.686   7.940  0.3678  0.4141  1.3515
   38CHL1  H21A 2791   2.271   3.782   7.884  0.7169 -0.6374 -0.5796
   38CHL1  H21B 2792   2.383   3.657   7.962  0.5973  0.1164 -0.0437
   38CHL1  H21C 2793   2.212   3.695   8.029 -2.0133 -0.0215 -0.2865
   38CHL1   C22 2794   2.221   3.434   7.934  0.4600  0.2958  0.3808
   38CHL1  H22A 2795   2.205   3.351   7.862  0.2157  0.7424 -0.0876
   38CHL1  H22B 2796   2.318   3.410   7.982  0.4356 -3.0188 -0.9588
   38CHL1   C23 2797   2.114   3.431   8.039 -0.2522  0.5031 -0.7176
   38CHL1  H23A 2798   2.140   3.504   8.119 -1.6810 -0.7856  1.0140
   38CHL1  H23B 2799   2.020   3.461   7.989 -0.7444 -2.6462 -1.9597
   38CHL1   C24 2800   2.085   3.292   8.114  0.0839 -0.3551 -0.8150
   38CHL1  H24A 2801   2.023   3.325   8.201  2.3065 -0.0854  0.7444
   38CHL1  H24B 2802   2.040   3.217   8.046  0.7010  0.2092 -1.8629
   38CHL1   C25 2803   2.213   3.234   8.177 -0.2408 -0.0040  0.1275
   38CHL1   H25 2804   2.291   3.225   8.098  2.1052 -0.8669  2.4193
   38CHL1   C26 2805   2.275   3.330   8.275 -0.5936 -0.0856 -0.0647
   38CHL1  H26A 2806   2.327   3.412   8.220 -0.4083 -1.0040 -1.3004
   38CHL1  H26B 2807   2.201   3.379   8.343 -1.0869  1.0749 -1.3974
   38CHL1  H26C 2808   2.358   3.278   8.328  0.7793  0.0213 -2.0112
   38CHL1   C27 2809   2.189   3.107   8.251  0.2692 -0.5120 -0.1033
   38CHL1  H27A 2810   2.284   3.051   8.266  0.2745 -0.5227 -0.1770
   38CHL1  H27B 2811   2.138   3.112   8.350 -0.7352 -2.6539 -0.4464
   38CHL1  H27C 2812   2.130   3.033   8.192 -0.8199 -1.2835  1.8273
   39CHL1    C3 2813   2.178   3.072   6.865  0.0706  0.3917  0.1026
   39CHL1    H3 2814   2.152   3.179   6.883  0.4402  0.6181 -0.6385
   39CHL1    O3 2815   2.160   3.044   6.727 -0.1178  0.9627  0.0157
   39CHL1   H3' 2816   2.195   2.954   6.726 -0.7078  0.6286  2.6031
   39CHL1    C4 2817   2.329   3.061   6.904 -0.3863 -0.0375  0.9643
   39CHL1   H4A 2818   2.357   2.961   6.865  0.0409  0.8835 -1.2179
   39CHL1   H4B 2819   2.387   3.139   6.852  0.0612 -1.1820 -0.3242
   39CHL1    C5 2820   2.358   3.051   7.050  0.8236  0.0745  0.6038
   39CHL1    C6 2821   2.453   3.124   7.102 -0.5631  0.7948 -0.7883
   39CHL1    H6 2822   2.505   3.195   7.036  3.1323 -1.7565 -0.9246
   39CHL1    C7 2823   2.495   3.120   7.247  0.2666 -0.0253  0.2523
   39CHL1   H7A 2824   2.605   3.112   7.261  0.1629 -2.6154 -0.0386
   39CHL1   H7B 2825   2.474   3.219   7.294  1.8918  1.7275 -2.4334
   39CHL1    C8 2826   2.423   3.002   7.324 -0.0185 -0.2863  0.0246
   39CHL1    H8 2827   2.488   2.917   7.293  2.3440  2.1565 -2.3248
   39CHL1   C14 2828   2.439   3.017   7.474  0.1153  0.6602  0.0807
   39CHL1   H14 2829   2.385   3.111   7.500 -0.8710 -0.3938  2.1645
   39CHL1   C15 2830   2.577   3.050   7.533 -0.1664  0.6184 -0.0351
   39CHL1  H15A 2831   2.651   2.983   7.484 -1.0390 -0.3004 -0.1188
   39CHL1  H15B 2832   2.596   3.157   7.511  0.6564  0.7560  1.2354
   39CHL1   C16 2833   2.566   3.013   7.681  0.4864  0.2919 -0.7642
   39CHL1  H16A 2834   2.645   2.939   7.707 -0.3202 -0.2648  0.1915
   39CHL1  H16B 2835   2.574   3.104   7.744  1.3721 -0.3941  0.1395
   39CHL1   C17 2836   2.422   2.960   7.703 -0.1378  0.0329 -0.4643
   39CHL1   H17 2837   2.363   3.053   7.720  1.2429  0.7008  0.9462
   39CHL1   C13 2838   2.379   2.909   7.566 -0.0140  0.1937  0.3744
   39CHL1   C18 2839   2.454   2.772   7.547  0.7007 -0.2135 -0.2575
   39CHL1  H18A 2840   2.558   2.765   7.584  0.6457 -1.8760 -0.3415
   39CHL1  H18B 2841   2.397   2.685   7.585 -0.5195 -1.5910 -4.6528
   39CHL1  H18C 2842   2.463   2.755   7.438 -0.4683 -3.1583  0.0168
   39CHL1   C12 2843   2.234   2.900   7.525  0.2723  0.2631 -0.0787
   39CHL1  H12A 2844   2.179   2.832   7.594 -2.3000  0.7818 -1.4804
   39CHL1  H12B 2845   2.202   3.004   7.550  1.1148  0.1968  1.3969
   39CHL1   C11 2846   2.200   2.872   7.379 -0.0172  0.3724 -0.5949
   39CHL1  H11A 2847   2.247   2.772   7.362  1.6057  0.8596  0.7579
   39CHL1  H11B 2848   2.093   2.877   7.351 -0.3877 -2.4187  0.0054
   39CHL1    C9 2849   2.276   2.978   7.284  0.2869 -0.2501  0.3118
   39CHL1    H9 2850   2.226   3.075   7.305  0.4253 -0.2148  0.4815
   39CHL1   C10 2851   2.270   2.956   7.133  0.0905  0.2668  0.2338
   39CHL1   C19 2852   2.303   2.810   7.106  0.5530  0.0434 -0.1523
   39CHL1  H19A 2853   2.248   2.733   7.163  2.7553 -1.7651 -0.3200
   39CHL1  H19B 2854   2.296   2.793   6.996  0.6542 -0.3118 -0.1064
   39CHL1  H19C 2855   2.404   2.784   7.146  0.2440  0.1193  0.6966
   39CHL1    C1 2856   2.122   2.983   7.098  0.2000 -0.3197  0.0008
   39CHL1   H1A 2857   2.061   2.903   7.145  2.0115 -0.2982  2.6124
   39CHL1   H1B 2858   2.087   3.079   7.140  0.5240 -0.8419  1.5415
   39CHL1    C2 2859   2.089   2.979   6.943  0.0635  0.3325  0.4471
   39CHL1   H2A 2860   1.984   3.009   6.923 -0.5367 -1.2791  1.0165
   39CHL1   H2B 2861   2.100   2.874   6.910  0.9546  0.3002  0.8143
   39CHL1   C20 2862   2.419   2.866   7.824 -0.1913  0.3747 -0.5485
   39CHL1   H20 2863   2.492   2.785   7.807  1.4052  1.1114  2.1832
   39CHL1   C21 2864   2.281   2.814   7.848 -0.5426 -0.3929 -0.3529
   39CHL1  H21A 2865   2.243   2.751   7.765 -1.8055 -1.0494  0.6855
   39CHL1  H21B 2866   2.204   2.893   7.866 -4.1118 -2.7857 -3.4338
   39CHL1  H21C 2867   2.284   2.743   7.934  2.6560  0.6868  0.5675
   39CHL1   C22 2868   2.472   2.932   7.947  0.2456 -0.6494  0.5132
   39CHL1  H22A 2869   2.575   2.965   7.924  0.4045 -1.6927 -0.3484
   39CHL1  H22B 2870   2.403   3.014   7.976  0.0877 -1.1305  1.5378
   39CHL1   C23 2871   2.494   2.840   8.069  0.0532 -0.1160  0.1725
   39CHL1  H23A 2872   2.393   2.809   8.103  0.0585  1.0784  1.3897
   39CHL1  H23B 2873   2.557   2.754   8.039 -0.0944 -0.3749  0.5973
   39CHL1   C24 2874   2.560   2.918   8.192  0.0355  0.5602  0.8982
   39CHL1  H24A 2875   2.664   2.948   8.166 -0.0992  1.3530  1.2685
   39CHL1  H24B 2876   2.499   3.006   8.218 -1.0528  0.5621 -1.3799
   39CHL1   C25 2877   2.571   2.827   8.319 -0.3105  0.1802 -0.3478
   39CHL1   H25 2878   2.469   2.788   8.337  0.2814 -1.8673 -1.0672
   39CHL1   C26 2879   2.680   2.722   8.295 -0.7929  0.4608  0.5494
   39CHL1  H26A 2880   2.687   2.653   8.382  0.7919 -1.8625 -1.3026
   39CHL1  H26B 2881   2.650   2.652   8.214 -1.8770 -1.9359  2.8795
   39CHL1  H26C 2882   2.780   2.762   8.269 -0.6662 -0.2253 -0.0453
   39CHL1   C27 2883   2.600   2.903   8.451  0.5066  0.2079 -0.2138
   39CHL1  H27A 2884   2.707   2.932   8.456  0.2500  1.2373 -0.4437
   39CHL1  H27B 2885   2.554   3.003   8.460  0.9645  0.4601 -0.6228
   39CHL1  H27C 2886   2.564   2.836   8.532 -0.9881 -0.5332 -1.4397
   40CHL1    C3 2887   3.003   0.251   6.961 -0.3944  0.1681  0.0337
   40CHL1    H3 2888   2.976   0.359   6.957  0.7744  0.4599 -2.6021
   40CHL1    O3 2889   2.988   0.190   6.832  0.1370  0.0950  1.3119
   40CHL1   H3' 2890   3.033   0.105   6.830 -0.5432 -0.2728  1.0893
   40CHL1    C4 2891   3.145   0.228   7.017  0.0714  0.1836  0.0293
   40CHL1   H4A 2892   3.171   0.123   6.993  2.9446  0.6564  0.7115
   40CHL1   H4B 2893   3.200   0.302   6.954  0.9263 -0.9001 -0.5323
   40CHL1    C5 2894   3.164   0.256   7.160  0.6113  0.5932  0.6598
   40CHL1    C6 2895   3.267   0.330   7.207  0.1664  0.4727  0.3568
   40CHL1    H6 2896   3.346   0.361   7.138 -0.4853 -0.4304 -0.8405
   40CHL1    C7 2897   3.289   0.360   7.351 -0.5202  0.8340 -0.1167
   40CHL1   H7A 2898   3.395   0.341   7.379 -0.3649  1.2834 -0.3894
   40CHL1   H7B 2899   3.274   0.470   7.365  2.0441  1.0517  1.7133
   40CHL1    C8 2900   3.184   0.306   7.451 -0.3502  0.4408  1.1055
   40CHL1    H8 2901   3.222   0.203   7.470  1.2948  1.0356  1.1392
   40CHL1   C14 2902   3.173   0.372   7.581  0.5625  0.5188 -0.0064
   40CHL1   H14 2903   3.152   0.479   7.559 -0.6209  1.1174  3.4366
   40CHL1   C15 2904   3.307   0.368   7.655  0.3994 -0.3645  0.7036
   40CHL1  H15A 2905   3.349   0.265   7.657 -0.9717 -0.9376  1.0455
   40CHL1  H15B 2906   3.374   0.446   7.614 -0.9084 -0.2729 -1.4629
   40CHL1   C16 2907   3.261   0.387   7.798  0.3676  0.0074  0.4978
   40CHL1  H16A 2908   3.304   0.311   7.866  0.0946  0.2464  0.9392
   40CHL1  H16B 2909   3.308   0.484   7.826  0.6453  0.7961 -2.3779
   40CHL1   C17 2910   3.100   0.386   7.798  0.1044 -0.4973 -0.4430
   40CHL1   H17 2911   3.076   0.493   7.780  2.3697  0.3088  0.8475
   40CHL1   C13 2912   3.063   0.311   7.677  0.6293 -0.1829  0.3357
   40CHL1   C18 2913   3.085   0.159   7.709 -0.1628 -0.2497  0.4323
   40CHL1  H18A 2914   2.991   0.129   7.760 -0.2365  0.0463  0.4714
   40CHL1  H18B 2915   3.104   0.097   7.618  2.1577  1.7171 -0.5178
   40CHL1  H18C 2916   3.170   0.156   7.779  0.5305  2.3836 -0.1730
   40CHL1   C12 2917   2.932   0.336   7.613  0.1914  0.5032 -0.2524
   40CHL1  H12A 2918   2.851   0.307   7.684  0.8034  1.1006  0.7129
   40CHL1  H12B 2919   2.914   0.446   7.604  0.7657  0.5777 -0.5232
   40CHL1   C11 2920   2.922   0.281   7.475  0.1274  0.4202 -0.0942
   40CHL1  H11A 2921   2.902   0.171   7.475 -3.2424  0.9385  0.5651
   40CHL1  H11B 2922   2.836   0.334   7.430 -0.2993 -0.8843 -0.8850
   40CHL1    C9 2923   3.046   0.305   7.384 -0.2574  0.0775 -0.7086
   40CHL1    H9 2924   3.043   0.407   7.340  0.2161 -0.2684 -1.5627
   40CHL1   C10 2925   3.048   0.218   7.257  0.1697  0.1323  0.3435
   40CHL1   C19 2926   3.076   0.064   7.290 -0.1854 -0.3482 -0.0234
   40CHL1  H19A 2927   3.176   0.042   7.332 -0.6878 -0.2169  1.2691
   40CHL1  H19B 2928   3.012   0.029   7.374  0.4778  0.0073  0.6407
   40CHL1  H19C 2929   3.051   0.005   7.199 -0.3121  0.3800 -0.4741
   40CHL1    C1 2930   2.909   0.230   7.194 -0.3477  0.1901 -1.1087
   40CHL1   H1A 2931   2.835   0.173   7.253 -0.2069 -1.4064 -2.4075
   40CHL1   H1B 2932   2.880   0.337   7.198  0.9934  0.5333 -0.0271
   40CHL1    C2 2933   2.897   0.177   7.045 -0.0228  0.1999  0.4472
   40CHL1   H2A 2934   2.791   0.197   7.017 -1.1460 -2.2098  2.5482
   40CHL1   H2B 2935   2.909   0.066   7.046  0.7007  0.1900 -2.3383
   40CHL1   C20 2936   3.050   0.368   7.939  0.2423  0.2472  0.5789
   40CHL1   H20 2937   3.065   0.262   7.970 -0.9553 -0.3008 -0.6134
   40CHL1   C21 2938   2.891   0.380   7.935 -0.2501 -0.5290 -0.4073
   40CHL1  H21A 2939   2.846   0.456   7.868  0.3753 -0.8123 -1.1715
   40CHL1  H21B 2940   2.847   0.381   8.037  0.6629 -1.0528  0.0098
   40CHL1  H21C 2941   2.860   0.284   7.889  3.3057 -1.0621 -2.0524
   40CHL1   C22 2942   3.117   0.466   8.043 -0.1010  0.4664  0.4481
   40CHL1  H22A 2943   3.228   0.468   8.036 -0.0269  1.5047  1.6075
   40CHL1  H22B 2944   3.079   0.569   8.025 -1.2858  0.1687  1.1437
   40CHL1   C23 2945   3.081   0.447   8.195  0.4620  0.2221  0.7293
   40CHL1  H23A 2946   2.970   0.450   8.191  0.3310 -1.0330  2.4359
   40CHL1  H23B 2947   3.113   0.345   8.223 -2.8712 -1.7870 -2.0537
   40CHL1   C24 2948   3.143   0.556   8.286 -0.7144 -0.0845  0.4263
   40CHL1  H24A 2949   3.253   0.541   8.283 -0.8618 -1.6103  1.2623
   40CHL1  H24B 2950   3.120   0.654   8.240 -3.2571  0.1798  2.0516
   40CHL1   C25 2951   3.104   0.562   8.433  0.3971 -0.3220  1.0387
   40CHL1   H25 2952   3.110   0.459   8.474  1.9466  0.4177  2.8089
   40CHL1   C26 2953   3.203   0.639   8.522  0.0008 -0.0249 -0.4598
   40CHL1  H26A 2954   3.214   0.740   8.476  1.0389 -1.4068 -3.5127
   40CHL1  H26B 2955   3.162   0.634   8.625 -1.6511  0.7274 -1.0453
   40CHL1  H26C 2956   3.305   0.596   8.517  0.0697  0.2297 -1.7144
   40CHL1   C27 2957   2.960   0.618   8.461 -0.0405 -0.4901 -0.2935
   40CHL1  H27A 2958   2.872   0.564   8.418 -2.8611  1.4322  2.6150
   40CHL1  H27B 2959   2.943   0.622   8.570  2.1134 -2.6451  0.2205
   40CHL1  H27C 2960   2.962   0.722   8.423  1.2165  0.6300  2.5806
   41CHL1    C3 2961   4.167   0.992   6.855  0.7643  1.2381  0.7414
   41CHL1    H3 2962   4.274   0.976   6.827  0.5918 -1.2086  1.2871
   41CHL1    O3 2963   4.098   0.994   6.732 -0.1121  0.5759  0.5006
   41CHL1   H3' 2964   4.007   0.969   6.753  0.2551 -1.3676  0.0013
   41CHL1    C4 2965   4.117   0.875   6.947 -0.4959  0.2388 -0.0835
   41CHL1   H4A 2966   4.006   0.872   6.946 -0.4849 -0.7099  0.6358
   41CHL1   H4B 2967   4.141   0.780   6.894  1.2272  1.9376 -2.5521
   41CHL1    C5 2968   4.167   0.873   7.086 -0.1150 -0.5355 -0.4355
   41CHL1    C6 2969   4.228   0.762   7.136 -0.2713 -0.7435 -0.4080
   41CHL1    H6 2970   4.230   0.667   7.080 -2.4038 -0.6916 -0.6604
   41CHL1    C7 2971   4.270   0.755   7.274  0.4143  0.5299 -0.6606
   41CHL1   H7A 2972   4.235   0.658   7.314 -1.2715  1.8178  1.1047
   41CHL1   H7B 2973   4.379   0.772   7.292  0.0906  0.9660  0.9917
   41CHL1    C8 2974   4.201   0.869   7.356  0.0867  0.6596  0.8457
   41CHL1    H8 2975   4.091   0.850   7.364 -0.4905  3.0693 -0.4049
   41CHL1   C14 2976   4.260   0.877   7.491 -0.4126  0.6554  0.4496
   41CHL1   H14 2977   4.370   0.892   7.480 -0.1162 -1.5792 -0.1488
   41CHL1   C15 2978   4.265   0.748   7.571 -0.3423 -0.0976  0.1953
   41CHL1  H15A 2979   4.163   0.704   7.572 -1.7584  2.9023 -0.8329
   41CHL1  H15B 2980   4.346   0.681   7.532  0.9404  2.1325 -1.1867
   41CHL1   C16 2981   4.297   0.785   7.718  0.1727 -0.4826  0.4545
   41CHL1  H16A 2982   4.223   0.736   7.783  0.3029 -0.2501  0.7795
   41CHL1  H16B 2983   4.404   0.761   7.739  0.7895 -0.4011 -2.1646
   41CHL1   C17 2984   4.276   0.940   7.726 -0.1266  0.3726 -0.3462
   41CHL1   H17 2985   4.380   0.980   7.728 -0.0077  0.0695  1.4520
   41CHL1   C13 2986   4.210   0.983   7.590 -0.4913 -0.1902  0.2484
   41CHL1   C18 2987   4.057   0.967   7.595  0.8448  0.5669 -0.2682
   41CHL1  H18A 2988   4.020   0.866   7.623 -0.0037  1.2365  1.1347
   41CHL1  H18B 2989   4.004   1.034   7.666 -0.1129 -0.2268 -0.2113
   41CHL1  H18C 2990   4.011   0.988   7.496  0.9915  0.2627 -0.4017
   41CHL1   C12 2991   4.253   1.115   7.533  0.2143 -0.7062 -0.3487
   41CHL1  H12A 2992   4.213   1.199   7.593  1.6068 -0.0435 -0.3016
   41CHL1  H12B 2993   4.364   1.120   7.534  0.3689 -2.8838  1.6688
   41CHL1   C11 2994   4.213   1.129   7.383  0.3916 -0.1169  0.3823
   41CHL1  H11A 2995   4.108   1.162   7.400  0.7957  1.2518  0.3478
   41CHL1  H11B 2996   4.270   1.210   7.332  1.3642 -0.5064  0.8342
   41CHL1    C9 2997   4.224   1.005   7.290 -0.0232 -0.4833  0.3052
   41CHL1    H9 2998   4.332   1.003   7.264 -0.6995  1.2673 -3.4501
   41CHL1   C10 2999   4.148   1.013   7.156  0.5411 -0.0030 -0.4366
   41CHL1   C19 3000   3.997   1.041   7.173 -0.3000  0.2288  0.2010
   41CHL1  H19A 3001   3.994   1.146   7.209  0.5939  0.3572 -0.0715
   41CHL1  H19B 3002   3.932   1.042   7.082 -1.1371  0.3108  0.7891
   41CHL1  H19C 3003   3.957   0.968   7.247 -0.9396  0.7972  0.4278
   41CHL1    C1 3004   4.203   1.124   7.061  0.2268 -0.0419  0.2667
   41CHL1   H1A 3005   4.177   1.220   7.109 -0.0785 -0.6219  1.2839
   41CHL1   H1B 3006   4.313   1.122   7.055  0.3847 -1.4573  2.5646
   41CHL1    C2 3007   4.138   1.126   6.919  0.6779  0.2222  0.2369
   41CHL1   H2A 3008   4.180   1.207   6.857  0.8143  0.5264  0.7202
   41CHL1   H2B 3009   4.031   1.153   6.928  0.7490  0.6631 -0.2692
   41CHL1   C20 3010   4.215   0.997   7.858  0.2740  0.1169  0.0411
   41CHL1   H20 3011   4.104   0.990   7.845  0.1596  0.5873  0.7457
   41CHL1   C21 3012   4.260   1.142   7.886  0.0075  0.1619 -0.1107
   41CHL1  H21A 3013   4.366   1.139   7.919  0.0325  1.5575  0.0054
   41CHL1  H21B 3014   4.200   1.197   7.961 -1.1973  0.6224 -1.3675
   41CHL1  H21C 3015   4.253   1.208   7.797 -1.6124  1.5734  1.0075
   41CHL1   C22 3016   4.236   0.920   7.990  0.7632  0.5276  0.8040
   41CHL1  H22A 3017   4.230   0.811   7.971 -0.6816  0.8652 -1.0108
   41CHL1  H22B 3018   4.336   0.943   8.033  0.7319  0.3196  0.9826
   41CHL1   C23 3019   4.138   0.953   8.104 -0.5203  0.2509 -0.1847
   41CHL1  H23A 3020   4.153   1.054   8.148 -0.5529  1.0314 -1.8883
   41CHL1  H23B 3021   4.035   0.933   8.069  0.2103 -2.4481 -1.0944
   41CHL1   C24 3022   4.172   0.855   8.220 -0.1612 -0.5614  0.1983
   41CHL1  H24A 3023   4.202   0.751   8.194  3.9968  0.1607  1.2810
   41CHL1  H24B 3024   4.265   0.883   8.274 -0.6914 -0.7244  1.2224
   41CHL1   C25 3025   4.055   0.857   8.326 -0.2076  0.0265 -0.1542
   41CHL1   H25 3026   3.976   0.792   8.284 -2.4694 -0.2802  4.0043
   41CHL1   C26 3027   4.096   0.788   8.459 -0.1623  0.2906  0.1419
   41CHL1  H26A 3028   4.205   0.807   8.464  0.3366 -2.0557 -0.2472
   41CHL1  H26B 3029   4.053   0.832   8.551 -1.0919 -1.9225  0.8309
   41CHL1  H26C 3030   4.069   0.680   8.463  0.1188  0.1979 -0.3759
   41CHL1   C27 3031   3.998   1.001   8.353  0.1118 -0.3258 -0.0476
   41CHL1  H27A 3032   3.972   1.066   8.267 -1.1557  0.6316  1.0037
   41CHL1  H27B 3033   3.904   0.995   8.413 -0.0487  3.0919  0.2439
   41CHL1  H27C 3034   4.075   1.055   8.412 -0.7133  0.7368  0.0963
   42CHL1    C3 3035   0.404   2.922   6.978  0.0517  0.1353 -1.1655
   42CHL1    H3 3036   0.330   2.885   7.052  0.7614  1.8774  0.5019
   42CHL1    O3 3037   0.359   2.975   6.856 -0.5894 -0.1660 -0.4227
   42CHL1   H3' 3038   0.438   3.007   6.813 -0.2342 -0.8276 -0.2798
   42CHL1    C4 3039   0.487   3.036   7.055 -0.3077  0.8691  0.4985
   42CHL1   H4A 3040   0.574   3.075   6.998 -0.0076 -0.9018 -0.3403
   42CHL1   H4B 3041   0.413   3.119   7.064 -1.0347  0.2326  0.5357
   42CHL1    C5 3042   0.541   2.978   7.179  0.5724  0.9107 -0.4250
   42CHL1    C6 3043   0.501   3.029   7.299 -0.3077 -1.0863 -0.0917
   42CHL1    H6 3044   0.426   3.109   7.290  0.5146 -0.3281 -0.3588
   42CHL1    C7 3045   0.540   2.975   7.431 -1.0676  0.2847  0.0145
   42CHL1   H7A 3046   0.567   3.062   7.495 -1.1087  1.2432 -1.2431
   42CHL1   H7B 3047   0.454   2.922   7.477 -0.1770 -0.3406  1.0256
   42CHL1    C8 3048   0.662   2.879   7.416  0.5557 -0.3026 -0.4031
   42CHL1    H8 3049   0.749   2.945   7.397  0.0042  0.5956  0.0718
   42CHL1   C14 3050   0.680   2.808   7.547  0.0528 -0.0527  0.0060
   42CHL1   H14 3051   0.595   2.742   7.575 -0.3677  0.7013  0.5725
   42CHL1   C15 3052   0.686   2.887   7.683  0.3197 -0.2447 -0.4842
   42CHL1  H15A 3053   0.757   2.972   7.676  1.3047 -0.8949  0.9896
   42CHL1  H15B 3054   0.587   2.925   7.714  0.4813  3.1940 -3.5202
   42CHL1   C16 3055   0.751   2.789   7.783  0.0277  0.6196  0.6936
   42CHL1  H16A 3056   0.843   2.834   7.826  0.6786  1.2065 -1.2349
   42CHL1  H16B 3057   0.674   2.750   7.854 -0.6155 -1.4182 -1.0217
   42CHL1   C17 3058   0.789   2.658   7.699  0.5260 -0.6626  0.5091
   42CHL1   H17 3059   0.692   2.605   7.694  0.2541 -0.0993 -0.2910
   42CHL1   C13 3060   0.801   2.709   7.556 -0.3163  0.1011 -0.2913
   42CHL1   C18 3061   0.935   2.782   7.528 -0.6314 -0.1778 -0.8732
   42CHL1  H18A 3062   0.967   2.852   7.609 -0.6197  1.3199 -2.1309
   42CHL1  H18B 3063   1.018   2.708   7.536 -0.3311  0.2775  0.6906
   42CHL1  H18C 3064   0.933   2.839   7.433 -0.7040  0.7873 -0.3095
   42CHL1   C12 3065   0.779   2.605   7.440  0.5959 -0.0783  0.0395
   42CHL1  H12A 3066   0.856   2.525   7.439  0.5677 -0.1050 -0.5839
   42CHL1  H12B 3067   0.681   2.559   7.465 -0.4058 -0.4207 -3.8161
   42CHL1   C11 3068   0.771   2.676   7.298  0.4529 -0.0525  0.2049
   42CHL1  H11A 3069   0.865   2.734   7.283  0.5151  0.4920  2.3202
   42CHL1  H11B 3070   0.760   2.593   7.225  1.2769  1.6814 -1.9775
   42CHL1    C9 3071   0.651   2.777   7.301 -0.1705 -0.6889 -0.6348
   42CHL1    H9 3072   0.558   2.720   7.318 -1.0492 -0.4109 -3.8477
   42CHL1   C10 3073   0.637   2.850   7.160  0.3372 -0.5358 -0.5004
   42CHL1   C19 3074   0.769   2.878   7.094 -0.2302 -0.1788  0.0748
   42CHL1  H19A 3075   0.822   2.964   7.140 -1.7545  1.1552 -0.6018
   42CHL1  H19B 3076   0.839   2.793   7.078  3.1217  2.3429  0.1211
   42CHL1  H19C 3077   0.749   2.911   6.990 -0.3426 -2.3019 -0.6241
   42CHL1    C1 3078   0.571   2.747   7.063  0.7258  0.4954 -0.3529
   42CHL1   H1A 3079   0.637   2.666   7.025  0.5542 -0.1484  0.6997
   42CHL1   H1B 3080   0.487   2.698   7.116  0.7157  0.7924 -0.0887
   42CHL1    C2 3081   0.505   2.810   6.942  0.7524 -0.3858 -0.5663
   42CHL1   H2A 3082   0.454   2.727   6.890  2.4870 -2.0847  0.2925
   42CHL1   H2B 3083   0.583   2.855   6.876 -0.0823  0.8055 -0.7660
   42CHL1   C20 3084   0.896   2.566   7.767  0.1808  0.6581 -0.3336
   42CHL1   H20 3085   0.994   2.618   7.759  1.1843 -1.4369 -2.7795
   42CHL1   C21 3086   0.915   2.427   7.697 -0.0126 -0.5584 -0.5045
   42CHL1  H21A 3087   0.822   2.378   7.660  0.1152 -0.4850 -0.9255
   42CHL1  H21B 3088   0.961   2.355   7.768  2.5674  1.1843 -0.2599
   42CHL1  H21C 3089   0.988   2.436   7.614 -0.0308  0.7560 -0.4056
   42CHL1   C22 3090   0.877   2.545   7.916  0.0632 -0.3024 -0.5993
   42CHL1  H22A 3091   0.963   2.487   7.954 -0.1990  0.2900  0.9720
   42CHL1  H22B 3092   0.868   2.643   7.969 -2.6572 -0.7535 -0.0545
   42CHL1   C23 3093   0.746   2.476   7.949  0.7687  0.2036  0.5315
   42CHL1  H23A 3094   0.662   2.538   7.911 -0.7052 -2.4256 -0.7937
   42CHL1  H23B 3095   0.730   2.384   7.889  0.7150  0.9347 -0.6029
   42CHL1   C24 3096   0.715   2.436   8.094  0.3807  0.2071 -0.7639
   42CHL1  H24A 3097   0.619   2.381   8.104  1.1989 -0.8193  2.4794
   42CHL1  H24B 3098   0.797   2.368   8.124 -1.2364 -0.9105  1.4191
   42CHL1   C25 3099   0.736   2.554   8.196 -0.7970 -0.2230  0.5338
   42CHL1   H25 3100   0.839   2.594   8.185 -0.9833  0.1381  0.0552
   42CHL1   C26 3101   0.636   2.662   8.159 -0.2153  0.2110  0.6418
   42CHL1  H26A 3102   0.529   2.630   8.156 -0.4146  0.9066 -0.3379
   42CHL1  H26B 3103   0.633   2.748   8.230 -2.1153 -0.2185  1.1334
   42CHL1  H26C 3104   0.653   2.703   8.057  2.0278 -1.0317  0.4625
   42CHL1   C27 3105   0.705   2.505   8.337 -0.1304  0.2343  0.2071
   42CHL1  H27A 3106   0.698   2.593   8.404 -0.5118  1.7920 -1.7803
   42CHL1  H27B 3107   0.780   2.430   8.372  0.4086  0.4333 -0.4870
   42CHL1  H27C 3108   0.615   2.439   8.340 -0.0269  0.1304  1.7345
   43CHL1    C3 3109   5.383   0.834   6.860 -0.3384  0.5172  0.7643
   43CHL1    H3 3110   5.490   0.820   6.887 -0.6753 -0.4922  1.6873
   43CHL1    O3 3111   5.371   0.890   6.734 -0.0385 -0.0055 -0.4649
   43CHL1   H3' 3112   5.276   0.905   6.724  0.1670  1.3004 -0.6975
   43CHL1    C4 3113   5.304   0.701   6.857 -0.6748 -0.6250 -0.1572
   43CHL1   H4A 3114   5.201   0.736   6.835 -0.6669  0.2551  1.0580
   43CHL1   H4B 3115   5.319   0.630   6.773 -3.1366 -1.3402 -0.0701
   43CHL1    C5 3116   5.303   0.646   6.995 -0.5833 -0.2670 -0.5676
   43CHL1    C6 3117   5.351   0.522   7.012  0.0387 -0.4015  0.8089
   43CHL1    H6 3118   5.388   0.464   6.925  1.0745  2.6551 -0.9489
   43CHL1    C7 3119   5.340   0.445   7.139  0.3426  0.7850 -0.2555
   43CHL1   H7A 3120   5.294   0.347   7.117  1.7750  0.2313 -0.9215
   43CHL1   H7B 3121   5.445   0.419   7.163  0.3722 -0.0660 -1.2593
   43CHL1    C8 3122   5.256   0.520   7.251  0.6885  0.2695  0.0877
   43CHL1    H8 3123   5.151   0.491   7.225  0.6598 -0.5391  1.0522
   43CHL1   C14 3124   5.300   0.460   7.383  0.4332 -0.1672 -0.4029
   43CHL1   H14 3125   5.405   0.498   7.389 -1.2229  4.9846  0.7745
   43CHL1   C15 3126   5.292   0.306   7.391 -0.4255 -0.2117 -0.2251
   43CHL1  H15A 3127   5.193   0.266   7.360 -0.4127 -1.3861  1.1297
   43CHL1  H15B 3128   5.369   0.250   7.334  1.8328  2.0264  0.4464
   43CHL1   C16 3129   5.309   0.285   7.539  0.3852  0.2311  0.4671
   43CHL1  H16A 3130   5.220   0.230   7.574 -0.8183  2.4269  1.0337
   43CHL1  H16B 3131   5.401   0.226   7.560  1.5502  1.9258  0.3173
   43CHL1   C17 3132   5.304   0.427   7.605  0.1991 -0.4368 -0.1302
   43CHL1   H17 3133   5.407   0.469   7.611  0.4795 -1.0969 -0.2005
   43CHL1   C13 3134   5.233   0.513   7.504 -0.1185  0.0018 -0.5385
   43CHL1   C18 3135   5.082   0.488   7.503 -0.6166  0.1718  0.0926
   43CHL1  H18A 3136   5.036   0.553   7.425 -0.3461  0.7839  0.4396
   43CHL1  H18B 3137   5.043   0.384   7.494 -1.1743  0.3226  0.6467
   43CHL1  H18C 3138   5.047   0.523   7.602 -0.5195 -0.4802  0.3599
   43CHL1   C12 3139   5.257   0.664   7.504 -0.3358  0.7927  0.2600
   43CHL1  H12A 3140   5.190   0.710   7.580 -0.8843  1.8534 -0.8314
   43CHL1  H12B 3141   5.364   0.685   7.529 -0.6707  0.3269  2.2656
   43CHL1   C11 3142   5.229   0.736   7.374 -0.3387 -0.0777 -0.2902
   43CHL1  H11A 3143   5.118   0.746   7.374 -0.1938  3.1666  1.7324
   43CHL1  H11B 3144   5.258   0.843   7.382  0.9858 -0.4887  0.6364
   43CHL1    C9 3145   5.288   0.669   7.249  0.2446 -0.1337  0.3323
   43CHL1    H9 3146   5.398   0.676   7.263  0.1871  0.1979  0.6399
   43CHL1   C10 3147   5.243   0.734   7.113  0.0679 -0.0073  0.0982
   43CHL1   C19 3148   5.090   0.753   7.097 -0.1061  0.2020 -0.0312
   43CHL1  H19A 3149   5.027   0.662   7.097 -1.3079  1.0146  0.5408
   43CHL1  H19B 3150   5.054   0.819   7.178  2.1679  1.7337 -0.1507
   43CHL1  H19C 3151   5.068   0.808   7.003 -1.7622  1.1897  0.8941
   43CHL1    C1 3152   5.325   0.870   7.109 -0.0580 -0.2048 -0.1861
   43CHL1   H1A 3153   5.271   0.945   7.172 -0.5528  0.4864 -1.3907
   43CHL1   H1B 3154   5.426   0.852   7.150 -0.6230 -0.9420  0.9396
   43CHL1    C2 3155   5.338   0.932   6.968  0.6132 -0.1960 -0.0673
   43CHL1   H2A 3156   5.406   1.021   6.967 -1.4791  1.4815 -1.1240
   43CHL1   H2B 3157   5.239   0.977   6.949  0.6378 -0.1934 -0.1888
   43CHL1   C20 3158   5.255   0.425   7.749  0.3766  0.0786 -0.4247
   43CHL1   H20 3159   5.146   0.404   7.745  0.3229  0.2739 -0.0080
   43CHL1   C21 3160   5.281   0.556   7.816 -0.1092  0.3121  0.1644
   43CHL1  H21A 3161   5.231   0.555   7.915  1.9777  0.0158  1.2719
   43CHL1  H21B 3162   5.239   0.637   7.752  0.7842  1.0202  0.4432
   43CHL1  H21C 3163   5.391   0.566   7.829  0.0247 -1.8739  1.1049
   43CHL1   C22 3164   5.316   0.311   7.838 -0.7937 -0.1576  0.6463
   43CHL1  H22A 3165   5.300   0.215   7.784  2.1237 -1.4788  1.8842
   43CHL1  H22B 3166   5.427   0.314   7.838 -0.7463  3.9036 -0.2117
   43CHL1   C23 3167   5.259   0.292   7.978  0.3115  0.7323 -0.4033
   43CHL1  H23A 3168   5.321   0.216   8.030 -2.4489 -1.0391  0.4935
   43CHL1  H23B 3169   5.264   0.382   8.043 -1.1062 -0.2773  1.1732
   43CHL1   C24 3170   5.113   0.241   7.990  0.0507 -0.8843  0.2708
   43CHL1  H24A 3171   5.044   0.321   7.956  0.4818 -1.9343 -3.6051
   43CHL1  H24B 3172   5.100   0.150   7.927  0.4962 -0.6714 -0.1345
   43CHL1   C25 3173   5.067   0.207   8.132  0.1499 -0.1902  0.2118
   43CHL1   H25 3174   5.083   0.297   8.196 -0.1052 -0.3235  0.4643
   43CHL1   C26 3175   4.919   0.174   8.126  0.7948  0.1542 -0.1137
   43CHL1  H26A 3176   4.902   0.089   8.056 -0.1549  0.7532 -0.6245
   43CHL1  H26B 3177   4.876   0.131   8.219 -0.3519  2.4536  0.4624
   43CHL1  H26C 3178   4.855   0.260   8.099 -1.1111 -1.4652 -1.0387
   43CHL1   C27 3179   5.137   0.089   8.194 -0.1428  0.3095 -0.1440
   43CHL1  H27A 3180   5.079   0.042   8.277  0.2210 -1.9182 -1.0778
   43CHL1  H27B 3181   5.171   0.014   8.119  2.7933 -1.3450  2.5811
   43CHL1  H27C 3182   5.232   0.132   8.232  0.7703 -0.4734 -1.4583
   44CHL1    C3 3183   5.362   6.440   6.774  0.2528 -0.4898  0.2977
   44CHL1    H3 3184   5.424   6.526   6.805 -0.7703  0.4786 -0.2518
   44CHL1    O3 3185   5.325   6.441   6.637 -0.4809 -0.0287  0.0142
   44CHL1   H3' 3186   5.257   6.373   6.636 -2.0345  1.3882  1.3386
   44CHL1    C4 3187   5.427   6.302   6.807  0.2924 -0.3567 -0.2764
   44CHL1   H4A 3188   5.366   6.220   6.763 -0.0551  0.4139 -1.2577
   44CHL1   H4B 3189   5.520   6.300   6.746 -0.8156 -2.6392 -2.0258
   44CHL1    C5 3190   5.453   6.287   6.960 -0.1050  1.0572  0.5040
   44CHL1    C6 3191   5.574   6.252   7.002 -0.0699 -0.3308 -0.8209
   44CHL1    H6 3192   5.659   6.241   6.934 -0.4222 -0.4535 -1.2422
   44CHL1    C7 3193   5.609   6.232   7.144 -0.1322 -0.5460 -0.1257
   44CHL1   H7A 3194   5.677   6.146   7.158 -0.4054 -0.5343  1.4760
   44CHL1   H7B 3195   5.670   6.318   7.181  1.2354 -1.5697  0.0525
   44CHL1    C8 3196   5.485   6.224   7.242 -0.6969  0.0123  0.1865
   44CHL1    H8 3197   5.441   6.123   7.234 -2.5731  0.8226 -0.4361
   44CHL1   C14 3198   5.537   6.251   7.388  0.2654  0.4710  0.2004
   44CHL1   H14 3199   5.569   6.357   7.386  0.9456  0.2638 -0.3546
   44CHL1   C15 3200   5.658   6.173   7.439  0.2847  0.4229 -0.5332
   44CHL1  H15A 3201   5.674   6.067   7.409 -2.6882 -0.9272  2.0774
   44CHL1  H15B 3202   5.745   6.231   7.402 -0.9140  1.1852 -2.3418
   44CHL1   C16 3203   5.632   6.178   7.593  0.1805 -0.0174 -0.1339
   44CHL1  H16A 3204   5.611   6.074   7.625 -0.8403  0.2023 -0.0352
   44CHL1  H16B 3205   5.721   6.219   7.645 -0.6672  0.5898  0.8928
   44CHL1   C17 3206   5.501   6.267   7.622  0.4092  0.3124  0.1839
   44CHL1   H17 3207   5.534   6.373   7.622  0.3250  0.3646 -1.1226
   44CHL1   C13 3208   5.425   6.246   7.496 -0.1480  0.3863  0.2293
   44CHL1   C18 3209   5.361   6.103   7.500 -0.5883  0.0464  0.0920
   44CHL1  H18A 3210   5.310   6.073   7.406  1.9717  0.7453 -1.6259
   44CHL1  H18B 3211   5.429   6.020   7.527 -0.0882  0.0014 -1.2102
   44CHL1  H18C 3212   5.283   6.102   7.579 -1.3601 -0.1812 -0.6544
   44CHL1   C12 3213   5.312   6.347   7.458 -0.2861 -0.6419  0.1923
   44CHL1  H12A 3214   5.224   6.366   7.523  0.2176 -2.0429  1.3422
   44CHL1  H12B 3215   5.363   6.446   7.456 -3.2083  1.1050  2.7172
   44CHL1   C11 3216   5.265   6.333   7.307 -0.3519  0.6453 -0.4939
   44CHL1  H11A 3217   5.202   6.243   7.295  3.0854 -2.0642 -0.0129
   44CHL1  H11B 3218   5.202   6.419   7.277 -0.8936  0.0826 -0.9749
   44CHL1    C9 3219   5.378   6.319   7.200 -0.3931  0.0280  0.8551
   44CHL1    H9 3220   5.436   6.414   7.203  0.4597 -0.3133 -1.8675
   44CHL1   C10 3221   5.334   6.314   7.045 -0.7343 -0.3918 -0.3776
   44CHL1   C19 3222   5.247   6.195   7.035 -0.1795 -0.2215  0.0711
   44CHL1  H19A 3223   5.291   6.101   7.075 -2.8459 -0.6643  2.3322
   44CHL1  H19B 3224   5.143   6.203   7.074 -0.9064 -0.4559 -1.7341
   44CHL1  H19C 3225   5.230   6.172   6.928 -0.5106  3.6542 -0.8574
   44CHL1    C1 3226   5.252   6.441   7.005 -0.4541  0.7851 -0.4049
   44CHL1   H1A 3227   5.162   6.437   7.070 -0.4103 -2.3202 -0.3655
   44CHL1   H1B 3228   5.318   6.528   7.022 -0.8120  1.4803 -2.3689
   44CHL1    C2 3229   5.229   6.454   6.855 -0.9844 -0.5162  0.3673
   44CHL1   H2A 3230   5.179   6.552   6.836  2.7201  1.6145  0.7425
   44CHL1   H2B 3231   5.157   6.377   6.819 -1.8082  0.3834  0.0444
   44CHL1   C20 3232   5.450   6.234   7.760 -0.1919  0.4647  0.1215
   44CHL1   H20 3233   5.393   6.139   7.754  1.2042 -0.3663 -0.8073
   44CHL1   C21 3234   5.360   6.349   7.809  0.8077  0.2462 -0.0891
   44CHL1  H21A 3235   5.288   6.383   7.731 -0.7465 -0.7606  0.8537
   44CHL1  H21B 3236   5.414   6.439   7.848  2.6807 -1.5232  1.6349
   44CHL1  H21C 3237   5.294   6.313   7.891  2.1867 -1.1254  0.4633
   44CHL1   C22 3238   5.558   6.200   7.866 -0.2511  0.2074 -0.3329
   44CHL1  H22A 3239   5.610   6.104   7.846  3.2489  1.7879  0.4932
   44CHL1  H22B 3240   5.631   6.283   7.871  0.9003 -0.8473  1.5149
   44CHL1   C23 3241   5.512   6.182   8.014 -0.5644  0.0691  0.0869
   44CHL1  H23A 3242   5.597   6.150   8.077 -1.8085 -0.7477  1.4262
   44CHL1  H23B 3243   5.470   6.278   8.052 -0.6228 -0.5486  1.6645
   44CHL1   C24 3244   5.408   6.076   8.021 -0.1679 -0.0661  0.2697
   44CHL1  H24A 3245   5.310   6.112   7.982 -0.6131 -0.1885  1.2440
   44CHL1  H24B 3246   5.444   5.997   7.953 -0.2259  1.2261 -1.3239
   44CHL1   C25 3247   5.379   6.010   8.157 -0.2655  0.1082  0.7716
   44CHL1   H25 3248   5.482   5.976   8.184 -0.8739 -2.0494  0.5988
   44CHL1   C26 3249   5.318   6.102   8.264  0.0612 -0.0603  0.0972
   44CHL1  H26A 3250   5.234   6.163   8.224 -0.3906 -0.0619  1.0219
   44CHL1  H26B 3251   5.281   6.050   8.355  0.8375  1.5010  1.3629
   44CHL1  H26C 3252   5.395   6.175   8.297 -0.4228  0.4814  0.0637
   44CHL1   C27 3253   5.296   5.878   8.140 -0.5058 -0.4281  0.2221
   44CHL1  H27A 3254   5.353   5.799   8.086  0.8073  0.5981  0.0552
   44CHL1  H27B 3255   5.251   5.832   8.230  1.0367 -1.1156  0.6835
   44CHL1  H27C 3256   5.208   5.898   8.075 -1.0055 -0.7973  0.7842
   45CHL1    C3 3257   6.199   4.304   6.561  0.5360  0.7511 -0.1072
   45CHL1    H3 3258   6.301   4.339   6.536  1.6253 -1.3965  1.0532
   45CHL1    O3 3259   6.102   4.339   6.454 -0.7301  0.0780 -0.2224
   45CHL1   H3' 3260   6.017   4.307   6.486  0.4183 -0.5710  2.4824
   45CHL1    C4 3261   6.205   4.153   6.574  0.2198  0.6775  0.3295
   45CHL1   H4A 3262   6.100   4.118   6.584 -0.1434  1.7929  0.6141
   45CHL1   H4B 3263   6.247   4.116   6.478 -1.3365 -0.6810  0.1273
   45CHL1    C5 3264   6.283   4.098   6.695 -0.1508 -0.3348 -0.4823
   45CHL1    C6 3265   6.379   4.004   6.684 -0.5238  0.5052  0.1835
   45CHL1    H6 3266   6.401   3.970   6.582  1.0588  2.1769 -0.0780
   45CHL1    C7 3267   6.442   3.949   6.811 -0.1233  0.3774  1.0129
   45CHL1   H7A 3268   6.454   3.839   6.800 -1.6333  0.1819  1.0710
   45CHL1   H7B 3269   6.540   3.999   6.825  0.7756 -1.2836  0.9064
   45CHL1    C8 3270   6.368   3.979   6.937  0.0366  0.9062 -0.4613
   45CHL1    H8 3271   6.277   3.916   6.931  2.2815 -2.7457  0.6130
   45CHL1   C14 3272   6.443   3.933   7.063 -0.4508  0.0147  0.4525
   45CHL1   H14 3273   6.541   3.982   7.048 -0.2632 -0.5393 -0.2045
   45CHL1   C15 3274   6.478   3.788   7.063 -0.1627 -0.6362 -0.1467
   45CHL1  H15A 3275   6.389   3.728   7.033 -1.2922  1.9299 -2.3101
   45CHL1  H15B 3276   6.568   3.774   7.001 -2.2429  0.1758 -3.6163
   45CHL1   C16 3277   6.496   3.761   7.210  0.2602 -0.9668 -0.1016
   45CHL1  H16A 3278   6.418   3.688   7.241 -0.5565 -0.1990 -0.2946
   45CHL1  H16B 3279   6.597   3.723   7.237 -0.2759 -0.9294  2.1988
   45CHL1   C17 3280   6.468   3.896   7.289  0.0900 -0.2213  0.3911
   45CHL1   H17 3281   6.568   3.945   7.283 -1.2084  2.4148 -3.7670
   45CHL1   C13 3282   6.378   3.973   7.195  0.1023 -0.1533  0.4844
   45CHL1   C18 3283   6.232   3.914   7.205 -0.7330  0.3042 -0.7615
   45CHL1  H18A 3284   6.235   3.809   7.169 -0.5213 -0.2252  0.7237
   45CHL1  H18B 3285   6.194   3.922   7.309 -0.3535  0.3637 -0.6259
   45CHL1  H18C 3286   6.167   3.967   7.132 -1.5600  0.9580  0.4279
   45CHL1   C12 3287   6.381   4.123   7.206  0.2158 -0.7551 -1.1741
   45CHL1  H12A 3288   6.329   4.154   7.300 -1.3399 -3.1438 -1.1476
   45CHL1  H12B 3289   6.484   4.162   7.199 -0.4346  1.3210  0.0895
   45CHL1   C11 3290   6.302   4.192   7.089 -0.3804 -0.1635  0.0654
   45CHL1  H11A 3291   6.194   4.183   7.114 -0.6884 -0.2397 -1.2352
   45CHL1  H11B 3292   6.329   4.299   7.082  1.8643 -0.5623  1.3832
   45CHL1    C9 3293   6.336   4.131   6.944 -0.7716 -0.3624 -0.2984
   45CHL1    H9 3294   6.433   4.184   6.930 -2.0213  2.3660  0.5559
   45CHL1   C10 3295   6.243   4.167   6.827  0.1277  0.1573  0.3456
   45CHL1   C19 3296   6.100   4.117   6.868  0.2891 -0.0528  0.5819
   45CHL1  H19A 3297   6.047   4.176   6.946  0.6950  1.0253  0.0650
   45CHL1  H19B 3298   6.035   4.109   6.779 -2.3996  0.1134  2.4233
   45CHL1  H19C 3299   6.107   4.017   6.916  0.0854 -0.3380  0.0220
   45CHL1    C1 3300   6.245   4.316   6.808 -0.1559  0.7047 -0.2350
   45CHL1   H1A 3301   6.210   4.356   6.906  0.7666 -1.3522  1.0158
   45CHL1   H1B 3302   6.349   4.356   6.804  0.0347  0.2269 -0.1359
   45CHL1    C2 3303   6.150   4.367   6.695  0.3305 -0.2393 -0.1548
   45CHL1   H2A 3304   6.146   4.476   6.678  0.9292 -0.3150 -0.8544
   45CHL1   H2B 3305   6.048   4.336   6.725  0.4177  0.2168  0.6217
   45CHL1   C20 3306   6.426   3.873   7.434 -0.3280  0.1169 -0.4899
   45CHL1   H20 3307   6.330   3.818   7.428  0.3218 -1.1194 -0.1114
   45CHL1   C21 3308   6.420   4.010   7.504  0.6757 -0.0436  0.1865
   45CHL1  H21A 3309   6.504   4.080   7.481 -0.6437  1.9959  1.2340
   45CHL1  H21B 3310   6.414   3.991   7.613 -2.4820  2.8734  0.6937
   45CHL1  H21C 3311   6.330   4.071   7.480 -0.0839  0.2008  3.2575
   45CHL1   C22 3312   6.522   3.780   7.521 -0.8098  0.0406  0.3231
   45CHL1  H22A 3313   6.489   3.774   7.627  2.4719  0.5428  1.4808
   45CHL1  H22B 3314   6.507   3.680   7.474 -2.2650  1.0594 -1.4896
   45CHL1   C23 3315   6.674   3.800   7.520 -0.4582 -0.3133 -0.5957
   45CHL1  H23A 3316   6.696   3.812   7.412 -1.9138 -0.7436 -0.9627
   45CHL1  H23B 3317   6.688   3.899   7.568  1.6980 -1.2415  0.8902
   45CHL1   C24 3318   6.759   3.698   7.588  0.1560  0.2919 -0.3959
   45CHL1  H24A 3319   6.724   3.690   7.693  1.6379 -1.8545  0.0048
   45CHL1  H24B 3320   6.744   3.602   7.535 -1.1827  1.6873 -2.7265
   45CHL1   C25 3321   6.907   3.737   7.584 -0.0061 -0.4891 -0.1070
   45CHL1   H25 3322   6.944   3.729   7.479  0.2011  1.0471 -0.1725
   45CHL1   C26 3323   6.937   3.880   7.628  0.2378  0.1445 -0.0923
   45CHL1  H26A 3324   6.895   3.904   7.728 -0.9204 -1.3210 -0.1961
   45CHL1  H26B 3325   7.048   3.884   7.637  0.1664  0.0550  0.9073
   45CHL1  H26C 3326   6.898   3.954   7.555 -1.7305  0.4515  1.2029
   45CHL1   C27 3327   6.981   3.624   7.660  0.4590  0.5442 -0.7893
   45CHL1  H27A 3328   6.949   3.531   7.609 -1.3092  1.0103 -0.6256
   45CHL1  H27B 3329   7.089   3.644   7.645  0.1985 -0.5561 -5.7861
   45CHL1  H27C 3330   6.945   3.609   7.764 -1.3009 -1.8218 -1.6546
   46CHL1    C3 3331   6.611   6.073   6.982  0.0660 -0.0733 -0.2657
   46CHL1    H3 3332   6.703   6.015   7.005  0.6631  0.1770 -1.8847
   46CHL1    O3 3333   6.606   6.099   6.838  0.0472  0.7756 -0.1797
   46CHL1   H3' 3334   6.641   6.188   6.827  0.1719  1.0267  1.9125
   46CHL1    C4 3335   6.496   5.991   7.031  0.0315 -0.4889  0.5358
   46CHL1   H4A 3336   6.403   6.036   6.990 -0.1223 -1.2051  0.0939
   46CHL1   H4B 3337   6.493   5.895   6.976 -1.6793 -1.4724  2.2276
   46CHL1    C5 3338   6.488   5.977   7.181  0.4893  0.5530 -0.2145
   46CHL1    C6 3339   6.487   5.853   7.234 -1.4344 -0.0832  0.2221
   46CHL1    H6 3340   6.489   5.767   7.164 -2.1438  1.0237 -1.2139
   46CHL1    C7 3341   6.486   5.828   7.379 -0.0524  0.1766 -0.0847
   46CHL1   H7A 3342   6.410   5.753   7.405 -1.8010  2.2335  1.0373
   46CHL1   H7B 3343   6.588   5.794   7.406  1.4977  1.7749 -3.3014
   46CHL1    C8 3344   6.445   5.944   7.476 -0.5604 -0.4346  0.3218
   46CHL1    H8 3345   6.334   5.949   7.471 -0.6132  1.8879  1.8758
   46CHL1   C14 3346   6.498   5.933   7.616  0.0762  0.3482  0.4865
   46CHL1   H14 3347   6.609   5.920   7.621  0.2666  1.7467  0.1562
   46CHL1   C15 3348   6.447   5.801   7.678  0.2779  0.4091  0.2843
   46CHL1  H15A 3349   6.343   5.786   7.643 -0.2495  0.0900  1.8917
   46CHL1  H15B 3350   6.516   5.719   7.650  1.1377  0.9344  0.8160
   46CHL1   C16 3351   6.465   5.825   7.830 -0.8368  0.5285  1.2596
   46CHL1  H16A 3352   6.368   5.791   7.873  0.3348 -2.4675  1.7547
   46CHL1  H16B 3353   6.550   5.772   7.877  0.6029  0.6263 -1.0770
   46CHL1   C17 3354   6.497   5.980   7.839 -0.5347  0.2236 -0.6942
   46CHL1   H17 3355   6.608   5.977   7.839 -0.4096 -2.7517  2.7333
   46CHL1   C13 3356   6.447   6.044   7.702  0.2906  0.2988  0.5939
   46CHL1   C18 3357   6.293   6.050   7.716  0.2406 -0.6743  0.5955
   46CHL1  H18A 3358   6.256   6.086   7.618  3.5470 -0.1358 -0.5684
   46CHL1  H18B 3359   6.232   5.959   7.735 -2.6097  1.1491  0.7824
   46CHL1  H18C 3360   6.255   6.122   7.791 -0.5858 -1.1398  0.6418
   46CHL1   C12 3361   6.510   6.183   7.658 -0.2491  0.7505 -0.0223
   46CHL1  H12A 3362   6.479   6.268   7.721  1.0572  1.0114  0.3044
   46CHL1  H12B 3363   6.618   6.169   7.679 -0.3964  0.4843  0.5600
   46CHL1   C11 3364   6.485   6.202   7.505  0.7489  0.3733  0.1720
   46CHL1  H11A 3365   6.375   6.215   7.496  0.7408 -0.3590 -0.9986
   46CHL1  H11B 3366   6.530   6.296   7.466 -1.3786  1.2910 -0.1958
   46CHL1    C9 3367   6.510   6.080   7.414  0.3427  0.0991  0.3142
   46CHL1    H9 3368   6.618   6.054   7.419  0.4678  0.8516  2.3322
   46CHL1   C10 3369   6.492   6.108   7.262 -0.1501 -0.1585  0.0673
   46CHL1   C19 3370   6.363   6.180   7.242 -0.3191 -0.0227 -0.0684
   46CHL1  H19A 3371   6.272   6.131   7.284  1.2229 -0.6682  2.7571
   46CHL1  H19B 3372   6.384   6.283   7.277  1.3990 -0.4274  0.1926
   46CHL1  H19C 3373   6.346   6.206   7.135  0.3705  2.3873  0.3515
   46CHL1    C1 3374   6.613   6.191   7.206  0.6724  0.7191  0.0247
   46CHL1   H1A 3375   6.613   6.289   7.258 -0.4846  0.7675 -0.0326
   46CHL1   H1B 3376   6.705   6.135   7.230  2.8797  2.9267 -2.6100
   46CHL1    C2 3377   6.605   6.206   7.056 -0.0355 -0.0513  0.5249
   46CHL1   H2A 3378   6.693   6.270   7.034 -0.0208 -1.0387 -2.7381
   46CHL1   H2B 3379   6.516   6.262   7.020  0.7812  0.0625 -1.4116
   46CHL1   C20 3380   6.446   6.046   7.967 -0.0544 -0.0237  0.2457
   46CHL1   H20 3381   6.339   6.020   7.978 -0.8104  3.0201  1.2009
   46CHL1   C21 3382   6.469   6.201   7.968  0.3099 -0.8171  0.1239
   46CHL1  H21A 3383   6.573   6.222   7.936  0.4824 -0.7267  0.7241
   46CHL1  H21B 3384   6.477   6.255   8.065  0.7189 -0.1141 -0.2915
   46CHL1  H21C 3385   6.403   6.259   7.900  1.8372  0.1960 -0.5507
   46CHL1   C22 3386   6.509   5.983   8.099  0.4078  0.6758  0.1181
   46CHL1  H22A 3387   6.530   5.876   8.081 -1.6992  0.5592 -2.0642
   46CHL1  H22B 3388   6.613   6.020   8.109  1.0926  0.8718 -5.2302
   46CHL1   C23 3389   6.420   6.019   8.223 -0.3251 -0.3063 -0.0573
   46CHL1  H23A 3390   6.368   6.116   8.215  0.0594  0.3377  3.6505
   46CHL1  H23B 3391   6.336   5.948   8.236 -1.4787  1.1076  0.5192
   46CHL1   C24 3392   6.496   6.021   8.358 -0.2868 -0.3176 -0.6246
   46CHL1  H24A 3393   6.513   5.914   8.380 -1.1339 -0.1132  1.1660
   46CHL1  H24B 3394   6.587   6.086   8.355 -1.1531  0.9999  0.2785
   46CHL1   C25 3395   6.415   6.072   8.482 -0.4299  0.0788 -0.5574
   46CHL1   H25 3396   6.492   6.068   8.563  0.4111 -0.0449 -1.3448
   46CHL1   C26 3397   6.366   6.215   8.467  0.2915 -0.5735  0.4215
   46CHL1  H26A 3398   6.270   6.220   8.412 -0.4801 -0.9382  1.7141
   46CHL1  H26B 3399   6.347   6.252   8.570  1.7131 -0.1060  0.5400
   46CHL1  H26C 3400   6.440   6.284   8.421  0.2289 -0.3311  0.6772
   46CHL1   C27 3401   6.293   5.989   8.516  0.3200  0.2356  0.8155
   46CHL1  H27A 3402   6.325   5.884   8.536  1.1132  0.0188 -1.3741
   46CHL1  H27B 3403   6.239   6.031   8.603 -2.3725  0.1270 -0.7060
   46CHL1  H27C 3404   6.225   5.988   8.428  0.7563 -0.2593  0.4772
   47CHL1    C3 3405   0.230   5.927   6.650 -0.4207  0.3161 -0.2466
   47CHL1    H3 3406   0.121   5.948   6.646 -0.7640 -1.4554 -0.6180
   47CHL1    O3 3407   0.282   5.931   6.517  0.0484  0.2731  0.6301
   47CHL1   H3' 3408   0.295   6.021   6.488  0.5054 -0.4077 -1.4262
   47CHL1    C4 3409   0.300   6.033   6.736  0.2585 -0.9892  0.6426
   47CHL1   H4A 3410   0.407   6.019   6.710  0.2038 -3.7421  1.5342
   47CHL1   H4B 3411   0.278   6.135   6.699 -1.3891 -0.7457  2.1911
   47CHL1    C5 3412   0.267   6.025   6.884 -0.4306 -0.2877 -0.5348
   47CHL1    C6 3413   0.221   6.128   6.947 -0.3622 -0.0197 -0.7075
   47CHL1    H6 3414   0.211   6.224   6.893 -0.0017  1.9616  2.4969
   47CHL1    C7 3415   0.211   6.144   7.100 -0.0325  0.0890  0.3138
   47CHL1   H7A 3416   0.274   6.224   7.144  0.5745  0.1226 -0.5996
   47CHL1   H7B 3417   0.105   6.163   7.129 -0.3578 -1.8487  0.5582
   47CHL1    C8 3418   0.255   6.016   7.175 -0.3874  0.4838  0.0991
   47CHL1    H8 3419   0.364   6.029   7.194 -0.6364  0.3928  1.7540
   47CHL1   C14 3420   0.191   6.006   7.310  0.4324  0.2176 -0.2229
   47CHL1   H14 3421   0.084   5.989   7.287  0.4384  1.1304 -0.9927
   47CHL1   C15 3422   0.182   6.135   7.400  0.1257 -0.6837 -0.0535
   47CHL1  H15A 3423   0.278   6.190   7.405  0.4281 -1.2519  0.5615
   47CHL1  H15B 3424   0.106   6.199   7.351 -0.2342 -2.2100 -1.6076
   47CHL1   C16 3425   0.138   6.079   7.530  0.4214  0.1223  0.5330
   47CHL1  H16A 3426   0.198   6.125   7.611 -1.3854 -0.4230  2.2836
   47CHL1  H16B 3427   0.033   6.105   7.557  0.5097 -1.2456  2.3731
   47CHL1   C17 3428   0.141   5.925   7.517  0.3712  0.0543  0.2454
   47CHL1   H17 3429   0.035   5.895   7.498  1.4390 -2.5757 -2.3325
   47CHL1   C13 3430   0.225   5.886   7.392 -0.1597 -0.8091 -1.0440
   47CHL1   C18 3431   0.377   5.899   7.429  0.2027 -0.2811  0.0547
   47CHL1  H18A 3432   0.435   5.887   7.335 -1.6648 -0.8031 -1.0899
   47CHL1  H18B 3433   0.399   5.998   7.474 -2.3220  1.7252 -2.7209
   47CHL1  H18C 3434   0.402   5.809   7.489 -3.2029  0.3838  2.7627
   47CHL1   C12 3435   0.177   5.763   7.313 -0.7799  0.2944 -0.1138
   47CHL1  H12A 3436   0.206   5.671   7.369  2.2964  1.8625  1.0502
   47CHL1  H12B 3437   0.066   5.764   7.307 -0.9377 -1.0200  1.5964
   47CHL1   C11 3438   0.242   5.752   7.170  0.2177 -0.3672 -0.4161
   47CHL1  H11A 3439   0.351   5.732   7.168  0.2050 -0.5162  0.2349
   47CHL1  H11B 3440   0.198   5.660   7.127  0.5679 -1.1301  0.8029
   47CHL1    C9 3441   0.225   5.893   7.091  0.9631 -0.1043 -0.3607
   47CHL1    H9 3442   0.115   5.898   7.076  0.6550 -0.5022  1.5448
   47CHL1   C10 3443   0.295   5.888   6.951  0.2623 -0.7671 -0.8072
   47CHL1   C19 3444   0.447   5.862   6.968 -0.0336 -0.1150  0.0271
   47CHL1  H19A 3445   0.493   5.871   6.867  1.1690  0.3374  0.6062
   47CHL1  H19B 3446   0.490   5.926   7.047 -1.6863  0.0509  0.8350
   47CHL1  H19C 3447   0.458   5.756   6.999 -0.1683  0.0364  0.5984
   47CHL1    C1 3448   0.217   5.784   6.863 -0.1117  0.0755  0.1593
   47CHL1   H1A 3449   0.254   5.689   6.908 -2.7031 -2.1655 -2.0652
   47CHL1   H1B 3450   0.111   5.780   6.896  1.0327 -0.0668  4.4912
   47CHL1    C2 3451   0.258   5.789   6.715  0.3991  0.0576  0.5303
   47CHL1   H2A 3452   0.219   5.709   6.648 -2.5277  0.6665  1.3561
   47CHL1   H2B 3453   0.366   5.767   6.720  0.1558 -1.0148  1.5250
   47CHL1   C20 3454   0.178   5.859   7.655 -0.3173 -0.4296  0.1536
   47CHL1   H20 3455   0.272   5.907   7.688  0.1775  0.1386 -1.9674
   47CHL1   C21 3456   0.208   5.704   7.658  0.1929 -0.1615 -0.4946
   47CHL1  H21A 3457   0.251   5.674   7.756 -0.5834  0.0494 -0.0794
   47CHL1  H21B 3458   0.279   5.659   7.586 -0.8744 -2.5204 -0.1724
   47CHL1  H21C 3459   0.112   5.648   7.645 -0.3367  0.1114  1.7833
   47CHL1   C22 3460   0.082   5.888   7.776  0.2144  0.2874  0.1353
   47CHL1  H22A 3461   0.067   5.998   7.773 -0.1911  0.2403  0.3726
   47CHL1  H22B 3462  -0.011   5.837   7.744  0.5209 -0.1734 -0.0331
   47CHL1   C23 3463   0.133   5.850   7.913 -0.4897  0.1614  0.2083
   47CHL1  H23A 3464   0.108   5.745   7.939  1.5567 -0.3952  0.1093
   47CHL1  H23B 3465   0.244   5.862   7.912 -0.3006 -1.3266  0.7435
   47CHL1   C24 3466   0.098   5.947   8.031 -0.6632  0.3632  0.0012
   47CHL1  H24A 3467   0.107   6.049   7.986  0.7827  0.0684 -0.4288
   47CHL1  H24B 3468  -0.008   5.936   8.060 -0.2627 -1.3781  0.9507
   47CHL1   C25 3469   0.197   5.940   8.149 -0.8716 -0.2463 -0.3294
   47CHL1   H25 3470   0.222   5.833   8.165  2.9200  0.7023  1.3037
   47CHL1   C26 3471   0.332   6.013   8.125 -1.0930  0.0652 -0.4689
   47CHL1  H26A 3472   0.312   6.122   8.116 -0.7469  0.5658  3.4030
   47CHL1  H26B 3473   0.419   5.988   8.189  0.8866  0.0896 -2.9710
   47CHL1  H26C 3474   0.363   5.989   8.021 -1.5728 -1.0650 -0.3610
   47CHL1   C27 3475   0.132   5.985   8.289 -0.4134  0.2583  0.2779
   47CHL1  H27A 3476   0.053   5.911   8.313 -0.3944  0.5457  1.2769
   47CHL1  H27B 3477   0.211   5.993   8.367 -0.0889 -2.0540  0.2420
   47CHL1  H27C 3478   0.078   6.077   8.258 -1.1760  0.6066  2.4981
   48CHL1    C3 3479   3.060   2.856   6.237 -0.1511  0.6932  0.1647
   48CHL1    H3 3480   2.969   2.803   6.271 -0.7912  0.5782 -1.6505
   48CHL1    O3 3481   3.033   2.912   6.111  0.3288 -0.2395  0.3061
   48CHL1   H3' 3482   3.013   3.004   6.131 -1.5470 -0.4632 -0.3263
   48CHL1    C4 3483   3.092   2.971   6.336  0.8281 -0.2007  0.9653
   48CHL1   H4A 3484   3.165   3.038   6.286 -0.7122  0.8718  0.0592
   48CHL1   H4B 3485   3.003   3.036   6.350 -0.1569 -0.2363 -3.5710
   48CHL1    C5 3486   3.145   2.926   6.474 -0.7449 -0.0281 -0.4911
   48CHL1    C6 3487   3.084   2.956   6.596  0.6607 -0.5660 -0.2086
   48CHL1    H6 3488   2.990   3.011   6.605  0.6763 -0.3495 -1.2317
   48CHL1    C7 3489   3.138   2.918   6.727 -0.4128  0.1086  0.2480
   48CHL1   H7A 3490   3.144   3.006   6.794 -0.6883  0.0649  0.3302
   48CHL1   H7B 3491   3.067   2.848   6.777 -1.4707  1.2880  0.4286
   48CHL1    C8 3492   3.276   2.856   6.729  0.1070  0.3152 -0.6005
   48CHL1    H8 3493   3.348   2.941   6.729 -1.8054  2.0323 -1.0128
   48CHL1   C14 3494   3.301   2.776   6.854  0.4102 -0.3883 -0.0500
   48CHL1   H14 3495   3.239   2.686   6.836 -1.8583  1.4635 -2.2772
   48CHL1   C15 3496   3.249   2.835   6.985  0.2112 -0.4230  0.3394
   48CHL1  H15A 3497   3.282   2.940   6.999 -0.7625 -0.2400  1.3880
   48CHL1  H15B 3498   3.138   2.831   6.990  0.0992 -0.9719 -1.7702
   48CHL1   C16 3499   3.316   2.745   7.086 -1.0391  0.5127  0.7127
   48CHL1  H16A 3500   3.362   2.816   7.157  2.5576 -0.5497 -0.3244
   48CHL1  H16B 3501   3.241   2.684   7.141  0.4021 -1.1848  0.8805
   48CHL1   C17 3502   3.413   2.644   7.008  0.2438  0.0620  0.4338
   48CHL1   H17 3503   3.354   2.551   6.988 -0.4450  0.2257  1.6062
   48CHL1   C13 3504   3.440   2.724   6.872 -0.4242  0.5960 -0.6494
   48CHL1   C18 3505   3.540   2.843   6.899  0.2133 -0.5985  0.4676
   48CHL1  H18A 3506   3.638   2.809   6.938  0.5961 -1.5110 -1.2054
   48CHL1  H18B 3507   3.557   2.894   6.802 -2.0025  1.2953  0.9931
   48CHL1  H18C 3508   3.500   2.923   6.966 -0.7000 -1.2668  0.7366
   48CHL1   C12 3509   3.480   2.642   6.752  0.2935  0.1964  0.0866
   48CHL1  H12A 3510   3.589   2.626   6.736  0.3227  0.1783  0.3028
   48CHL1  H12B 3511   3.435   2.541   6.760  1.2048 -0.2728 -0.5875
   48CHL1   C11 3512   3.439   2.701   6.615 -0.2734 -0.6416 -0.5654
   48CHL1  H11A 3513   3.525   2.766   6.590  1.2755 -2.4908 -0.2493
   48CHL1  H11B 3514   3.452   2.625   6.535  0.4466  0.5738 -1.6443
   48CHL1    C9 3515   3.297   2.764   6.608  0.0851 -0.2548  0.2039
   48CHL1    H9 3516   3.224   2.683   6.628  0.1528 -0.7209 -1.3320
   48CHL1   C10 3517   3.261   2.823   6.466 -0.5703  0.4402 -0.3261
   48CHL1   C19 3518   3.395   2.890   6.413 -0.1163  0.0020 -0.3235
   48CHL1  H19A 3519   3.371   2.947   6.321  1.2005 -0.2640 -0.8393
   48CHL1  H19B 3520   3.449   2.960   6.481  1.3740 -0.5338 -0.9195
   48CHL1  H19C 3521   3.462   2.806   6.386 -1.2773 -1.7972  1.9978
   48CHL1    C1 3522   3.228   2.712   6.366  0.3934  0.0259  1.0880
   48CHL1   H1A 3523   3.319   2.655   6.339  0.4176  1.1785 -1.5215
   48CHL1   H1B 3524   3.144   2.654   6.410  0.5240 -0.8271  0.2357
   48CHL1    C2 3525   3.187   2.766   6.221 -0.1509  0.1051  0.0169
   48CHL1   H2A 3526   3.152   2.677   6.165  1.0912  0.2804 -1.0986
   48CHL1   H2B 3527   3.258   2.831   6.165  1.4273  0.7556  2.5835
   48CHL1   C20 3528   3.528   2.601   7.096 -0.1117 -0.6809 -0.4671
   48CHL1   H20 3529   3.581   2.692   7.130 -2.9038  1.5420 -1.6604
   48CHL1   C21 3530   3.623   2.518   7.012  0.0317 -0.0162  0.8444
   48CHL1  H21A 3531   3.682   2.595   6.957 -0.6699  1.0586  1.5742
   48CHL1  H21B 3532   3.577   2.457   6.931 -0.3930  2.1890 -0.6687
   48CHL1  H21C 3533   3.700   2.458   7.066  0.0678 -0.3402  0.4432
   48CHL1   C22 3534   3.479   2.523   7.227 -0.7145 -0.8763  0.7110
   48CHL1  H22A 3535   3.570   2.503   7.288 -0.6737 -0.1571  0.9011
   48CHL1  H22B 3536   3.397   2.579   7.277  1.4327  1.5373  1.8277
   48CHL1   C23 3537   3.425   2.379   7.206  0.0934 -0.2274 -0.5584
   48CHL1  H23A 3538   3.360   2.382   7.116 -1.8163  1.5703  0.7514
   48CHL1  H23B 3539   3.511   2.311   7.196  1.0357  0.9369 -0.6107
   48CHL1   C24 3540   3.343   2.333   7.337 -0.0204  0.2125  0.0432
   48CHL1  H24A 3541   3.316   2.226   7.323 -1.2716  0.4223  0.6764
   48CHL1  H24B 3542   3.399   2.344   7.433 -0.3465  1.8309  0.0866
   48CHL1   C25 3543   3.208   2.394   7.365 -0.0811  0.1052  0.4099
   48CHL1   H25 3544   3.221   2.497   7.404 -0.2278  1.4222 -2.7583
   48CHL1   C26 3545   3.116   2.413   7.245 -0.1299  0.3393  0.3546
   48CHL1  H26A 3546   3.027   2.467   7.285  0.5156 -0.3761  2.9378
   48CHL1  H26B 3547   3.170   2.475   7.171  0.7023  0.4243  1.0125
   48CHL1  H26C 3548   3.086   2.315   7.203 -2.5507  0.5138  1.4641
   48CHL1   C27 3549   3.140   2.325   7.478 -0.0290  0.6355 -0.7113
   48CHL1  H27A 3550   3.207   2.295   7.562  0.0049 -1.6697 -1.4960
   48CHL1  H27B 3551   3.051   2.381   7.513  0.0356  0.8522 -0.8923
   48CHL1  H27C 3552   3.092   2.228   7.452 -1.2619  0.6536  1.2940
   49CHL1    C3 3553   1.621   3.658   6.596 -0.0391 -0.9828  0.2464
   49CHL1    H3 3554   1.714   3.717   6.614 -1.7336  2.2351 -0.6271
   49CHL1    O3 3555   1.599   3.631   6.459 -0.4686 -0.0088  0.6763
   49CHL1   H3' 3556   1.513   3.589   6.450 -1.0128  1.4071 -1.2774
   49CHL1    C4 3557   1.619   3.524   6.665  0.2498  0.3027 -0.2341
   49CHL1   H4A 3558   1.520   3.475   6.650  0.3730  0.1919 -0.6903
   49CHL1   H4B 3559   1.694   3.455   6.621  0.4315 -0.2451  0.8783
   49CHL1    C5 3560   1.631   3.547   6.811 -0.4047  0.5288  0.4320
   49CHL1    C6 3561   1.725   3.476   6.878 -0.2381  0.2295 -0.3575
   49CHL1    H6 3562   1.793   3.408   6.825  0.4790  0.9235 -0.3431
   49CHL1    C7 3563   1.735   3.470   7.028  0.4545  0.1920  0.5575
   49CHL1   H7A 3564   1.748   3.370   7.075 -0.6683  0.1859  0.8976
   49CHL1   H7B 3565   1.829   3.524   7.052 -0.0527  1.6924 -0.6547
   49CHL1    C8 3566   1.617   3.547   7.099 -0.2810  0.4252  0.1791
   49CHL1    H8 3567   1.529   3.480   7.093 -0.6547  0.9733 -0.7670
   49CHL1   C14 3568   1.656   3.578   7.243  0.2202  0.6043 -0.3750
   49CHL1   H14 3569   1.741   3.649   7.237 -0.6710  1.6207 -1.6668
   49CHL1   C15 3570   1.709   3.457   7.336  0.3907 -0.7628  0.4541
   49CHL1  H15A 3571   1.637   3.374   7.325 -0.1523 -0.7041  2.9804
   49CHL1  H15B 3572   1.817   3.432   7.323  0.8811  2.0893 -2.0394
   49CHL1   C16 3573   1.683   3.517   7.479 -0.0257 -0.1153 -0.2717
   49CHL1  H16A 3574   1.629   3.438   7.534  1.3245 -2.1046 -1.6581
   49CHL1  H16B 3575   1.778   3.529   7.536  1.1155 -1.6733 -1.7093
   49CHL1   C17 3576   1.605   3.651   7.465  0.7222  0.7249 -0.0379
   49CHL1   H17 3577   1.683   3.730   7.465 -1.3741  2.9192 -0.4008
   49CHL1   C13 3578   1.550   3.649   7.323 -0.0491 -0.4086  0.0192
   49CHL1   C18 3579   1.424   3.558   7.317  0.3746 -0.5543 -0.5439
   49CHL1  H18A 3580   1.437   3.470   7.383 -3.7835  0.7803  2.4382
   49CHL1  H18B 3581   1.344   3.613   7.370  2.0749 -0.8077  2.5296
   49CHL1  H18C 3582   1.383   3.531   7.217  0.0672  1.5381 -1.0301
   49CHL1   C12 3583   1.529   3.789   7.256  0.6109  0.2398  0.2238
   49CHL1  H12A 3584   1.453   3.854   7.304 -0.3400  0.5850 -1.6431
   49CHL1  H12B 3585   1.624   3.845   7.241  0.0635  0.8172 -1.3726
   49CHL1   C11 3586   1.486   3.777   7.106 -0.0125 -0.4132 -0.0140
   49CHL1  H11A 3587   1.380   3.746   7.101 -0.3053  0.6869 -2.4941
   49CHL1  H11B 3588   1.495   3.878   7.061 -0.8747 -0.6929 -0.8536
   49CHL1    C9 3589   1.580   3.678   7.022 -0.6815  0.1106 -0.4495
   49CHL1    H9 3590   1.671   3.741   7.011  0.6485 -1.5084  0.7887
   49CHL1   C10 3591   1.534   3.648   6.875  0.5620 -1.1219 -0.0594
   49CHL1   C19 3592   1.393   3.589   6.882  0.0510 -0.0801  0.3486
   49CHL1  H19A 3593   1.387   3.491   6.935 -5.5016  0.7682  1.9846
   49CHL1  H19B 3594   1.323   3.655   6.938  0.5379 -0.7375  1.7954
   49CHL1  H19C 3595   1.366   3.579   6.775  0.1914  1.5751  0.1385
   49CHL1    C1 3596   1.542   3.779   6.790  0.6672  0.2067 -0.1313
   49CHL1   H1A 3597   1.461   3.840   6.835  1.2044 -0.2002  1.4755
   49CHL1   H1B 3598   1.636   3.837   6.798  1.0922 -0.6585  1.7764
   49CHL1    C2 3599   1.511   3.750   6.638 -0.2178 -0.2338  0.0588
   49CHL1   H2A 3600   1.495   3.839   6.574 -1.5115 -1.8778 -2.0475
   49CHL1   H2B 3601   1.418   3.693   6.615 -0.5506  0.9190 -1.5754
   49CHL1   C20 3602   1.522   3.682   7.587  0.6713  0.1383  0.1970
   49CHL1   H20 3603   1.443   3.605   7.597 -0.7311  1.4432 -0.4411
   49CHL1   C21 3604   1.442   3.819   7.570 -0.2372 -0.4972  0.7943
   49CHL1  H21A 3605   1.376   3.850   7.654 -1.7355  1.8985 -1.1602
   49CHL1  H21B 3606   1.369   3.813   7.487 -0.8309  0.9096  1.1994
   49CHL1  H21C 3607   1.511   3.905   7.559 -2.1892  1.0328 -0.0667
   49CHL1   C22 3608   1.594   3.682   7.726  0.3343 -0.3807  0.2224
   49CHL1  H22A 3609   1.703   3.657   7.726  0.5098  0.3590  0.6180
   49CHL1  H22B 3610   1.596   3.787   7.761  0.0073 -0.9359  1.9609
   49CHL1   C23 3611   1.521   3.601   7.832  0.2185  0.9410  0.4647
   49CHL1  H23A 3612   1.418   3.631   7.860 -0.1654 -0.4335  0.5644
   49CHL1  H23B 3613   1.514   3.494   7.805 -1.2514  1.0028  0.5137
   49CHL1   C24 3614   1.610   3.612   7.962 -0.3054  0.3833  0.3259
   49CHL1  H24A 3615   1.692   3.537   7.947 -1.2616 -0.9290  1.4183
   49CHL1  H24B 3616   1.638   3.718   7.975 -1.2588  0.5315  1.3392
   49CHL1   C25 3617   1.530   3.580   8.088 -0.3794  0.5280 -0.3916
   49CHL1   H25 3618   1.449   3.655   8.078 -0.7600  0.1228 -0.3998
   49CHL1   C26 3619   1.451   3.447   8.104 -0.8691 -0.7344 -0.0947
   49CHL1  H26A 3620   1.522   3.362   8.098  0.2758  0.3046 -2.2262
   49CHL1  H26B 3621   1.386   3.447   8.195 -2.1102  1.3869 -0.9326
   49CHL1  H26C 3622   1.385   3.441   8.015 -1.0098 -0.7674  0.0110
   49CHL1   C27 3623   1.605   3.610   8.212  0.2834  0.0323 -0.9532
   49CHL1  H27A 3624   1.539   3.564   8.289  0.9223 -0.2096 -0.5423
   49CHL1  H27B 3625   1.707   3.566   8.207 -0.2684 -1.7396  1.2590
   49CHL1  H27C 3626   1.619   3.716   8.241  0.1533  0.4270 -2.2675
   50CHL1    C3 3627   1.650   4.147   6.746 -0.3567 -0.3397  0.3992
   50CHL1    H3 3628   1.574   4.070   6.772  0.7666 -0.5538  3.5450
   50CHL1    O3 3629   1.640   4.181   6.605  0.1160 -0.1046  0.3994
   50CHL1   H3' 3630   1.720   4.233   6.599  0.8099 -1.1349  0.3828
   50CHL1    C4 3631   1.622   4.269   6.839 -0.0115  0.2927 -0.4511
   50CHL1   H4A 3632   1.693   4.350   6.811  2.0492 -0.9306  1.0025
   50CHL1   H4B 3633   1.520   4.311   6.822 -0.2007  0.2349  0.4667
   50CHL1    C5 3634   1.629   4.221   6.982  0.1315 -0.5525 -0.4647
   50CHL1    C6 3635   1.528   4.221   7.067 -0.0281 -0.1390 -0.3184
   50CHL1    H6 3636   1.424   4.248   7.046 -1.4234 -1.9350  3.3256
   50CHL1    C7 3637   1.535   4.180   7.211  0.2334  0.2027  0.2596
   50CHL1   H7A 3638   1.476   4.257   7.265 -1.4878 -2.4284  2.3751
   50CHL1   H7B 3639   1.488   4.080   7.226 -1.1318  0.3935 -2.2860
   50CHL1    C8 3640   1.678   4.182   7.263 -0.3618  0.4504 -0.0692
   50CHL1    H8 3641   1.699   4.290   7.276  1.5676  0.6495 -3.5581
   50CHL1   C14 3642   1.704   4.116   7.399 -0.6355 -0.4783 -0.5631
   50CHL1   H14 3643   1.677   4.009   7.387 -0.6936 -0.6812  1.1253
   50CHL1   C15 3644   1.618   4.172   7.511  0.2478 -0.0023 -0.1038
   50CHL1  H15A 3645   1.595   4.281   7.516 -1.3826 -0.3208  0.0010
   50CHL1  H15B 3646   1.526   4.113   7.491  1.5103 -1.7189 -1.1406
   50CHL1   C16 3647   1.693   4.128   7.641  0.4337 -0.3155  0.3508
   50CHL1  H16A 3648   1.726   4.218   7.696  0.9308  0.1263 -0.6415
   50CHL1  H16B 3649   1.631   4.070   7.712  0.5062  1.3179  1.8139
   50CHL1   C17 3650   1.822   4.048   7.599  0.2963  0.2730  0.4550
   50CHL1   H17 3651   1.776   3.947   7.597 -0.1278  0.4268  1.5392
   50CHL1   C13 3652   1.848   4.103   7.450  1.0025 -0.5421 -0.4526
   50CHL1   C18 3653   1.919   4.247   7.470  0.1736  0.6340 -0.0936
   50CHL1  H18A 3654   1.919   4.300   7.373 -1.8636 -2.1159 -1.7407
   50CHL1  H18B 3655   1.854   4.312   7.533 -0.2896 -0.7173  0.8747
   50CHL1  H18C 3656   2.021   4.243   7.513 -0.3680 -0.7823  1.1594
   50CHL1   C12 3657   1.927   4.009   7.364 -0.7042 -0.3285  0.0947
   50CHL1  H12A 3658   2.035   4.017   7.388 -0.6065  0.3234 -0.5280
   50CHL1  H12B 3659   1.884   3.907   7.367  0.7583 -0.9545  1.6273
   50CHL1   C11 3660   1.914   4.049   7.214 -0.3651 -0.7328  0.1838
   50CHL1  H11A 3661   1.993   4.125   7.196  0.2878 -0.9219  2.0340
   50CHL1  H11B 3662   1.939   3.963   7.149 -0.9598 -1.3964  0.8165
   50CHL1    C9 3663   1.775   4.102   7.161 -0.3512  1.1525  0.1040
   50CHL1    H9 3664   1.715   4.009   7.148 -1.0014  1.2525  2.0471
   50CHL1   C10 3665   1.771   4.168   7.020  0.5460  0.1066  0.6440
   50CHL1   C19 3666   1.867   4.281   6.996  1.0638  0.5998 -0.1840
   50CHL1  H19A 3667   1.835   4.370   7.054 -1.4075 -0.1666 -0.2697
   50CHL1  H19B 3668   1.969   4.266   7.037  1.2730  2.2074 -0.0682
   50CHL1  H19C 3669   1.884   4.298   6.888  1.1325 -1.0289 -0.4504
   50CHL1    C1 3670   1.808   4.061   6.920  0.1259  0.8173 -0.0719
   50CHL1   H1A 3671   1.912   4.022   6.928  0.3692  1.6929  1.5552
   50CHL1   H1B 3672   1.749   3.970   6.944  1.5948 -0.2384 -0.3435
   50CHL1    C2 3673   1.783   4.082   6.770  0.5123  0.2787 -0.2460
   50CHL1   H2A 3674   1.798   3.987   6.714  0.4762 -0.7307  1.4085
   50CHL1   H2B 3675   1.868   4.140   6.728 -0.8872  0.9472 -2.3412
   50CHL1   C20 3676   1.924   4.038   7.714  0.2806  0.1730  0.1290
   50CHL1   H20 3677   1.942   4.145   7.737 -2.1831  0.6916 -0.1499
   50CHL1   C21 3678   2.057   3.977   7.663 -0.1379  0.3340  0.0176
   50CHL1  H21A 3679   2.132   3.951   7.741 -0.4567  0.0508  0.2373
   50CHL1  H21B 3680   2.099   4.049   7.590  0.0128  1.4163  1.1414
   50CHL1  H21C 3681   2.030   3.895   7.593 -0.9927  2.0996 -1.7994
   50CHL1   C22 3682   1.864   3.963   7.842 -0.6391 -0.0419  0.5629
   50CHL1  H22A 3683   1.779   4.025   7.877 -0.9732 -0.5718  0.6895
   50CHL1  H22B 3684   1.830   3.864   7.806 -2.6217  0.4160  1.0969
   50CHL1   C23 3685   1.967   3.942   7.953 -0.2079  0.2305 -0.4041
   50CHL1  H23A 3686   2.034   3.858   7.925  1.0361  1.3896 -1.0491
   50CHL1  H23B 3687   2.016   4.042   7.956 -1.1408  0.6937 -0.3111
   50CHL1   C24 3688   1.890   3.898   8.078 -0.1278  0.1494 -0.5959
   50CHL1  H24A 3689   1.800   3.961   8.095  0.1745  1.0759 -2.2664
   50CHL1  H24B 3690   1.864   3.790   8.073  0.6074 -0.0414 -0.4386
   50CHL1   C25 3691   1.980   3.910   8.205  0.3006 -0.0973 -0.2086
   50CHL1   H25 3692   2.068   3.845   8.188  1.4615  1.0157  1.2446
   50CHL1   C26 3693   2.023   4.048   8.234  0.2204 -0.2449  0.1413
   50CHL1  H26A 3694   2.053   4.061   8.340 -1.7625 -2.2070  1.0050
   50CHL1  H26B 3695   2.115   4.072   8.175  1.3704  0.2284  2.0544
   50CHL1  H26C 3696   1.941   4.113   8.196  0.4070 -0.8280 -1.3403
   50CHL1   C27 3697   1.903   3.853   8.321 -0.0779  0.4225 -0.1834
   50CHL1  H27A 3698   1.956   3.865   8.418  0.1274 -1.9054  0.0502
   50CHL1  H27B 3699   1.807   3.908   8.333  0.3482  0.7437  2.2420
   50CHL1  H27C 3700   1.872   3.747   8.308  2.4893 -0.3445 -0.5582
   51CHL1    C3 3701   3.855   3.767   6.940 -0.8851 -0.3184 -0.2996
   51CHL1    H3 3702   3.806   3.688   7.000  1.0877 -0.9991  0.5019
   51CHL1    O3 3703   3.814   3.774   6.808  0.0941  0.2553 -0.0322
   51CHL1   H3' 3704   3.874   3.830   6.758  0.7217  0.0525  0.4782
   51CHL1    C4 3705   3.810   3.895   7.021 -0.9247 -0.7080  0.2966
   51CHL1   H4A 3706   3.848   3.990   6.978 -1.8218 -1.3769 -2.1592
   51CHL1   H4B 3707   3.700   3.898   7.034 -1.0766  0.0210 -0.9565
   51CHL1    C5 3708   3.865   3.884   7.163  0.3076  0.0144 -0.0847
   51CHL1    C6 3709   3.779   3.878   7.268 -0.1639 -0.0156 -0.4704
   51CHL1    H6 3710   3.670   3.878   7.254 -0.1217  0.1791 -0.8039
   51CHL1    C7 3711   3.815   3.875   7.415 -0.6562  0.0112  0.0949
   51CHL1   H7A 3712   3.757   3.952   7.470  1.1157  1.2812  0.3054
   51CHL1   H7B 3713   3.802   3.771   7.452  3.1740 -2.2113 -3.8519
   51CHL1    C8 3714   3.968   3.912   7.433  0.7270  0.0369 -0.3014
   51CHL1    H8 3715   3.979   4.020   7.410  2.2348 -0.4109 -1.9231
   51CHL1   C14 3716   3.998   3.868   7.574  0.0540  0.2111  0.0049
   51CHL1   H14 3717   3.984   3.758   7.577 -0.9554  0.2968 -1.0712
   51CHL1   C15 3718   3.919   3.946   7.688 -0.3075 -0.3887 -0.1600
   51CHL1  H15A 3719   3.914   4.056   7.668 -0.6025 -0.4548 -0.4449
   51CHL1  H15B 3720   3.823   3.893   7.702 -0.4314 -0.6094 -1.6740
   51CHL1   C16 3721   4.003   3.923   7.813 -0.2697 -1.2759  0.1705
   51CHL1  H16A 3722   4.009   4.022   7.863  0.3363 -0.4808 -1.3981
   51CHL1  H16B 3723   3.948   3.855   7.881 -2.4864  0.5338  0.3261
   51CHL1   C17 3724   4.140   3.876   7.759 -0.3859 -1.0325 -0.5450
   51CHL1   H17 3725   4.141   3.765   7.765  1.2327 -1.0375 -0.4977
   51CHL1   C13 3726   4.140   3.904   7.608  0.3969  0.4977 -0.1232
   51CHL1   C18 3727   4.177   4.053   7.584  0.4213  0.3556  0.1544
   51CHL1  H18A 3728   4.108   4.123   7.635  1.1725  0.7524  0.6460
   51CHL1  H18B 3729   4.280   4.063   7.624  0.3261 -1.1498  0.8706
   51CHL1  H18C 3730   4.177   4.076   7.476  3.0178 -1.5136 -0.3488
   51CHL1   C12 3731   4.221   3.812   7.515 -0.7682  0.3254 -0.0326
   51CHL1  H12A 3732   4.329   3.821   7.538 -0.5969 -0.5039 -0.4628
   51CHL1  H12B 3733   4.188   3.710   7.546 -1.3187  0.4415 -0.2340
   51CHL1   C11 3734   4.199   3.831   7.364  0.1488  0.2732 -0.2594
   51CHL1  H11A 3735   4.239   3.934   7.346 -0.0099  0.5238  0.7664
   51CHL1  H11B 3736   4.265   3.770   7.299 -0.7507  0.0825 -1.0087
   51CHL1    C9 3737   4.049   3.843   7.334  0.2217 -0.3547  0.0241
   51CHL1    H9 3738   4.010   3.742   7.359 -0.3624  0.7427  4.3647
   51CHL1   C10 3739   4.015   3.860   7.180 -0.4250 -0.0958 -1.0142
   51CHL1   C19 3740   4.097   3.982   7.134  0.0999 -0.4623  0.4342
   51CHL1  H19A 3741   4.205   3.958   7.142 -0.0980 -1.1356  1.2925
   51CHL1  H19B 3742   4.083   4.013   7.028  1.4747  1.2481  0.7176
   51CHL1  H19C 3743   4.088   4.069   7.202 -0.1579 -0.3703  0.2839
   51CHL1    C1 3744   4.048   3.730   7.100 -0.4576  0.5526  0.0053
   51CHL1   H1A 3745   4.156   3.702   7.102 -0.2881  1.1750 -0.1591
   51CHL1   H1B 3746   3.996   3.648   7.154  0.3004  0.3077  0.3772
   51CHL1    C2 3747   4.008   3.741   6.957 -0.0209 -0.6337  0.4682
   51CHL1   H2A 3748   4.029   3.645   6.905 -3.1411 -0.0202 -2.2275
   51CHL1   H2B 3749   4.073   3.811   6.899 -0.6600 -1.0544 -0.7897
   51CHL1   C20 3750   4.264   3.920   7.848 -0.2833  0.2988  0.8188
   51CHL1   H20 3751   4.273   4.030   7.845  1.3597  0.1690 -0.1309
   51CHL1   C21 3752   4.396   3.856   7.796  0.6073 -0.4995  0.9964
   51CHL1  H21A 3753   4.483   3.886   7.859  2.0090  0.5266 -1.3006
   51CHL1  H21B 3754   4.420   3.900   7.697 -0.3838 -3.3391 -0.6223
   51CHL1  H21C 3755   4.395   3.746   7.782  1.5449 -0.1477 -3.2398
   51CHL1   C22 3756   4.244   3.877   7.993 -0.1253  0.3195  0.6879
   51CHL1  H22A 3757   4.141   3.894   8.029  0.2005  0.8824  1.3809
   51CHL1  H22B 3758   4.259   3.767   7.990 -2.0073  0.0012  1.6192
   51CHL1   C23 3759   4.340   3.940   8.102  0.2461  0.6500 -0.3553
   51CHL1  H23A 3760   4.442   3.906   8.075 -0.7197 -1.4214 -1.6169
   51CHL1  H23B 3761   4.334   4.051   8.090  1.9624  0.8386  0.3019
   51CHL1   C24 3762   4.312   3.884   8.237  0.3599 -0.1827 -0.2853
   51CHL1  H24A 3763   4.313   3.953   8.324 -0.1373 -1.7274  1.0032
   51CHL1  H24B 3764   4.211   3.839   8.228  0.2312 -0.1763  0.9869
   51CHL1   C25 3765   4.401   3.758   8.287  0.4447 -0.9409  0.1897
   51CHL1   H25 3766   4.422   3.701   8.195  2.9392  0.6092 -0.3247
   51CHL1   C26 3767   4.540   3.795   8.347  0.2307 -0.3831 -0.3274
   51CHL1  H26A 3768   4.529   3.845   8.446 -0.4174 -2.4992  0.7449
   51CHL1  H26B 3769   4.600   3.702   8.362  0.9313  0.1873  0.5008
   51CHL1  H26C 3770   4.587   3.854   8.266 -1.7620  0.1964 -1.1132
   51CHL1   C27 3771   4.315   3.685   8.397  0.8052  0.2374  0.1241
   51CHL1  H27A 3772   4.356   3.587   8.428  0.6553 -1.2049 -3.6692
   51CHL1  H27B 3773   4.283   3.756   8.476 -1.9567  1.0794 -1.5906
   51CHL1  H27C 3774   4.217   3.668   8.346  0.7014 -2.0531  0.9775
   52CHL1    C3 3775   3.770   4.318   6.858 -0.6311 -0.8220 -0.3197
   52CHL1    H3 3776   3.780   4.208   6.858  0.4859 -0.7289 -0.4497
   52CHL1    O3 3777   3.798   4.388   6.737 -0.6533  0.0222 -0.0250
   52CHL1   H3' 3778   3.757   4.334   6.670  0.9746  0.6539 -1.6160
   52CHL1    C4 3779   3.629   4.354   6.898 -0.1376  0.3826  0.7168
   52CHL1   H4A 3780   3.620   4.464   6.884  0.4689  0.0824 -2.9678
   52CHL1   H4B 3781   3.556   4.324   6.820 -0.4854  2.4142  0.1862
   52CHL1    C5 3782   3.586   4.296   7.036  0.4538 -0.8372 -0.3087
   52CHL1    C6 3783   3.492   4.201   7.047  0.4486  0.0857 -0.8190
   52CHL1    H6 3784   3.440   4.170   6.955 -2.2997 -0.4205  0.7704
   52CHL1    C7 3785   3.437   4.167   7.187 -0.0487  0.3672 -0.0752
   52CHL1   H7A 3786   3.329   4.190   7.190 -0.2041 -0.4441  1.8486
   52CHL1   H7B 3787   3.466   4.060   7.197  4.3713  1.4185  0.7553
   52CHL1    C8 3788   3.497   4.249   7.309 -0.0116 -0.1407 -0.5586
   52CHL1    H8 3789   3.444   4.347   7.316 -0.7306 -0.5002 -0.8361
   52CHL1   C14 3790   3.486   4.177   7.446  0.7730 -0.2564  0.6392
   52CHL1   H14 3791   3.537   4.080   7.428 -0.8536 -1.0749  0.2082
   52CHL1   C15 3792   3.348   4.125   7.493  0.8296 -0.0743 -0.2466
   52CHL1  H15A 3793   3.264   4.198   7.500 -0.6543 -1.8894  2.7119
   52CHL1  H15B 3794   3.303   4.049   7.426  0.2339  0.3833 -0.3775
   52CHL1   C16 3795   3.367   4.083   7.637  0.2960  0.2610  0.8178
   52CHL1  H16A 3796   3.297   4.136   7.705  1.1610  1.4488  0.7894
   52CHL1  H16B 3797   3.347   3.975   7.654 -2.6974  0.1594 -2.1291
   52CHL1   C17 3798   3.512   4.129   7.668  0.1902  0.9993  0.2742
   52CHL1   H17 3799   3.572   4.039   7.646  1.3321  1.7420  0.2978
   52CHL1   C13 3800   3.550   4.239   7.568 -0.2800  0.2618  0.1464
   52CHL1   C18 3801   3.491   4.371   7.604  0.4617  0.0401 -0.3622
   52CHL1  H18A 3802   3.554   4.416   7.683 -0.2391 -0.3055  0.4023
   52CHL1  H18B 3803   3.470   4.437   7.517 -0.8973  0.5647  0.3321
   52CHL1  H18C 3804   3.393   4.366   7.656  1.0795  0.5402  0.8999
   52CHL1   C12 3805   3.697   4.245   7.534 -0.2486  0.0915  0.0343
   52CHL1  H12A 3806   3.758   4.289   7.616  1.1025  2.6704 -2.1897
   52CHL1  H12B 3807   3.742   4.146   7.513  0.8727  0.5849  0.0050
   52CHL1   C11 3808   3.727   4.332   7.409  0.1008  0.7238  0.3962
   52CHL1  H11A 3809   3.702   4.437   7.437  2.0244  0.9712  1.3502
   52CHL1  H11B 3810   3.837   4.325   7.396 -0.1254 -0.2622 -1.2263
   52CHL1    C9 3811   3.647   4.278   7.287  0.2934  0.1036 -0.4252
   52CHL1    H9 3812   3.685   4.177   7.262 -1.2534 -0.6693  0.2321
   52CHL1   C10 3813   3.675   4.348   7.153  0.7334 -0.3271 -0.2487
   52CHL1   C19 3814   3.656   4.496   7.177 -0.2959  0.3933  0.6277
   52CHL1  H19A 3815   3.731   4.532   7.250  0.1326 -0.4260  0.5905
   52CHL1  H19B 3816   3.676   4.554   7.084  4.2869  1.3549  2.0049
   52CHL1  H19C 3817   3.553   4.519   7.212 -0.4997  0.8671 -0.2389
   52CHL1    C1 3818   3.821   4.316   7.109 -0.8169 -0.6472  0.1177
   52CHL1   H1A 3819   3.899   4.348   7.183 -0.1810  0.5005 -1.0152
   52CHL1   H1B 3820   3.835   4.207   7.095 -1.8373 -0.4276 -3.2968
   52CHL1    C2 3821   3.862   4.370   6.972  0.9584  0.0260 -0.2722
   52CHL1   H2A 3822   3.965   4.332   6.953  0.0488 -2.9124  0.0556
   52CHL1   H2B 3823   3.857   4.479   6.991  0.6178  0.5378 -2.9697
   52CHL1   C20 3824   3.528   4.157   7.823  0.1525  0.2539  0.0017
   52CHL1   H20 3825   3.456   4.239   7.844  0.1527  0.2964 -0.1587
   52CHL1   C21 3826   3.667   4.204   7.848  0.2103 -0.1499  0.1029
   52CHL1  H21A 3827   3.751   4.140   7.812  0.4130 -0.1232  0.5178
   52CHL1  H21B 3828   3.696   4.207   7.955  1.7363 -3.1705 -0.1148
   52CHL1  H21C 3829   3.680   4.309   7.815 -0.6929  1.5672  4.5667
   52CHL1   C22 3830   3.490   4.045   7.923  0.4948  0.8131  0.1655
   52CHL1  H22A 3831   3.485   4.100   8.020  0.7959  2.0776 -0.5034
   52CHL1  H22B 3832   3.387   4.006   7.909  0.6940  0.1197  0.6442
   52CHL1   C23 3833   3.587   3.920   7.930 -0.6705 -0.0210 -0.1846
   52CHL1  H23A 3834   3.583   3.869   7.832  1.2517  0.8447 -0.7589
   52CHL1  H23B 3835   3.694   3.946   7.943 -0.5683  1.5867 -3.4120
   52CHL1   C24 3836   3.549   3.815   8.036 -0.6443  0.9376 -0.2379
   52CHL1  H24A 3837   3.532   3.881   8.124  1.7050  2.4068 -0.7702
   52CHL1  H24B 3838   3.455   3.765   8.005  0.2453 -1.6687  0.9975
   52CHL1   C25 3839   3.653   3.704   8.050  0.2153  0.0376  0.8854
   52CHL1   H25 3840   3.693   3.689   7.948 -1.9921 -2.4082  0.2721
   52CHL1   C26 3841   3.775   3.759   8.133  0.1683 -0.4116 -0.1652
   52CHL1  H26A 3842   3.849   3.682   8.162  2.4865  1.4898 -0.7299
   52CHL1  H26B 3843   3.832   3.843   8.087  1.6045 -0.4851  1.4015
   52CHL1  H26C 3844   3.745   3.801   8.231 -0.0398  0.8195 -0.7276
   52CHL1   C27 3845   3.585   3.581   8.101 -0.0882 -0.4765  0.4478
   52CHL1  H27A 3846   3.493   3.553   8.046  0.2563  1.3540 -1.1669
   52CHL1  H27B 3847   3.656   3.496   8.094 -0.0419 -0.2755 -3.3139
   52CHL1  H27C 3848   3.557   3.598   8.208  0.2841 -0.4179  0.5374
   53CHL1    C3 3849   6.424   0.243   6.971  0.4938  0.2536 -0.4557
   53CHL1    H3 3850   6.419   0.149   7.029  0.0637  1.2227  1.1618
   53CHL1    O3 3851   6.347   0.224   6.857 -0.1723  0.6056  0.5315
   53CHL1   H3' 3852   6.407   0.175   6.802 -0.5836  0.2928  0.3520
   53CHL1    C4 3853   6.369   0.366   7.049 -0.4359  0.1902  0.0451
   53CHL1   H4A 3854   6.397   0.452   6.985  1.9264 -1.0376 -0.7114
   53CHL1   H4B 3855   6.260   0.360   7.067 -0.7138  3.2623 -0.1123
   53CHL1    C5 3856   6.456   0.384   7.173  0.3981  0.3205  0.2741
   53CHL1    C6 3857   6.391   0.382   7.296 -0.2148 -0.0933 -0.1612
   53CHL1    H6 3858   6.282   0.368   7.302 -0.5503  2.3530  0.3416
   53CHL1    C7 3859   6.467   0.411   7.422  0.6033 -0.0589 -0.2385
   53CHL1   H7A 3860   6.408   0.482   7.483  0.1484 -0.3363 -0.3465
   53CHL1   H7B 3861   6.477   0.315   7.478 -1.3091  0.1913  0.6162
   53CHL1    C8 3862   6.609   0.475   7.394  0.3577 -0.0613  0.3053
   53CHL1    H8 3863   6.591   0.577   7.353  1.0474 -0.4728 -1.0839
   53CHL1   C14 3864   6.690   0.480   7.524  0.1480  0.5651  0.2537
   53CHL1   H14 3865   6.703   0.373   7.551 -0.0822  1.1640  3.0487
   53CHL1   C15 3866   6.629   0.547   7.650  0.0312 -0.5211  0.7691
   53CHL1  H15A 3867   6.578   0.640   7.617 -1.2857 -1.7611 -0.9198
   53CHL1  H15B 3868   6.552   0.488   7.703 -1.0472  0.4221  0.3056
   53CHL1   C16 3869   6.745   0.583   7.733 -0.2045  0.3769 -0.5868
   53CHL1  H16A 3870   6.761   0.692   7.750  1.5050 -0.2942  2.8130
   53CHL1  H16B 3871   6.745   0.547   7.838  0.9547  0.5484 -0.5218
   53CHL1   C17 3872   6.870   0.530   7.662  0.3229  0.7632  0.0419
   53CHL1   H17 3873   6.869   0.421   7.682  0.0179  0.9147  0.9070
   53CHL1   C13 3874   6.832   0.535   7.508 -0.3092 -0.2770 -0.0213
   53CHL1   C18 3875   6.844   0.678   7.454 -0.0868 -0.8964 -0.3946
   53CHL1  H18A 3876   6.785   0.697   7.362  2.6060  1.5124 -1.7896
   53CHL1  H18B 3877   6.791   0.744   7.526  0.5693  0.2818 -0.9697
   53CHL1  H18C 3878   6.946   0.717   7.436 -0.7025  1.2602  0.4674
   53CHL1   C12 3879   6.902   0.437   7.406  0.1440  0.1323  0.2640
   53CHL1  H12A 3880   7.008   0.462   7.385  1.4068 -2.8229  2.3777
   53CHL1  H12B 3881   6.905   0.335   7.449 -1.7074 -0.3525 -0.6321
   53CHL1   C11 3882   6.833   0.439   7.271 -0.3132  0.1925  0.3351
   53CHL1  H11A 3883   6.845   0.543   7.235  0.3482 -0.7032 -2.1770
   53CHL1  H11B 3884   6.876   0.363   7.202 -2.1875  0.2535 -0.9840
   53CHL1    C9 3885   6.685   0.392   7.289  1.1908 -0.9317 -0.4669
   53CHL1    H9 3886   6.673   0.286   7.320  0.4301 -0.8983 -0.6442
   53CHL1   C10 3887   6.610   0.402   7.151 -0.3949 -0.2137 -0.5324
   53CHL1   C19 3888   6.630   0.544   7.082  0.8697 -0.1978 -0.4005
   53CHL1  H19A 3889   6.737   0.571   7.067  0.7782  0.5453  0.2385
   53CHL1  H19B 3890   6.582   0.552   6.981 -0.6997 -1.8248  0.1671
   53CHL1  H19C 3891   6.575   0.617   7.145  0.3603 -0.5940 -0.3756
   53CHL1    C1 3892   6.657   0.293   7.061  0.0623 -0.6018  0.3402
   53CHL1   H1A 3893   6.762   0.316   7.032  1.4647 -2.4010  3.5515
   53CHL1   H1B 3894   6.653   0.195   7.113  2.3204 -2.1317 -2.0873
   53CHL1    C2 3895   6.569   0.277   6.934 -0.0813 -0.0336  0.2945
   53CHL1   H2A 3896   6.613   0.196   6.872 -3.3404 -1.5658 -0.2519
   53CHL1   H2B 3897   6.569   0.376   6.883 -1.4599  0.3295  0.9344
   53CHL1   C20 3898   6.999   0.587   7.732 -0.5332 -0.0479  0.5715
   53CHL1   H20 3899   6.993   0.697   7.729 -0.3908 -0.0632 -1.3265
   53CHL1   C21 3900   7.125   0.552   7.640 -0.0099 -1.1124  0.5215
   53CHL1  H21A 3901   7.217   0.605   7.674  1.4290 -1.7388 -2.1275
   53CHL1  H21B 3902   7.098   0.592   7.540 -2.9517 -0.6235  1.4054
   53CHL1  H21C 3903   7.135   0.442   7.630  0.9525 -0.8967 -1.2420
   53CHL1   C22 3904   7.032   0.544   7.876 -0.1641 -0.5474  0.3301
   53CHL1  H22A 3905   6.941   0.552   7.938 -0.4105  2.0841 -0.2403
   53CHL1  H22B 3906   7.079   0.443   7.878  2.0871  0.4406  0.6411
   53CHL1   C23 3907   7.138   0.642   7.947  0.4170  0.0920  0.3014
   53CHL1  H23A 3908   7.227   0.653   7.882 -0.4983  4.0604 -0.5167
   53CHL1  H23B 3909   7.086   0.740   7.955 -1.7275 -0.9376 -0.1011
   53CHL1   C24 3910   7.162   0.589   8.085  0.2766  0.5696  0.1010
   53CHL1  H24A 3911   7.206   0.487   8.088 -1.8559 -0.4212  3.2571
   53CHL1  H24B 3912   7.234   0.651   8.142  0.3014 -0.4359  1.1920
   53CHL1   C25 3913   7.041   0.591   8.181 -0.9205 -0.2578 -0.2961
   53CHL1   H25 3914   6.958   0.528   8.141 -0.6080 -1.3058  0.6523
   53CHL1   C26 3915   7.077   0.514   8.313  0.0261  0.0200  0.6555
   53CHL1  H26A 3916   7.100   0.410   8.280  1.4400  0.5242 -0.0012
   53CHL1  H26B 3917   7.167   0.558   8.360 -0.8851 -0.2074  2.7476
   53CHL1  H26C 3918   7.002   0.508   8.395  0.9023  0.7421  1.5271
   53CHL1   C27 3919   7.002   0.734   8.223  0.5022  0.7409 -0.0649
   53CHL1  H27A 3920   6.915   0.727   8.292  0.6912 -0.2473  0.0889
   53CHL1  H27B 3921   7.079   0.776   8.291  0.6473 -0.8612  0.8051
   53CHL1  H27C 3922   6.978   0.805   8.141  2.5654 -0.8971 -2.2291
   54CHL1    C3 3923   0.547   1.701   6.841  0.1439 -0.2593 -0.1173
   54CHL1    H3 3924   0.480   1.790   6.849  1.0312  0.3392  0.8103
   54CHL1    O3 3925   0.559   1.707   6.699  0.5489 -0.0762  0.4003
   54CHL1   H3' 3926   0.565   1.617   6.668 -1.2333 -0.2724  0.5128
   54CHL1    C4 3927   0.678   1.730   6.902  0.9639 -0.3889  0.3457
   54CHL1   H4A 3928   0.752   1.665   6.850  0.2652 -1.4981  0.7043
   54CHL1   H4B 3929   0.707   1.833   6.872  2.5076 -0.6959  0.6623
   54CHL1    C5 3930   0.681   1.711   7.051 -0.2650  0.5157 -0.1512
   54CHL1    C6 3931   0.735   1.807   7.135 -0.1738  0.3801  0.6233
   54CHL1    H6 3932   0.783   1.897   7.094  0.6425 -0.6759 -0.8756
   54CHL1    C7 3933   0.746   1.792   7.281  0.0410 -0.3240 -0.0077
   54CHL1   H7A 3934   0.844   1.837   7.310 -1.5889  2.3959  1.7418
   54CHL1   H7B 3935   0.657   1.847   7.319  0.5261  1.8005 -1.7510
   54CHL1    C8 3936   0.732   1.647   7.334 -0.7968 -0.1302 -0.2068
   54CHL1    H8 3937   0.826   1.598   7.303 -1.4205 -0.8099 -1.0683
   54CHL1   C14 3938   0.700   1.649   7.482  0.2480 -0.1186 -0.1616
   54CHL1   H14 3939   0.600   1.697   7.488  0.1828 -0.4276  1.7604
   54CHL1   C15 3940   0.802   1.723   7.571  0.4345 -0.0279 -0.2182
   54CHL1  H15A 3941   0.901   1.700   7.525  0.4093 -0.7948  0.0978
   54CHL1  H15B 3942   0.794   1.833   7.558  0.0719  0.0924  1.0001
   54CHL1   C16 3943   0.760   1.686   7.709  0.3850  0.0699 -0.0498
   54CHL1  H16A 3944   0.844   1.656   7.776  0.9442  0.1904 -0.6829
   54CHL1  H16B 3945   0.695   1.760   7.759 -0.4830 -1.1445  0.6784
   54CHL1   C17 3946   0.658   1.565   7.693  0.3992  0.3845 -0.4587
   54CHL1   H17 3947   0.557   1.609   7.700  0.2069  0.3765 -2.5007
   54CHL1   C13 3948   0.682   1.510   7.550  0.3979  0.1471 -0.4406
   54CHL1   C18 3949   0.815   1.432   7.545 -0.3322  0.0948  0.8258
   54CHL1  H18A 3950   0.897   1.481   7.603  1.9607  0.1539 -2.2199
   54CHL1  H18B 3951   0.818   1.333   7.595  4.4204 -0.7019 -0.5757
   54CHL1  H18C 3952   0.846   1.416   7.440 -1.2271 -1.2589  0.7465
   54CHL1   C12 3953   0.562   1.440   7.484  0.1634 -0.1144  1.0384
   54CHL1  H12A 3954   0.575   1.335   7.518 -0.6229 -0.5257  0.1278
   54CHL1  H12B 3955   0.472   1.491   7.525 -1.3835 -0.6243 -1.4591
   54CHL1   C11 3956   0.572   1.446   7.327  0.0166 -0.3707 -0.2042
   54CHL1  H11A 3957   0.652   1.373   7.302 -0.7004 -1.2284 -0.0213
   54CHL1  H11B 3958   0.471   1.414   7.294 -0.2009  0.4745 -0.3743
   54CHL1    C9 3959   0.609   1.581   7.258  0.2272  0.1857 -0.0484
   54CHL1    H9 3960   0.521   1.644   7.284  0.1767  0.6269 -1.2611
   54CHL1   C10 3961   0.616   1.583   7.104  0.1072  0.1255 -0.5336
   54CHL1   C19 3962   0.723   1.481   7.069  0.1397 -0.1785  0.2903
   54CHL1  H19A 3963   0.771   1.490   6.969  0.0762  1.8518  0.4097
   54CHL1  H19B 3964   0.810   1.501   7.135 -0.1702  3.4342 -0.2035
   54CHL1  H19C 3965   0.682   1.378   7.075  0.6400 -0.3026  2.3591
   54CHL1    C1 3966   0.477   1.554   7.040  0.1382 -0.4225  0.0358
   54CHL1   H1A 3967   0.429   1.460   7.073  0.4344 -0.0086  1.7119
   54CHL1   H1B 3968   0.403   1.633   7.067 -1.3159 -2.1796  1.4550
   54CHL1    C2 3969   0.492   1.568   6.889  0.2523  0.9225 -0.3842
   54CHL1   H2A 3970   0.398   1.534   6.840  0.8297 -1.5382  0.0478
   54CHL1   H2B 3971   0.560   1.485   6.858 -0.7363 -0.0766  0.0451
   54CHL1   C20 3972   0.659   1.467   7.808  0.5047 -0.5336 -0.0249
   54CHL1   H20 3973   0.753   1.408   7.802  0.6651 -0.1600 -2.3555
   54CHL1   C21 3974   0.536   1.366   7.795 -0.4883  0.9284  0.3690
   54CHL1  H21A 3975   0.437   1.417   7.793 -0.3107  1.2681  0.1503
   54CHL1  H21B 3976   0.543   1.296   7.881 -1.6494  0.9610  0.5090
   54CHL1  H21C 3977   0.549   1.308   7.701 -0.0660  2.2762 -0.4280
   54CHL1   C22 3978   0.660   1.534   7.945  0.9254 -0.1300 -0.8314
   54CHL1  H22A 3979   0.753   1.590   7.969 -0.4580  2.1456 -0.4336
   54CHL1  H22B 3980   0.592   1.622   7.941 -0.3604 -0.8634  2.0513
   54CHL1   C23 3981   0.639   1.442   8.063  0.3890 -0.6218 -0.0672
   54CHL1  H23A 3982   0.536   1.400   8.068  1.1063 -2.3493  1.2244
   54CHL1  H23B 3983   0.702   1.351   8.049 -1.6587 -2.1652  0.2595
   54CHL1   C24 3984   0.674   1.514   8.193  0.0481 -0.6724 -0.3772
   54CHL1  H24A 3985   0.765   1.577   8.184  1.5408 -2.4313  1.3083
   54CHL1  H24B 3986   0.593   1.582   8.226  1.1519  0.1424  0.7574
   54CHL1   C25 3987   0.707   1.418   8.312  0.4152  0.5024 -0.1337
   54CHL1   H25 3988   0.783   1.344   8.279  1.7771  0.9164  1.8991
   54CHL1   C26 3989   0.765   1.493   8.427 -0.0023  1.0805 -0.1951
   54CHL1  H26A 3990   0.761   1.427   8.516  1.2998  2.1067  0.6598
   54CHL1  H26B 3991   0.865   1.539   8.419  0.6429  0.1310  1.9091
   54CHL1  H26C 3992   0.702   1.580   8.455 -0.0875  0.6781  0.9105
   54CHL1   C27 3993   0.593   1.321   8.370 -0.8206  0.1430 -0.2753
   54CHL1  H27A 3994   0.648   1.259   8.444  0.6394  0.1469 -1.3040
   54CHL1  H27B 3995   0.512   1.382   8.414  0.9700  0.7212  2.3989
   54CHL1  H27C 3996   0.556   1.253   8.290 -1.4782  0.6652 -0.4250
   55CHL1    C3 3997   0.899   3.175   6.835  0.2955  0.3867  0.1959
   55CHL1    H3 3998   0.861   3.075   6.863  1.4314  0.0734  0.6821
   55CHL1    O3 3999   0.841   3.212   6.713  0.0839 -0.0141  0.1204
   55CHL1   H3' 4000   0.891   3.164   6.647 -0.3601 -1.6150  0.9066
   55CHL1    C4 4001   0.860   3.282   6.939  0.2177 -1.0920  0.3693
   55CHL1   H4A 4002   0.890   3.381   6.898  1.6987 -1.0490  1.5072
   55CHL1   H4B 4003   0.749   3.283   6.937  0.1608 -1.9714  1.7508
   55CHL1    C5 4004   0.916   3.255   7.078  0.1034 -1.2218  0.1164
   55CHL1    C6 4005   0.837   3.259   7.188  0.3567 -0.4213  0.1988
   55CHL1    H6 4006   0.730   3.283   7.182  0.3458 -0.1617  1.2221
   55CHL1    C7 4007   0.896   3.223   7.327 -0.4520  0.4069  0.4538
   55CHL1   H7A 4008   0.879   3.303   7.403  0.4684 -0.7533  1.9418
   55CHL1   H7B 4009   0.860   3.122   7.358  1.2395 -0.3704 -0.0252
   55CHL1    C8 4010   1.047   3.212   7.332  0.8480  0.5213  0.1832
   55CHL1    H8 4011   1.089   3.314   7.338 -0.7539  1.1610  4.6138
   55CHL1   C14 4012   1.089   3.125   7.455 -0.7780 -0.5683 -0.5142
   55CHL1   H14 4013   1.052   3.022   7.439  0.8783 -1.2722 -0.0026
   55CHL1   C15 4014   1.040   3.162   7.592  0.2934 -0.4964 -1.0855
   55CHL1  H15A 4015   1.041   3.272   7.606 -0.7907 -0.2303 -2.8350
   55CHL1  H15B 4016   0.936   3.128   7.611  0.9704 -1.5656  1.0017
   55CHL1   C16 4017   1.131   3.085   7.696 -0.0450  0.7319 -0.0830
   55CHL1  H16A 4018   1.193   3.152   7.760  0.3870 -1.2317  1.6597
   55CHL1  H16B 4019   1.078   3.012   7.761 -0.2887 -0.3668 -1.4774
   55CHL1   C17 4020   1.246   3.025   7.615  0.5856  0.8404  0.0165
   55CHL1   H17 4021   1.214   2.920   7.597 -0.3796  1.1598 -0.2154
   55CHL1   C13 4022   1.248   3.102   7.479  0.5347  1.0150 -0.0915
   55CHL1   C18 4023   1.320   3.242   7.493  0.5902  0.4034  0.1310
   55CHL1  H18A 4024   1.289   3.292   7.587 -0.0901 -0.2235  0.2544
   55CHL1  H18B 4025   1.426   3.220   7.517  0.1954  1.7451  3.5949
   55CHL1  H18C 4026   1.296   3.313   7.411  0.9481  1.0156  0.5528
   55CHL1   C12 4027   1.289   3.024   7.354 -0.1699  0.2341 -0.8746
   55CHL1  H12A 4028   1.399   3.008   7.358  0.0962  2.0366  1.1723
   55CHL1  H12B 4029   1.241   2.924   7.352  1.1718 -0.4345 -0.6881
   55CHL1   C11 4030   1.254   3.101   7.221 -0.3511  0.0675 -0.7927
   55CHL1  H11A 4031   1.320   3.191   7.216  0.5765 -0.3046  2.4106
   55CHL1  H11B 4032   1.290   3.031   7.142 -0.7250  1.4770 -2.2720
   55CHL1    C9 4033   1.103   3.141   7.215 -0.3522  0.3949 -0.0055
   55CHL1    H9 4034   1.044   3.047   7.218 -1.0449  0.7852 -0.9146
   55CHL1   C10 4035   1.066   3.213   7.079 -0.4288  0.0993 -0.6607
   55CHL1   C19 4036   1.146   3.342   7.065  0.3485  0.4404 -0.6306
   55CHL1  H19A 4037   1.254   3.318   7.073  0.2911 -0.3503 -2.0318
   55CHL1  H19B 4038   1.145   3.384   6.962  0.6515  0.1752 -0.7427
   55CHL1  H19C 4039   1.128   3.416   7.146 -1.3156 -0.7572  0.1343
   55CHL1    C1 4040   1.101   3.117   6.964 -0.1656  0.5884 -0.2976
   55CHL1   H1A 4041   1.211   3.103   6.962 -0.1070  0.5975  1.3814
   55CHL1   H1B 4042   1.049   3.024   6.992 -0.8916  0.7827 -0.9825
   55CHL1    C2 4043   1.049   3.164   6.826  0.2595  0.6432  0.1886
   55CHL1   H2A 4044   1.079   3.085   6.753 -2.4263 -0.8809  0.5679
   55CHL1   H2B 4045   1.093   3.262   6.800  0.5561  0.7144  0.9545
   55CHL1   C20 4046   1.382   3.022   7.691  0.5636  1.2299 -0.0283
   55CHL1   H20 4047   1.424   3.123   7.708  1.6925  0.3614  2.9518
   55CHL1   C21 4048   1.491   2.942   7.618 -0.2780 -0.5358  0.3439
   55CHL1  H21A 4049   1.543   3.001   7.540 -0.1621  0.7252  1.3288
   55CHL1  H21B 4050   1.439   2.855   7.573  1.2646 -0.1337 -2.4203
   55CHL1  H21C 4051   1.567   2.901   7.687 -0.3376  0.2665  0.9067
   55CHL1   C22 4052   1.388   2.985   7.839  0.2697 -0.5325 -0.0331
   55CHL1  H22A 4053   1.494   2.989   7.871 -0.1677 -1.1261  1.6003
   55CHL1  H22B 4054   1.341   3.061   7.906  0.1773 -0.2328 -0.4333
   55CHL1   C23 4055   1.310   2.853   7.876  0.1514  0.0757 -0.2195
   55CHL1  H23A 4056   1.203   2.855   7.846 -0.0049 -0.1493  0.3130
   55CHL1  H23B 4057   1.352   2.761   7.830 -0.8859 -0.1424 -0.7725
   55CHL1   C24 4058   1.313   2.819   8.027 -0.4032  0.1611 -0.1127
   55CHL1  H24A 4059   1.247   2.730   8.040 -3.9338  2.5303 -0.2537
   55CHL1  H24B 4060   1.418   2.806   8.061 -0.8163 -1.5221  0.6239
   55CHL1   C25 4061   1.238   2.915   8.124  0.2872  0.1282 -0.1375
   55CHL1   H25 4062   1.296   3.010   8.126 -0.4604  0.5829  1.0800
   55CHL1   C26 4063   1.091   2.936   8.075  0.2970 -0.1042 -0.0997
   55CHL1  H26A 4064   1.104   2.971   7.970  1.6542 -2.1804 -0.6883
   55CHL1  H26B 4065   1.041   2.837   8.074  0.2120 -0.0582 -1.0891
   55CHL1  H26C 4066   1.024   3.004   8.133 -0.7346  0.8146 -2.2567
   55CHL1   C27 4067   1.255   2.853   8.260  0.3189  0.0979  0.2722
   55CHL1  H27A 4068   1.365   2.851   8.278  0.1979  1.6641  1.4659
   55CHL1  H27B 4069   1.204   2.910   8.340  0.7138 -0.4350  0.9203
   55CHL1  H27C 4070   1.224   2.746   8.261 -0.2336  0.2240 -1.5300
   56CHL1    C3 4071   0.182   1.989   6.953  0.4402 -0.7292 -0.1692
   56CHL1    H3 4072   0.087   2.046   6.950 -0.2001 -1.4420  2.8023
   56CHL1    O3 4073   0.235   1.976   6.819 -0.2689 -0.3306  0.5182
   56CHL1   H3' 4074   0.210   1.885   6.799  2.0469 -1.3165  1.7224
   56CHL1    C4 4075   0.287   2.057   7.044  0.3724  1.3570  0.0768
   56CHL1   H4A 4076   0.385   2.004   7.046 -0.5535 -0.6287  4.2458
   56CHL1   H4B 4077   0.297   2.157   6.998 -0.8278  0.9028 -1.2451
   56CHL1    C5 4078   0.229   2.060   7.187  0.6017  0.3274  0.4565
   56CHL1    C6 4079   0.212   2.183   7.248  0.3967 -0.2505  0.3967
   56CHL1    H6 4080   0.268   2.269   7.206 -0.6971  1.7951  2.8254
   56CHL1    C7 4081   0.162   2.196   7.391 -0.0672  0.0386 -0.1758
   56CHL1   H7A 4082   0.235   2.261   7.442 -1.2705  1.1447  0.1828
   56CHL1   H7B 4083   0.064   2.248   7.395 -0.1439  0.0627 -1.6185
   56CHL1    C8 4084   0.149   2.063   7.470  0.2337 -0.6608 -0.4775
   56CHL1    H8 4085   0.254   2.035   7.494  0.7101  0.2845 -1.3463
   56CHL1   C14 4086   0.068   2.090   7.598 -0.8460  0.0797  0.2703
   56CHL1   H14 4087  -0.032   2.125   7.565  0.2357  1.1932 -2.1228
   56CHL1   C15 4088   0.119   2.194   7.698  0.2399 -0.8177 -0.0711
   56CHL1  H15A 4089   0.227   2.193   7.722 -0.0481  1.5982  1.6551
   56CHL1  H15B 4090   0.099   2.297   7.662  0.3953 -0.3183  1.2449
   56CHL1   C16 4091   0.035   2.153   7.822 -0.1358  0.4052  0.0498
   56CHL1  H16A 4092   0.098   2.164   7.913 -0.9776 -2.0941  1.0226
   56CHL1  H16B 4093  -0.043   2.233   7.829 -0.1692  0.4893 -1.1895
   56CHL1   C17 4094  -0.024   2.019   7.800  0.6438  0.2388  0.1762
   56CHL1   H17 4095  -0.125   2.034   7.757 -0.1666 -1.3660  1.4138
   56CHL1   C13 4096   0.048   1.957   7.677 -0.2677 -0.0368  0.1295
   56CHL1   C18 4097   0.181   1.891   7.726  0.2165 -0.1437 -0.0300
   56CHL1  H18A 4098   0.152   1.802   7.787  3.9437 -0.6726  1.2380
   56CHL1  H18B 4099   0.244   1.851   7.644  0.0959  1.7292 -1.0963
   56CHL1  H18C 4100   0.241   1.960   7.790 -0.1433 -0.3327  0.5181
   56CHL1   C12 4101  -0.034   1.850   7.596 -0.7234 -0.4808  0.7073
   56CHL1  H12A 4102  -0.042   1.749   7.641 -0.4169 -0.7913  0.0698
   56CHL1  H12B 4103  -0.136   1.889   7.576  0.0950  1.9392  0.9524
   56CHL1   C11 4104   0.034   1.836   7.462  0.9858  0.1848 -0.2407
   56CHL1  H11A 4105   0.117   1.763   7.471 -2.3515 -3.8044  1.2908
   56CHL1  H11B 4106  -0.047   1.785   7.405  3.1886  0.0316 -3.4874
   56CHL1    C9 4107   0.084   1.964   7.381 -0.6083  0.0712 -0.4104
   56CHL1    H9 4108  -0.006   2.017   7.344 -1.0656 -0.7842 -0.5475
   56CHL1   C10 4109   0.172   1.935   7.262  0.4517 -0.0724  0.7926
   56CHL1   C19 4110   0.294   1.847   7.298  0.5873 -0.3220  0.2673
   56CHL1  H19A 4111   0.349   1.891   7.384  0.6935 -0.6022  0.3420
   56CHL1  H19B 4112   0.249   1.746   7.308  1.3500 -0.6692  0.2161
   56CHL1  H19C 4113   0.367   1.842   7.215  0.2137  2.0063 -0.2733
   56CHL1    C1 4114   0.077   1.876   7.145 -0.3475  0.6344  0.1462
   56CHL1   H1A 4115   0.056   1.778   7.192  3.4918  0.2487  1.3507
   56CHL1   H1B 4116  -0.015   1.939   7.148 -0.4451  0.5554 -0.9216
   56CHL1    C2 4117   0.149   1.853   7.010  0.4544 -0.4268 -0.2599
   56CHL1   H2A 4118   0.085   1.798   6.937  0.0807 -3.6606  2.2834
   56CHL1   H2B 4119   0.243   1.796   7.026  0.5872 -1.2592 -3.3148
   56CHL1   C20 4120  -0.053   1.925   7.917 -0.3516 -0.4147 -0.2124
   56CHL1   H20 4121  -0.063   1.820   7.883 -3.1228 -0.8283  1.5431
   56CHL1   C21 4122  -0.192   1.958   7.972 -0.5086  0.2043  0.4323
   56CHL1  H21A 4123  -0.225   1.880   8.044 -0.6519 -1.7639 -1.6592
   56CHL1  H21B 4124  -0.268   1.953   7.891 -0.7705 -2.7518  0.7359
   56CHL1  H21C 4125  -0.197   2.060   8.014 -0.1629  0.4027  0.0017
   56CHL1   C22 4126   0.054   1.924   8.026  0.0345 -0.2124  0.2985
   56CHL1  H22A 4127   0.156   1.915   7.985  0.4902 -1.1818  1.5939
   56CHL1  H22B 4128   0.044   2.024   8.074  0.6607  0.4834 -0.9550
   56CHL1   C23 4129   0.037   1.809   8.122  0.3262  0.4420 -0.2215
   56CHL1  H23A 4130  -0.063   1.810   8.170 -0.0350  0.8605 -0.9551
   56CHL1  H23B 4131   0.044   1.717   8.059 -0.8397  0.5119 -0.4890
   56CHL1   C24 4132   0.153   1.797   8.224 -0.1741 -0.1253  0.1490
   56CHL1  H24A 4133   0.242   1.783   8.159 -0.0196 -0.9856  0.5284
   56CHL1  H24B 4134   0.164   1.896   8.273 -0.5864  1.6441 -3.0567
   56CHL1   C25 4135   0.133   1.696   8.345 -0.0855 -0.0992 -0.3905
   56CHL1   H25 4136   0.094   1.603   8.299  1.0190  0.0654 -1.6915
   56CHL1   C26 4137   0.275   1.650   8.395  0.4233  0.5844  0.0814
   56CHL1  H26A 4138   0.268   1.545   8.431  1.8995  0.5222  0.2413
   56CHL1  H26B 4139   0.308   1.715   8.479 -1.1778  1.4244  0.0839
   56CHL1  H26C 4140   0.346   1.659   8.310 -0.0464 -1.3738 -0.5776
   56CHL1   C27 4141   0.039   1.736   8.458  0.8892 -0.1572  0.4311
   56CHL1  H27A 4142   0.088   1.811   8.522  3.0130 -0.8642 -0.2881
   56CHL1  H27B 4143  -0.058   1.773   8.418 -0.7704 -2.3334  2.2000
   56CHL1  H27C 4144   0.011   1.649   8.521 -3.1025  0.0647 -0.7404
   57SAPC     N 4145   0.879   5.805  11.040 -1.1802 -0.3394  0.1805
   57SAPC   C12 4146   0.800   5.921  10.984  0.0055  0.3003 -0.7677
   57SAPC  H12A 4147   0.708   5.947  11.035 -0.2059  0.6181 -1.2989
   57SAPC  H12B 4148   0.759   5.886  10.890  1.0812 -0.4558 -0.9744
   57SAPC   C13 4149   1.018   5.820  10.985  0.1332  1.0264 -0.0537
   57SAPC  H13A 4150   1.022   5.850  10.881  2.2472  0.5092 -0.1656
   57SAPC  H13B 4151   1.072   5.897  11.038 -0.6543  1.5075  0.0660
   57SAPC  H13C 4152   1.077   5.730  10.993 -0.8446  0.3371 -0.3918
   57SAPC   C14 4153   0.887   5.806  11.193 -0.3612 -0.0227  1.0549
   57SAPC  H14A 4154   0.945   5.720  11.224  1.4396  0.8108  0.1291
   57SAPC  H14B 4155   0.944   5.891  11.228  0.8405  0.3330 -1.5513
   57SAPC  H14C 4156   0.786   5.820  11.228 -1.6340 -0.1074 -2.2795
   57SAPC   C15 4157   0.823   5.673  10.994  0.0135 -0.5933  0.0296
   57SAPC  H15A 4158   0.880   5.591  11.036 -0.1062 -0.4969  0.3849
   57SAPC  H15B 4159   0.720   5.659  11.024 -0.0922 -0.3379 -0.2056
   57SAPC  H15C 4160   0.829   5.676  10.887  2.6014 -1.1244  0.1038
   57SAPC   C11 4161   0.885   6.044  10.977  0.0952 -0.0017 -0.9847
   57SAPC  H11A 4162   0.937   6.056  11.074 -1.0008  0.6040 -0.4539
   57SAPC  H11B 4163   0.813   6.129  10.977  0.4890  0.3862  1.0715
   57SAPC     P 4164   0.917   6.078  10.720  0.0932 -0.0578  0.0116
   57SAPC   O13 4165   0.859   5.955  10.665  0.2823 -0.7693 -0.1885
   57SAPC   O14 4166   0.825   6.195  10.716  0.4201 -0.2292 -0.7556
   57SAPC   O12 4167   0.971   6.052  10.864 -0.5019 -0.1240 -0.7342
   57SAPC   O11 4168   1.047   6.114  10.629  0.1240 -0.0226  0.2142
   57SAPC    C1 4169   1.069   6.247  10.575  0.2063  0.5294  0.4164
   57SAPC    HA 4170   0.990   6.320  10.605  0.8407  1.4973 -0.2256
   57SAPC    HB 4171   1.151   6.298  10.629 -0.7287  1.3488  1.1036
   57SAPC    C2 4172   1.091   6.246  10.419  0.6673 -0.7513 -0.3085
   57SAPC    HS 4173   1.089   6.350  10.381  1.9840 -0.5423  0.1333
   57SAPC   O21 4174   1.000   6.160  10.351 -0.4609  0.0416 -0.1986
   57SAPC   C21 4175   0.875   6.195  10.342  0.6872 -0.0109 -0.9598
   57SAPC   O22 4176   0.825   6.302  10.382  0.4599 -0.2664  0.1503
   57SAPC   C22 4177   0.792   6.087  10.284  0.0640 -0.5116  0.1828
   57SAPC   H2R 4178   0.851   5.993  10.276  0.7611 -0.2705  2.0349
   57SAPC   H2S 4179   0.702   6.053  10.340 -0.4413  1.9472  0.9828
   57SAPC    C3 4180   1.235   6.211  10.373 -0.1504  0.6253 -1.0305
   57SAPC    HX 4181   1.240   6.101  10.389  0.0809  0.2396 -3.3568
   57SAPC    HY 4182   1.304   6.264  10.442 -1.3168 -0.2754  0.9227
   57SAPC   O31 4183   1.263   6.243  10.238  1.2195  0.1334 -0.1208
   57SAPC   C31 4184   1.265   6.145  10.152  0.0350 -0.2917  0.1146
   57SAPC   O32 4185   1.235   6.025  10.178 -0.3556 -0.2282 -0.0746
   57SAPC   C32 4186   1.332   6.192  10.021  0.2525  0.3582 -0.0374
   57SAPC   H2X 4187   1.442   6.174  10.023  0.2214  0.0562 -0.7659
   57SAPC   H2Y 4188   1.333   6.303  10.012  1.5476  0.3824  0.1801
   57SAPC   C23 4189   0.737   6.120  10.139  0.2753 -1.0978  0.1941
   57SAPC   H3R 4190   0.660   6.200  10.143  0.9290 -0.2651 -2.1143
   57SAPC   H3S 4191   0.696   6.033  10.085 -0.8524  1.7176 -3.9639
   57SAPC   C24 4192   0.839   6.189  10.037 -0.1683 -0.3001  0.2688
   57SAPC   H4R 4193   0.929   6.124  10.031 -1.4420 -2.0876 -0.4764
   57SAPC   H4S 4194   0.859   6.295  10.061 -1.1253  0.2515 -1.2123
   57SAPC   C25 4195   0.782   6.196   9.900  0.4979  0.2019 -0.1069
   57SAPC   H5R 4196   0.728   6.288   9.873 -0.8467 -0.1303  1.2934
   57SAPC   C26 4197   0.793   6.096   9.811  0.1687  0.2867  0.0240
   57SAPC   H6R 4198   0.770   6.117   9.706  2.0163  0.9371 -0.2963
   57SAPC   C27 4199   0.854   5.957   9.822  0.3431  0.3443 -0.1562
   57SAPC   H7R 4200   0.863   5.933   9.930 -1.0567  2.8265  0.6006
   57SAPC   H7S 4201   0.955   5.955   9.777  0.6648  0.3764  0.5581
   57SAPC   C28 4202   0.772   5.837   9.769 -0.3741 -0.2946  0.3550
   57SAPC   H8R 4203   0.726   5.856   9.671  2.0348  1.2978 -0.5499
   57SAPC   C29 4204   0.754   5.716   9.818  0.0118  0.0768  0.2249
   57SAPC   H9R 4205   0.685   5.652   9.761 -2.1310 -0.2355  2.9427
   57SAPC  C210 4206   0.806   5.649   9.945  0.0456 -0.8397  0.4184
   57SAPC  H10R 4207   0.745   5.684  10.031  0.2608  0.1333  0.1810
   57SAPC  H10S 4208   0.907   5.688   9.971 -0.5678  0.0813  1.4987
   57SAPC  C211 4209   0.812   5.495   9.943  0.1085 -0.4145  0.1742
   57SAPC  H11R 4210   0.719   5.441   9.969  0.2770  0.2313  2.3137
   57SAPC  C212 4211   0.921   5.428   9.892  0.0835  0.3022  0.0447
   57SAPC  H12R 4212   0.920   5.318   9.898 -1.1628  0.2736 -0.3799
   57SAPC  C213 4213   1.053   5.489   9.835  0.0058  0.3061 -0.0933
   57SAPC  H13R 4214   1.135   5.525   9.901  0.0470 -0.8585  0.5145
   57SAPC  H13S 4215   1.025   5.590   9.798  1.8177  0.0814 -2.2827
   57SAPC  C214 4216   1.111   5.416   9.715 -0.1001 -0.0855 -0.4616
   57SAPC  H14R 4217   1.211   5.377   9.738 -0.4432  0.2749  1.9171
   57SAPC  C215 4218   1.065   5.392   9.600  0.4595  0.1560  0.5049
   57SAPC  H15R 4219   1.128   5.340   9.526  0.9989  1.4670  0.0163
   57SAPC  C216 4220   0.933   5.445   9.541  0.3014  0.8696 -0.1811
   57SAPC  H16R 4221   0.960   5.510   9.455  0.1637  0.1586 -0.7780
   57SAPC  H16S 4222   0.879   5.493   9.624 -0.2595 -0.3778  0.1983
   57SAPC  C217 4223   0.843   5.337   9.488  0.8229  0.1352  0.4527
   57SAPC  H17R 4224   0.835   5.263   9.570 -0.0539  1.5821  1.7224
   57SAPC  H17S 4225   0.885   5.289   9.397 -0.8533 -0.4658 -0.0458
   57SAPC  C218 4226   0.700   5.385   9.459 -1.1381 -0.5759 -0.7700
   57SAPC  H18R 4227   0.707   5.476   9.396  2.3472  0.7559  1.2108
   57SAPC  H18S 4228   0.663   5.402   9.563  1.2397 -0.0480  0.0573
   57SAPC  C219 4229   0.607   5.281   9.391 -0.1154  1.0687 -0.3888
   57SAPC  H19R 4230   0.509   5.289   9.444  0.0429  0.8105 -0.0494
   57SAPC  H19S 4231   0.647   5.179   9.406  2.8997  1.8844 -2.0017
   57SAPC  C220 4232   0.598   5.308   9.240  0.2295  0.3772  0.5042
   57SAPC  H20R 4233   0.562   5.224   9.177  0.9229 -0.3288  1.0466
   57SAPC  H20S 4234   0.699   5.329   9.199 -0.5546  0.8183 -1.3416
   57SAPC  H20T 4235   0.522   5.387   9.220 -2.4020 -2.2209 -0.5481
   57SAPC   C33 4236   1.265   6.127   9.897  0.3724 -0.3480  0.0504
   57SAPC   H3X 4237   1.160   6.162   9.887  0.6206 -0.1285 -2.7186
   57SAPC   H3Y 4238   1.253   6.017   9.908 -1.4042  0.0143  2.4732
   57SAPC   C34 4239   1.339   6.148   9.767 -0.3854 -0.1672 -0.5122
   57SAPC   H4X 4240   1.448   6.152   9.787 -0.1870  0.5836 -1.7029
   57SAPC   H4Y 4241   1.322   6.250   9.726 -2.1415 -0.4354 -0.5280
   57SAPC   C35 4242   1.320   6.049   9.658  0.5855  0.5880  0.1959
   57SAPC   H5X 4243   1.336   5.943   9.684 -0.4057  0.5889  0.8724
   57SAPC   H5Y 4244   1.388   6.076   9.575  1.6035 -1.8968  0.1422
   57SAPC   C36 4245   1.169   6.050   9.607 -0.4477  0.3605 -0.3767
   57SAPC   H6X 4246   1.151   6.126   9.528 -2.6028 -0.5327 -0.8139
   57SAPC   H6Y 4247   1.087   6.059   9.681 -1.9670 -1.4647 -1.7296
   57SAPC   C37 4248   1.133   5.917   9.538  0.4264  0.1765  0.0562
   57SAPC   H7X 4249   1.119   5.844   9.621  0.2462 -2.2327 -1.9992
   57SAPC   H7Y 4250   1.217   5.878   9.477 -0.1247  1.1565 -1.3607
   57SAPC   C38 4251   0.994   5.923   9.463 -0.2836 -0.4528 -0.3080
   57SAPC   H8X 4252   1.005   5.990   9.375 -0.1637 -1.8719 -1.3951
   57SAPC   H8Y 4253   0.919   5.974   9.528 -1.4118 -1.0936 -1.0825
   57SAPC   C39 4254   0.947   5.791   9.406 -0.3831 -0.2543  0.4516
   57SAPC   H9X 4255   0.922   5.719   9.486 -0.4616 -1.2568 -0.4466
   57SAPC   H9Y 4256   1.027   5.740   9.348  2.5178  1.3278  2.7842
   57SAPC  C310 4257   0.822   5.792   9.323  0.3392 -0.3391  0.8027
   57SAPC  H10X 4258   0.760   5.882   9.341  0.8326 -0.0076  0.8674
   57SAPC  H10Y 4259   0.746   5.716   9.352 -0.5174  0.6773  1.2675
   57SAPC  C311 4260   0.856   5.783   9.175  0.7598 -0.1641 -0.2198
   57SAPC  H11X 4261   0.882   5.675   9.162 -0.3650 -0.2528 -2.3018
   57SAPC  H11Y 4262   0.942   5.850   9.155  0.6323  0.6635  1.8385
   57SAPC  C312 4263   0.738   5.820   9.085 -0.2874  0.0403 -0.6627
   57SAPC  H12X 4264   0.646   5.793   9.141  0.1877  0.3811  0.3184
   57SAPC  H12Y 4265   0.749   5.762   8.991  0.1290  0.6586 -1.0053
   57SAPC  C313 4266   0.731   5.972   9.058  0.7571  0.7168 -0.1659
   57SAPC  H13X 4267   0.821   6.005   9.002  0.4722 -1.4594 -2.0446
   57SAPC  H13Y 4268   0.732   6.029   9.154  2.6486 -2.2887  1.7927
   57SAPC  C314 4269   0.605   5.998   8.979 -0.2922 -0.1221 -0.3929
   57SAPC  H14X 4270   0.599   6.109   8.968  1.8144  0.1523  0.5576
   57SAPC  H14Y 4271   0.521   5.955   9.036  1.3874  0.5105  2.8105
   57SAPC  C315 4272   0.594   5.945   8.833 -0.1549 -0.9511  0.0842
   57SAPC  H15X 4273   0.587   5.835   8.823  0.6316 -0.9908 -0.1417
   57SAPC  H15Y 4274   0.691   5.972   8.786  0.4094  0.2490  1.7987
   57SAPC  C316 4275   0.494   6.017   8.738  0.3631 -0.2405  0.6630
   57SAPC  H16X 4276   0.464   6.118   8.774  0.2844  1.3385 -3.3299
   57SAPC  H16Y 4277   0.397   5.964   8.730  0.3658  0.0322 -2.4302
   57SAPC  C317 4278   0.539   6.032   8.591 -0.7521 -0.3946 -0.0533
   57SAPC  H17X 4279   0.642   6.073   8.585 -0.6132 -0.7433 -0.0697
   57SAPC  H17Y 4280   0.477   6.109   8.540  1.0685 -0.5640 -2.7219
   57SAPC  C318 4281   0.520   5.906   8.499  0.6047  0.5422 -0.2441
   57SAPC  H18X 4282   0.609   5.840   8.506  0.5481  0.5342  0.4532
   57SAPC  H18Y 4283   0.505   5.936   8.393  0.5121  0.2309 -0.3188
   57SAPC  H18Z 4284   0.430   5.852   8.535  0.5453  0.8741  0.1168
   58SAPC     N 4285   3.308   5.560  10.829 -1.2802 -0.4251 -0.5592
   58SAPC   C12 4286   3.167   5.541  10.794  0.0926 -0.6834  0.1778
   58SAPC  H12A 4287   3.155   5.499  10.695 -3.9494 -1.6668  0.8808
   58SAPC  H12B 4288   3.114   5.632  10.769  0.9045 -0.1695  0.2712
   58SAPC   C13 4289   3.315   5.580  10.981  0.3885 -0.3923  0.4155
   58SAPC  H13A 4290   3.418   5.588  11.013  0.2983 -2.0422  1.2004
   58SAPC  H13B 4291   3.260   5.671  11.000  0.1142  0.4121 -3.4643
   58SAPC  H13C 4292   3.270   5.496  11.030 -3.5893  1.9852  1.2526
   58SAPC   C14 4293   3.393   5.441  10.800  0.4041  0.2679  0.3257
   58SAPC  H14A 4294   3.494   5.444  10.836  1.4201 -2.3039 -1.9186
   58SAPC  H14B 4295   3.353   5.348  10.837  0.8202 -0.3988 -0.8467
   58SAPC  H14C 4296   3.414   5.438  10.694  0.9950  2.3163  0.3403
   58SAPC   C15 4297   3.377   5.680  10.770  0.1091 -0.3013 -0.3453
   58SAPC  H15A 4298   3.369   5.667  10.663  1.6176 -0.8736 -0.4208
   58SAPC  H15B 4299   3.340   5.777  10.798 -1.4507 -1.2065  0.8440
   58SAPC  H15C 4300   3.477   5.684  10.810 -0.8187 -1.2003  2.2928
   58SAPC   C11 4301   3.083   5.446  10.888  0.2742 -0.0289  0.6312
   58SAPC  H11A 4302   2.980   5.461  10.848  0.8511  0.5252 -0.6945
   58SAPC  H11B 4303   3.085   5.474  10.996  1.9365 -1.8292  1.1222
   58SAPC     P 4304   3.071   5.229  10.745  0.3014  0.0008  0.0838
   58SAPC   O13 4305   3.164   5.276  10.642  0.0604  0.0049  0.1557
   58SAPC   O14 4306   3.071   5.086  10.780  0.1123  0.3414  0.7057
   58SAPC   O12 4307   3.114   5.311  10.875 -0.1456  0.5744  0.2809
   58SAPC   O11 4308   2.925   5.280  10.711  0.7828  0.3079 -0.0801
   58SAPC    C1 4309   2.874   5.296  10.576 -0.4783 -0.1058  0.5515
   58SAPC    HA 4310   2.780   5.355  10.580 -1.8151 -2.0338 -0.9820
   58SAPC    HB 4311   2.936   5.363  10.512 -2.5737  1.9330  0.5265
   58SAPC    C2 4312   2.857   5.161  10.505 -0.0303  0.2459  0.2198
   58SAPC    HS 4313   2.856   5.083  10.584 -0.5144  0.5451  0.5100
   58SAPC   O21 4314   2.976   5.137  10.424 -0.0064  0.5892  0.1360
   58SAPC   C21 4315   2.985   5.012  10.384 -0.8374 -0.1915 -0.3457
   58SAPC   O22 4316   2.913   4.917  10.416 -0.1216 -0.2385 -0.4347
   58SAPC   C22 4317   3.114   4.997  10.304  0.2452 -0.3918 -0.1147
   58SAPC   H2R 4318   3.151   5.096  10.269  2.5656 -1.2116 -0.1511
   58SAPC   H2S 4319   3.189   4.947  10.370  0.4575 -1.8564 -1.4068
   58SAPC    C3 4320   2.720   5.162  10.425 -0.2012  0.8566  0.6152
   58SAPC    HX 4321   2.637   5.173  10.498 -0.8128  4.9969 -0.4497
   58SAPC    HY 4322   2.713   5.060  10.380 -0.1976  0.8950  0.5261
   58SAPC   O31 4323   2.701   5.274  10.344 -0.3803 -0.7589  0.9181
   58SAPC   C31 4324   2.771   5.272  10.232  0.3566  0.4907  0.7615
   58SAPC   O32 4325   2.822   5.170  10.176  0.0760 -0.4644 -0.3892
   58SAPC   C32 4326   2.763   5.409  10.164 -0.3140 -0.2851 -1.1200
   58SAPC   H2X 4327   2.657   5.426  10.137 -0.3534 -1.4175 -1.7592
   58SAPC   H2Y 4328   2.816   5.396  10.066  1.9235 -3.1848  0.2976
   58SAPC   C23 4329   3.085   4.920  10.173  0.4419  0.6903 -0.1359
   58SAPC   H3R 4330   3.007   4.980  10.120  0.8437  1.1831 -0.1853
   58SAPC   H3S 4331   3.041   4.820  10.190  0.7525  0.5707 -0.0448
   58SAPC   C24 4332   3.210   4.883  10.081  0.0910 -0.3260 -0.1067
   58SAPC   H4R 4333   3.164   4.827   9.997 -0.7231  0.0624  0.0745
   58SAPC   H4S 4334   3.268   4.816  10.149  1.2942  1.0358  0.2646
   58SAPC   C25 4335   3.312   4.983  10.037  0.1563  0.7164  0.7686
   58SAPC   H5R 4336   3.358   5.047  10.113  5.0511 -1.2303 -0.1893
   58SAPC   C26 4337   3.366   4.987   9.911 -0.1942  0.5391 -0.0963
   58SAPC   H6R 4338   3.448   5.053   9.881  0.1532 -0.1679 -0.7258
   58SAPC   C27 4339   3.327   4.893   9.795 -0.4110  0.3576 -0.1012
   58SAPC   H7R 4340   3.316   4.786   9.820 -0.3132  0.7095  1.5912
   58SAPC   H7S 4341   3.408   4.906   9.721 -0.2647  1.2174  0.1994
   58SAPC   C28 4342   3.193   4.933   9.728 -0.3540 -0.1681 -0.1170
   58SAPC   H8R 4343   3.139   4.999   9.798 -2.0021  0.3168 -1.7687
   58SAPC   C29 4344   3.142   4.893   9.609 -0.3081  0.4955 -0.4849
   58SAPC   H9R 4345   3.042   4.929   9.580 -0.7326 -0.6757 -0.5535
   58SAPC  C210 4346   3.200   4.804   9.501 -0.0122 -0.4573  0.0468
   58SAPC  H10R 4347   3.136   4.716   9.479  3.6185 -3.0621 -1.0000
   58SAPC  H10S 4348   3.296   4.762   9.537  0.8743  0.1283 -1.5516
   58SAPC  C211 4349   3.231   4.883   9.379 -0.3387 -0.0710 -0.5446
   58SAPC  H11R 4350   3.268   4.984   9.403 -1.2493 -0.2171  1.6148
   58SAPC  C212 4351   3.241   4.837   9.252  1.0427  0.3357 -0.4687
   58SAPC  H12R 4352   3.267   4.910   9.174  2.3582  1.5506  1.0378
   58SAPC  C213 4353   3.210   4.693   9.208 -0.9664 -0.0957  0.2024
   58SAPC  H13R 4354   3.163   4.709   9.109  0.4551 -2.5784 -0.9906
   58SAPC  H13S 4355   3.153   4.629   9.279  0.5708 -1.6850  0.0996
   58SAPC  C214 4356   3.341   4.610   9.187  0.0111  0.3961 -0.6254
   58SAPC  H14R 4357   3.380   4.563   9.279 -0.4077  3.4893  1.2879
   58SAPC  C215 4358   3.402   4.579   9.073  0.9669 -0.6964 -0.4327
   58SAPC  H15R 4359   3.492   4.515   9.071  1.2316 -0.3481  0.0042
   58SAPC  C216 4360   3.354   4.618   8.935  0.2711 -0.4839  0.3176
   58SAPC  H16R 4361   3.450   4.606   8.881  1.0394 -0.7378  1.6834
   58SAPC  H16S 4362   3.316   4.723   8.933 -0.1385 -0.6337 -0.1644
   58SAPC  C217 4363   3.229   4.524   8.883 -1.0319 -0.7328 -0.3715
   58SAPC  H17R 4364   3.147   4.559   8.949 -0.6749  0.3609 -0.4812
   58SAPC  H17S 4365   3.244   4.416   8.904 -0.2984 -0.7189 -0.7897
   58SAPC  C218 4366   3.205   4.544   8.732 -0.6916  0.5097 -0.4320
   58SAPC  H18R 4367   3.177   4.649   8.707  0.2567  0.9761  0.4112
   58SAPC  H18S 4368   3.117   4.481   8.706  0.1165 -1.7876  1.9813
   58SAPC  C219 4369   3.314   4.494   8.642 -0.3670  0.0994  0.1392
   58SAPC  H19R 4370   3.332   4.386   8.662 -0.3992  0.2631  1.1083
   58SAPC  H19S 4371   3.410   4.542   8.672 -1.0299 -0.3893  3.4138
   58SAPC  C220 4372   3.291   4.537   8.499  0.5504 -0.7523  0.1823
   58SAPC  H20R 4373   3.302   4.647   8.490  0.8603 -0.7714  0.3092
   58SAPC  H20S 4374   3.188   4.522   8.460  0.6920 -1.4938  0.0672
   58SAPC  H20T 4375   3.361   4.491   8.426 -2.0314 -0.3678 -2.7234
   58SAPC   C33 4376   2.822   5.534  10.237 -0.0109  0.0741  0.2184
   58SAPC   H3X 4377   2.918   5.508  10.287 -0.6180 -3.2098 -0.0879
   58SAPC   H3Y 4378   2.755   5.562  10.320  1.7745  1.6492  1.2139
   58SAPC   C34 4379   2.857   5.651  10.142 -0.2540 -0.4626 -0.2621
   58SAPC   H4X 4380   2.933   5.612  10.071 -1.8529  0.2439 -2.4370
   58SAPC   H4Y 4381   2.909   5.732  10.197 -1.1926 -0.7226  1.0629
   58SAPC   C35 4382   2.739   5.698  10.062 -0.4711  0.5430 -0.0799
   58SAPC   H5X 4383   2.654   5.702  10.133 -1.3622 -2.1027 -0.8538
   58SAPC   H5Y 4384   2.711   5.620   9.987 -4.2149  2.9925 -1.4931
   58SAPC   C36 4385   2.773   5.821   9.987  0.7233 -0.5276  0.0007
   58SAPC   H6X 4386   2.877   5.811   9.948  0.3102 -2.7875 -0.6509
   58SAPC   H6Y 4387   2.764   5.892  10.072 -1.2429  0.4442 -0.9627
   58SAPC   C37 4388   2.670   5.854   9.866 -0.6572 -0.4685  0.3399
   58SAPC   H7X 4389   2.675   5.965   9.859  1.6744 -0.2833  3.0384
   58SAPC   H7Y 4390   2.570   5.827   9.906 -1.7546  0.4576 -1.6730
   58SAPC   C38 4391   2.714   5.781   9.733  0.5049 -0.6196 -0.0206
   58SAPC   H8X 4392   2.708   5.671   9.748 -0.2921 -0.4745  0.8154
   58SAPC   H8Y 4393   2.817   5.817   9.711 -0.3268  2.6676  0.8864
   58SAPC   C39 4394   2.629   5.836   9.615 -0.6122 -0.3685 -0.3259
   58SAPC   H9X 4395   2.641   5.947   9.618 -0.4284 -0.3875 -0.3830
   58SAPC   H9Y 4396   2.522   5.807   9.620 -1.0813  1.1334 -1.0761
   58SAPC  C310 4397   2.675   5.787   9.481 -0.3120  0.2352  0.1113
   58SAPC  H10X 4398   2.701   5.679   9.472 -3.4172 -0.4470 -2.8903
   58SAPC  H10Y 4399   2.765   5.850   9.466 -0.8026  1.2061  1.0885
   58SAPC  C311 4400   2.580   5.811   9.367  0.3663  0.0501 -0.2458
   58SAPC  H11X 4401   2.543   5.914   9.388  2.3058  1.0857 -1.5078
   58SAPC  H11Y 4402   2.501   5.734   9.361 -0.5817  0.9751 -0.0618
   58SAPC  C312 4403   2.645   5.822   9.229 -1.2483 -0.3951 -0.4751
   58SAPC  H12X 4404   2.681   5.723   9.195  0.2238  0.4443 -1.5181
   58SAPC  H12Y 4405   2.733   5.888   9.241 -0.6669 -1.2061 -0.1875
   58SAPC  C313 4406   2.549   5.881   9.127  0.5056  0.1002 -0.8801
   58SAPC  H13X 4407   2.513   5.978   9.168 -1.9896 -0.0728 -2.4528
   58SAPC  H13Y 4408   2.461   5.814   9.111 -1.5408  2.0968  1.1540
   58SAPC  C314 4409   2.591   5.882   8.986 -0.0739 -0.2784  0.1232
   58SAPC  H14X 4410   2.684   5.937   8.959 -0.3073 -0.3312 -0.8506
   58SAPC  H14Y 4411   2.517   5.950   8.938  0.7450 -0.8270 -2.0512
   58SAPC  C315 4412   2.587   5.748   8.917  0.2831  0.5439 -0.5771
   58SAPC  H15X 4413   2.490   5.693   8.922  0.7557 -0.2299  0.5345
   58SAPC  H15Y 4414   2.655   5.676   8.969 -0.4628  0.7363  0.7155
   58SAPC  C316 4415   2.633   5.765   8.769 -0.1909 -0.1970  0.1405
   58SAPC  H16X 4416   2.733   5.812   8.768  0.2153 -1.0244 -1.5622
   58SAPC  H16Y 4417   2.569   5.843   8.723 -0.4817 -1.2184 -1.2594
   58SAPC  C317 4418   2.654   5.642   8.687 -0.1750  0.5316  1.7108
   58SAPC  H17X 4419   2.555   5.592   8.681  0.2564 -0.2464  0.7075
   58SAPC  H17Y 4420   2.729   5.576   8.736 -0.1323 -1.6533 -1.0413
   58SAPC  C318 4421   2.715   5.677   8.544  0.5362 -0.3695  0.2846
   58SAPC  H18X 4422   2.642   5.743   8.493  0.0253  0.0288  1.4891
   58SAPC  H18Y 4423   2.723   5.585   8.483 -3.9188 -0.9748  0.3012
   58SAPC  H18Z 4424   2.814   5.728   8.547 -1.0571  2.9918 -0.0941
   59SAPC     N 4425   4.828   5.001  11.255 -0.2551  0.4301 -0.6187
   59SAPC   C12 4426   4.757   5.031  11.127  0.1600  0.2024  0.5888
   59SAPC  H12A 4427   4.689   4.956  11.089  0.7481 -1.1638  2.1230
   59SAPC  H12B 4428   4.833   5.040  11.050 -0.5442 -0.4850 -0.2087
   59SAPC   C13 4429   4.870   4.857  11.253 -0.2749 -0.5603 -0.2130
   59SAPC  H13A 4430   4.937   4.841  11.170 -2.2515  2.0536 -2.5137
   59SAPC  H13B 4431   4.926   4.831  11.341 -1.3087  2.5636  1.5340
   59SAPC  H13C 4432   4.786   4.791  11.238 -1.8191  1.1687  0.3686
   59SAPC   C14 4433   4.949   5.085  11.279 -0.7815 -0.5104  0.1365
   59SAPC  H14A 4434   4.911   5.186  11.286  1.5329  0.3595  1.0554
   59SAPC  H14B 4435   5.006   5.063  11.368 -1.5070  1.6669  1.2011
   59SAPC  H14C 4436   5.016   5.085  11.194 -1.4995 -2.1899 -0.4896
   59SAPC   C15 4437   4.738   5.015  11.377  0.7549 -0.5124 -0.4225
   59SAPC  H15A 4438   4.723   5.116  11.413 -0.0777 -1.6071  2.6831
   59SAPC  H15B 4439   4.642   4.968  11.363 -0.6362  1.8580  0.5837
   59SAPC  H15C 4440   4.781   4.966  11.463 -0.2950  1.1417  1.1221
   59SAPC   C11 4441   4.682   5.166  11.114 -0.4735  0.2800 -0.1356
   59SAPC  H11A 4442   4.610   5.175  11.198  0.1097  2.4779  0.1807
   59SAPC  H11B 4443   4.618   5.164  11.024 -1.3837 -2.8354  0.4496
   59SAPC     P 4444   4.743   5.406  11.181 -0.3529 -0.0863 -0.1954
   59SAPC   O13 4445   4.599   5.429  11.198 -0.0340  0.3333 -0.1192
   59SAPC   O14 4446   4.819   5.400  11.308 -0.1779  0.2079 -0.7269
   59SAPC   O12 4447   4.775   5.271  11.099  0.5907 -0.2974  0.6221
   59SAPC   O11 4448   4.807   5.526  11.103  0.1669  0.0469 -0.3772
   59SAPC    C1 4449   4.731   5.600  11.005  1.2103 -0.6691  0.2208
   59SAPC    HA 4450   4.621   5.596  11.023  1.1507  1.3590  0.5244
   59SAPC    HB 4451   4.748   5.710  11.007  1.2218 -0.5860 -1.8945
   59SAPC    C2 4452   4.753   5.545  10.860  0.7893  0.1796  1.0885
   59SAPC    HS 4453   4.721   5.615  10.780  2.8809  1.0747  0.9646
   59SAPC   O21 4454   4.682   5.421  10.836  0.3563  0.2319  0.5932
   59SAPC   C21 4455   4.552   5.431  10.794  0.2947  0.1561 -0.0768
   59SAPC   O22 4456   4.493   5.533  10.761  0.1538 -0.4563 -0.1160
   59SAPC   C22 4457   4.481   5.300  10.827 -0.2459 -0.1207  0.5015
   59SAPC   H2R 4458   4.552   5.216  10.813 -0.7945 -0.2591 -1.8569
   59SAPC   H2S 4459   4.442   5.315  10.930  1.5367  0.9117  1.0743
   59SAPC    C3 4460   4.898   5.530  10.827 -0.5080  0.2789  0.2548
   59SAPC    HX 4461   4.944   5.467  10.906  2.3222  3.0059  0.9665
   59SAPC    HY 4462   4.938   5.631  10.848  0.2140 -0.5218  3.2357
   59SAPC   O31 4463   4.919   5.487  10.693  0.1881  0.2030 -0.4127
   59SAPC   C31 4464   4.914   5.570  10.596 -0.1325 -0.0756 -0.5366
   59SAPC   O32 4465   4.922   5.690  10.604 -0.3700  0.0828  0.3586
   59SAPC   C32 4466   4.908   5.499  10.467 -0.1412  0.7767 -0.3293
   59SAPC   H2X 4467   4.936   5.392  10.474 -2.5189  0.0281 -1.3181
   59SAPC   H2Y 4468   4.985   5.553  10.408  1.4874  1.4288  2.2084
   59SAPC   C23 4469   4.361   5.269  10.741 -0.1972  0.1729  0.1293
   59SAPC   H3R 4470   4.274   5.331  10.772 -0.6964  0.5371 -1.8603
   59SAPC   H3S 4471   4.335   5.163  10.758 -1.0269  0.1760 -0.9916
   59SAPC   C24 4472   4.401   5.274  10.586 -0.3253 -0.2117 -1.0587
   59SAPC   H4R 4473   4.442   5.375  10.563  0.3121 -0.3246 -0.4480
   59SAPC   H4S 4474   4.309   5.262  10.525 -0.4702  1.8838 -1.3377
   59SAPC   C25 4475   4.503   5.172  10.550  0.2722 -0.0267  0.2962
   59SAPC   H5R 4476   4.600   5.190  10.600  0.0924  1.1600  0.2532
   59SAPC   C26 4477   4.500   5.069  10.465  0.6683  0.4386  0.3711
   59SAPC   H6R 4478   4.591   5.008  10.454  0.0443 -0.2976 -1.0205
   59SAPC   C27 4479   4.371   5.030  10.389 -0.4810  0.9142 -0.9250
   59SAPC   H7R 4480   4.351   5.098  10.304 -0.7374 -0.7026 -2.2173
   59SAPC   H7S 4481   4.275   5.039  10.443 -0.3683  0.9441 -0.7299
   59SAPC   C28 4482   4.367   4.888  10.336  0.6827 -0.2471  0.2834
   59SAPC   H8R 4483   4.382   4.804  10.405 -2.0424 -1.4207 -0.3983
   59SAPC   C29 4484   4.343   4.856  10.204 -0.0583  0.2896  0.4250
   59SAPC   H9R 4485   4.354   4.749  10.182 -1.0909  0.2782 -0.1280
   59SAPC  C210 4486   4.327   4.943  10.084 -0.4579 -0.2522  0.7649
   59SAPC  H10R 4487   4.285   5.042  10.115  1.2799  1.4288 -1.8058
   59SAPC  H10S 4488   4.243   4.899  10.026  0.6662 -3.1329  1.1821
   59SAPC  C211 4489   4.460   4.966  10.009  0.2811  0.3341 -0.0420
   59SAPC  H11R 4490   4.535   5.002  10.081 -0.6778  0.8724  0.7008
   59SAPC  C212 4491   4.483   4.960   9.878 -0.1361  0.3847 -0.5343
   59SAPC  H12R 4492   4.582   5.000   9.850  0.2151  1.7674  2.3448
   59SAPC  C213 4493   4.382   4.924   9.768  0.4577  0.2185 -0.5338
   59SAPC  H13R 4494   4.386   5.003   9.690  1.5564  1.4267  0.6945
   59SAPC  H13S 4495   4.278   4.922   9.805  0.8996  1.3680  0.8618
   59SAPC  C214 4496   4.411   4.787   9.716  0.1162  0.8898 -0.8781
   59SAPC  H14R 4497   4.493   4.743   9.775 -1.2683  0.0447  0.4903
   59SAPC  C215 4498   4.341   4.715   9.627 -0.0049  0.1915  0.3282
   59SAPC  H15R 4499   4.363   4.608   9.612  0.8584  0.3776  0.2244
   59SAPC  C216 4500   4.223   4.778   9.554  0.1310 -0.3055  0.5462
   59SAPC  H16R 4501   4.200   4.880   9.590  1.0733  0.7958 -1.7834
   59SAPC  H16S 4502   4.134   4.718   9.583 -0.5362 -0.4666 -1.6716
   59SAPC  C217 4503   4.229   4.786   9.404  0.0512  0.2792 -0.9036
   59SAPC  H17R 4504   4.316   4.853   9.384  1.1712 -0.9165 -0.1784
   59SAPC  H17S 4505   4.143   4.847   9.367  0.3750  2.3392  1.4945
   59SAPC  C218 4506   4.232   4.643   9.348  0.2314  0.2665 -0.0879
   59SAPC  H18R 4507   4.126   4.616   9.366  0.5716 -1.3708 -0.3345
   59SAPC  H18S 4508   4.282   4.568   9.413 -0.2794  0.4045  0.4615
   59SAPC  C219 4509   4.269   4.620   9.206  0.3113  0.2459  0.3326
   59SAPC  H19R 4510   4.198   4.678   9.143 -0.1114 -0.7267 -0.1250
   59SAPC  H19S 4511   4.246   4.514   9.182 -0.4891 -0.0315  2.1458
   59SAPC  C220 4512   4.411   4.656   9.164 -0.1705 -0.4150  0.3153
   59SAPC  H20R 4513   4.475   4.648   9.254  2.1753  3.0627 -0.8358
   59SAPC  H20S 4514   4.408   4.762   9.133 -0.4265  0.0345  1.8211
   59SAPC  H20T 4515   4.448   4.587   9.085  0.4245 -0.1291  0.3443
   59SAPC   C33 4516   4.767   5.515  10.402  0.5561 -0.7115  0.1746
   59SAPC   H3X 4517   4.759   5.614  10.353 -0.5391 -1.3663 -1.0374
   59SAPC   H3Y 4518   4.691   5.512  10.483 -0.0551  2.6878 -0.1210
   59SAPC   C34 4519   4.737   5.414  10.293 -0.3964  0.0911 -0.1490
   59SAPC   H4X 4520   4.747   5.309  10.326  2.3926  0.0792 -0.8637
   59SAPC   H4Y 4521   4.826   5.423  10.227 -0.1015  0.8874  0.3377
   59SAPC   C35 4522   4.597   5.435  10.248  0.5767  0.2071  0.0090
   59SAPC   H5X 4523   4.570   5.537  10.214 -0.4417  0.1034  0.4707
   59SAPC   H5Y 4524   4.526   5.425  10.332  0.5491 -1.0869 -0.1480
   59SAPC   C36 4525   4.564   5.324  10.144  0.2058 -1.2437 -0.2431
   59SAPC   H6X 4526   4.453   5.323  10.139 -0.0010  1.6275  1.6350
   59SAPC   H6Y 4527   4.612   5.227  10.171  1.0364 -1.7619 -3.1643
   59SAPC   C37 4528   4.635   5.354  10.009  0.2778 -0.3122 -0.3470
   59SAPC   H7X 4529   4.745   5.365  10.020  0.0068  1.3621  1.2643
   59SAPC   H7Y 4530   4.602   5.459   9.995  0.3652 -0.1497  0.5874
   59SAPC   C38 4531   4.591   5.283   9.885  0.1674  0.1350  0.8136
   59SAPC   H8X 4532   4.482   5.299   9.869  0.3501 -0.0108 -0.7918
   59SAPC   H8Y 4533   4.611   5.174   9.893 -0.9653 -0.1132  0.5411
   59SAPC   C39 4534   4.665   5.339   9.762 -0.3529 -0.7571 -0.4305
   59SAPC   H9X 4535   4.775   5.334   9.775 -0.0718  1.5358 -1.3858
   59SAPC   H9Y 4536   4.623   5.441   9.744 -0.4942  0.3302  4.5573
   59SAPC  C310 4537   4.638   5.255   9.637 -0.1452  0.0292  1.1853
   59SAPC  H10X 4538   4.528   5.266   9.621 -0.3124 -0.2433  2.0649
   59SAPC  H10Y 4539   4.660   5.146   9.647  1.4600  0.1298 -0.7867
   59SAPC  C311 4540   4.720   5.307   9.520  0.1030  0.3270 -0.2547
   59SAPC  H11X 4541   4.825   5.272   9.510  0.0319  0.5169 -1.9726
   59SAPC  H11Y 4542   4.716   5.418   9.513  2.0603  0.3592 -1.7834
   59SAPC  C312 4543   4.655   5.260   9.389 -0.1336  0.4630 -0.5757
   59SAPC  H12X 4544   4.549   5.289   9.406  0.6052  2.0005  1.9445
   59SAPC  H12Y 4545   4.672   5.151   9.376 -2.3867  0.0434 -0.3338
   59SAPC  C313 4546   4.716   5.325   9.266  0.3285 -0.5890 -0.1169
   59SAPC  H13X 4547   4.827   5.326   9.264  0.4810  4.2896 -1.5794
   59SAPC  H13Y 4548   4.691   5.433   9.270 -0.3660 -0.7928  2.1298
   59SAPC  C314 4549   4.668   5.255   9.140  0.2971  0.1534 -0.1896
   59SAPC  H14X 4550   4.558   5.269   9.128  0.6916  3.5849 -0.6792
   59SAPC  H14Y 4551   4.688   5.145   9.142  2.1240  0.4667  0.0541
   59SAPC  C315 4552   4.725   5.316   9.011  0.0538  0.3096  0.0040
   59SAPC  H15X 4553   4.702   5.424   8.997  0.3878  0.5973  1.4968
   59SAPC  H15Y 4554   4.691   5.260   8.922  3.5909  0.4724 -1.6129
   59SAPC  C316 4555   4.881   5.292   8.998  0.5832 -0.5340  0.0273
   59SAPC  H16X 4556   4.898   5.187   9.030 -1.4276 -0.1795  2.5278
   59SAPC  H16Y 4557   4.932   5.356   9.073 -0.0646  0.4770 -0.3742
   59SAPC  C317 4558   4.944   5.309   8.858  1.0237  0.1458 -0.2153
   59SAPC  H17X 4559   5.048   5.329   8.891  0.5584 -0.6806  1.9741
   59SAPC  H17Y 4560   4.902   5.386   8.790  3.1753 -0.1384 -1.9652
   59SAPC  C318 4561   4.952   5.178   8.777  0.0164  0.1210  0.6275
   59SAPC  H18X 4562   4.854   5.127   8.759 -0.0964 -0.2971  2.2828
   59SAPC  H18Y 4563   5.016   5.104   8.829 -0.1926  0.8273  1.9462
   59SAPC  H18Z 4564   5.002   5.193   8.679 -0.1460 -0.0028  0.5252
   60SAPC     N 4565   6.256   3.954  11.019  0.2212 -0.1638  0.9179
   60SAPC   C12 4566   6.349   3.857  10.938  0.8577 -0.5031 -0.7833
   60SAPC  H12A 4567   6.308   3.761  10.965 -2.8630  0.8357 -1.0614
   60SAPC  H12B 4568   6.450   3.864  10.974  0.7207 -1.6418 -0.1359
   60SAPC   C13 4569   6.112   3.943  10.980 -0.1322 -0.0496 -0.7747
   60SAPC  H13A 4570   6.099   3.965  10.875  0.8946 -0.7160 -1.0622
   60SAPC  H13B 4571   6.070   3.847  11.008 -1.2683  0.2883 -1.2808
   60SAPC  H13C 4572   6.056   4.014  11.038 -0.6548 -0.7857 -0.3585
   60SAPC   C14 4573   6.257   3.927  11.160 -0.6810 -0.4258  0.8734
   60SAPC  H14A 4574   6.221   3.828  11.185 -1.0847 -0.2112  1.1578
   60SAPC  H14B 4575   6.356   3.930  11.202 -0.3819  1.9825  0.1502
   60SAPC  H14C 4576   6.184   3.987  11.212  1.0593  1.3350  1.3640
   60SAPC   C15 4577   6.294   4.098  11.005 -0.3615 -0.7104  0.0354
   60SAPC  H15A 4578   6.381   4.123  11.064 -0.1365 -1.0696 -0.1396
   60SAPC  H15B 4579   6.312   4.124  10.901  1.1488  0.4835  0.5625
   60SAPC  H15C 4580   6.213   4.164  11.031  1.7317  2.8150 -1.5176
   60SAPC   C11 4581   6.345   3.865  10.786 -0.0266 -0.2947 -0.0926
   60SAPC  H11A 4582   6.422   3.801  10.738  0.0583  0.0956 -0.4832
   60SAPC  H11B 4583   6.368   3.970  10.757 -1.6454  0.2984  0.6338
   60SAPC     P 4584   6.156   3.902  10.618 -0.2062 -0.5364 -0.4535
   60SAPC   O13 4585   6.106   3.796  10.527  0.9465 -1.0145  0.1528
   60SAPC   O14 4586   6.064   4.008  10.670 -0.1519  0.2059  0.0014
   60SAPC   O12 4587   6.223   3.823  10.740  0.5075 -0.4304  0.2272
   60SAPC   O11 4588   6.277   3.980  10.548  0.0202 -0.5555  1.0181
   60SAPC    C1 4589   6.330   3.926  10.425 -0.2264  0.5577 -0.2765
   60SAPC    HA 4590   6.360   3.822  10.451  0.2341  1.3256  2.7017
   60SAPC    HB 4591   6.259   3.924  10.340 -0.0139 -0.1941 -0.4519
   60SAPC    C2 4592   6.450   4.010  10.377 -0.5618  0.0212 -0.0247
   60SAPC    HS 4593   6.529   3.999  10.455  0.4598  0.6502 -0.9563
   60SAPC   O21 4594   6.411   4.149  10.369 -0.7368  0.0896  0.0463
   60SAPC   C21 4595   6.516   4.231  10.372  0.3514 -0.5024  0.6081
   60SAPC   O22 4596   6.635   4.202  10.380  0.3164 -0.2276 -0.0481
   60SAPC   C22 4597   6.469   4.379  10.342  0.5146  0.2706  0.1773
   60SAPC   H2R 4598   6.394   4.378  10.260  2.1779 -0.6867 -1.3757
   60SAPC   H2S 4599   6.413   4.409  10.434  0.9986  0.6398  0.3564
   60SAPC    C3 4600   6.509   3.964  10.234  0.6074 -1.1300  0.2935
   60SAPC    HX 4601   6.607   4.013  10.218  0.2015  0.0694  1.3119
   60SAPC    HY 4602   6.430   3.999  10.164 -0.7775  0.8489  2.6864
   60SAPC   O31 4603   6.519   3.817  10.241 -0.8101  0.5213 -0.0130
   60SAPC   C31 4604   6.586   3.771  10.134 -0.3377  0.8101 -0.4233
   60SAPC   O32 4605   6.645   3.843  10.055  0.3805  0.2534 -0.1888
   60SAPC   C32 4606   6.575   3.619  10.133 -0.3977  0.6133  0.6100
   60SAPC   H2X 4607   6.498   3.587  10.207  0.4894 -0.3607  1.1396
   60SAPC   H2Y 4608   6.669   3.577  10.174 -0.2251 -1.6445 -1.8293
   60SAPC   C23 4609   6.581   4.474  10.298 -0.1925 -0.5176  0.1578
   60SAPC   H3R 4610   6.680   4.447  10.341 -0.8001 -0.7594  1.4484
   60SAPC   H3S 4611   6.559   4.572  10.345 -0.5052 -0.3006 -0.4169
   60SAPC   C24 4612   6.585   4.494  10.149  0.1263 -0.4841 -0.0098
   60SAPC   H4R 4613   6.640   4.591  10.143 -0.2805 -0.1458  1.4455
   60SAPC   H4S 4614   6.482   4.524  10.120  1.1228  0.8679 -2.4945
   60SAPC   C25 4615   6.658   4.385  10.073  0.0720  0.3892  0.5303
   60SAPC   H5R 4616   6.742   4.339  10.126 -1.2413 -1.8964  0.7647
   60SAPC   C26 4617   6.631   4.334   9.952  1.0938  0.4918  0.2060
   60SAPC   H6R 4618   6.705   4.263   9.912  1.1413  0.8008 -0.2676
   60SAPC   C27 4619   6.518   4.367   9.856 -0.2424  0.0396 -0.3949
   60SAPC   H7R 4620   6.423   4.329   9.898  0.5610  0.8837  2.3714
   60SAPC   H7S 4621   6.543   4.308   9.765  2.9648  1.8965 -0.8777
   60SAPC   C28 4622   6.500   4.503   9.800  0.1765  0.2621 -0.4147
   60SAPC   H8R 4623   6.515   4.570   9.886 -0.6305 -1.2562  0.9603
   60SAPC   C29 4624   6.467   4.540   9.676  0.6870 -0.7516 -0.5848
   60SAPC   H9R 4625   6.436   4.645   9.667 -0.3784 -1.1512 -1.8429
   60SAPC  C210 4626   6.422   4.450   9.565 -0.1803  0.1577  0.3335
   60SAPC  H10R 4627   6.466   4.348   9.574  0.8646  0.5726  0.0291
   60SAPC  H10S 4628   6.477   4.481   9.474  0.3235 -1.1037  0.1741
   60SAPC  C211 4629   6.271   4.459   9.539 -0.9703 -0.0838 -0.3478
   60SAPC  H11R 4630   6.202   4.448   9.624 -0.9414 -1.3621 -0.4615
   60SAPC  C212 4631   6.211   4.453   9.413  0.2139 -0.1020  0.1333
   60SAPC  H12R 4632   6.102   4.442   9.412  0.0671  1.0505 -1.4484
   60SAPC  C213 4633   6.273   4.452   9.277  0.3699 -0.1771 -0.1315
   60SAPC  H13R 4634   6.383   4.438   9.268  0.5817  1.6482 -0.6699
   60SAPC  H13S 4635   6.270   4.558   9.244 -0.5383  0.0582  0.6569
   60SAPC  C214 4636   6.201   4.374   9.175  0.6895  0.1268 -1.3312
   60SAPC  H14R 4637   6.115   4.308   9.197  0.2023  0.7693 -1.2834
   60SAPC  C215 4638   6.236   4.375   9.049  0.0042  0.3121  0.1067
   60SAPC  H15R 4639   6.190   4.301   8.981 -1.1876 -0.0256  1.2522
   60SAPC  C216 4640   6.350   4.444   8.983 -0.4990 -0.2659 -0.6292
   60SAPC  H16R 4641   6.363   4.544   9.028  1.2076  0.4747 -2.6135
   60SAPC  H16S 4642   6.311   4.461   8.880 -3.8385  0.0873  0.5574
   60SAPC  C217 4643   6.492   4.387   8.960 -0.0181 -0.9221  0.1785
   60SAPC  H17R 4644   6.532   4.375   9.063 -1.6160  1.4132  1.1458
   60SAPC  H17S 4645   6.553   4.465   8.909  1.7819 -2.3358  0.0620
   60SAPC  C218 4646   6.486   4.252   8.886  1.2759  0.7966 -0.5689
   60SAPC  H18R 4647   6.422   4.252   8.795 -1.7008  1.0267  1.3921
   60SAPC  H18S 4648   6.445   4.181   8.960  2.0140 -0.5435 -1.4071
   60SAPC  C219 4649   6.626   4.215   8.837  0.0217 -0.1168  0.2051
   60SAPC  H19R 4650   6.605   4.122   8.780 -0.0164 -0.0842  0.1655
   60SAPC  H19S 4651   6.679   4.182   8.929 -0.6597 -2.7037 -0.2544
   60SAPC  C220 4652   6.708   4.306   8.743 -0.5936  0.3328 -0.0727
   60SAPC  H20R 4653   6.744   4.394   8.801  0.2833 -0.0404 -0.0380
   60SAPC  H20S 4654   6.648   4.342   8.657  0.0046  3.0593  0.5270
   60SAPC  H20T 4655   6.798   4.252   8.706 -1.5333 -0.9612 -0.5327
   60SAPC   C33 4656   6.541   3.539  10.007  0.0697  0.5249  0.0408
   60SAPC   H3X 4657   6.458   3.589   9.952 -0.0363 -0.3307 -0.6117
   60SAPC   H3Y 4658   6.508   3.440  10.046  1.3254 -0.1372 -0.5356
   60SAPC   C34 4659   6.674   3.525   9.929  0.1835 -0.5271  0.6561
   60SAPC   H4X 4660   6.737   3.464   9.998 -1.4161 -1.0473  1.7202
   60SAPC   H4Y 4661   6.722   3.624   9.916 -2.0608  0.4491 -0.5926
   60SAPC   C35 4662   6.676   3.462   9.794  0.7152 -0.5504  0.1035
   60SAPC   H5X 4663   6.610   3.372   9.792  0.3652 -0.2898 -0.1989
   60SAPC   H5Y 4664   6.781   3.432   9.776  1.5238 -0.1765  3.6002
   60SAPC   C36 4665   6.635   3.548   9.677 -0.0751  0.1289  0.0278
   60SAPC   H6X 4666   6.694   3.642   9.688  4.3504 -2.6798  4.8104
   60SAPC   H6Y 4667   6.525   3.558   9.664 -0.1865 -0.1490  0.6950
   60SAPC   C37 4668   6.675   3.494   9.539 -0.0617 -0.2033  0.8059
   60SAPC   H7X 4669   6.649   3.386   9.534 -0.2688 -0.3111  3.1067
   60SAPC   H7Y 4670   6.785   3.489   9.537 -0.0268  0.3039 -1.6854
   60SAPC   C38 4671   6.623   3.582   9.422  0.1796 -0.6203  0.3280
   60SAPC   H8X 4672   6.692   3.668   9.407 -1.5101  1.0059  1.3571
   60SAPC   H8Y 4673   6.534   3.634   9.464  0.0347 -0.1813 -0.4958
   60SAPC   C39 4674   6.574   3.513   9.290  0.5726  0.0916 -0.5626
   60SAPC   H9X 4675   6.491   3.580   9.257 -0.3245  0.1924  1.6691
   60SAPC   H9Y 4676   6.527   3.416   9.317  2.4418 -0.0450  2.7613
   60SAPC  C310 4677   6.684   3.483   9.187 -0.5346 -0.1210  0.4649
   60SAPC  H10X 4678   6.721   3.378   9.189  2.2980  0.7567 -0.7555
   60SAPC  H10Y 4679   6.771   3.547   9.212 -1.5950  1.0939  1.1579
   60SAPC  C311 4680   6.649   3.517   9.037  0.0437 -0.0810 -0.2114
   60SAPC  H11X 4681   6.608   3.620   9.031  0.6837  0.1213 -1.2707
   60SAPC  H11Y 4682   6.570   3.450   8.997 -1.5845  2.8900 -2.3615
   60SAPC  C312 4683   6.779   3.516   8.962 -0.4415 -0.6906  0.6551
   60SAPC  H12X 4684   6.816   3.412   8.951 -0.3093 -0.5717 -0.1120
   60SAPC  H12Y 4685   6.859   3.582   9.001  0.4535 -0.6398 -1.1550
   60SAPC  C313 4686   6.758   3.557   8.815  0.4084  0.5049  0.5027
   60SAPC  H13X 4687   6.654   3.533   8.783  0.1223 -1.4743  2.6836
   60SAPC  H13Y 4688   6.834   3.504   8.755 -0.4023  0.9197 -0.9625
   60SAPC  C314 4689   6.795   3.713   8.798  0.1261 -0.2276 -0.0184
   60SAPC  H14X 4690   6.901   3.737   8.820 -0.0665  1.0646 -0.4425
   60SAPC  H14Y 4691   6.730   3.776   8.863  0.4793  0.9707 -0.8015
   60SAPC  C315 4692   6.761   3.751   8.653 -0.4754  0.1552 -0.3922
   60SAPC  H15X 4693   6.783   3.666   8.584  1.2284  2.3465 -2.7741
   60SAPC  H15Y 4694   6.841   3.825   8.629 -0.7680  0.2343 -1.1814
   60SAPC  C316 4695   6.623   3.815   8.621 -0.0188  0.3190 -0.0564
   60SAPC  H16X 4696   6.605   3.910   8.675 -0.9095 -0.3947  0.9406
   60SAPC  H16Y 4697   6.549   3.751   8.675  1.6450  0.2083  2.2594
   60SAPC  C317 4698   6.598   3.833   8.476 -0.1315 -0.3959 -0.0752
   60SAPC  H17X 4699   6.492   3.867   8.470  0.4285  1.7809  1.2236
   60SAPC  H17Y 4700   6.601   3.742   8.414  0.4338 -0.6201  0.2721
   60SAPC  C318 4701   6.682   3.946   8.420 -0.7193 -0.3830 -0.1081
   60SAPC  H18X 4702   6.681   4.034   8.488 -0.5313 -0.7930  0.4338
   60SAPC  H18Y 4703   6.656   3.981   8.318 -0.7806 -0.1432 -0.0115
   60SAPC  H18Z 4704   6.789   3.916   8.415 -0.2631  1.3737 -2.4303
   61SAPC     N 4705   0.167   4.187  10.914 -0.2640  0.4254 -0.0079
   61SAPC   C12 4706   0.185   4.158  10.765 -0.1726 -0.2447 -0.1004
   61SAPC  H12A 4707   0.178   4.251  10.711  1.9491  0.1989  0.3139
   61SAPC  H12B 4708   0.109   4.088  10.733  0.6270 -0.1770 -2.3251
   61SAPC   C13 4709   0.252   4.298  10.963 -1.0036 -0.0248 -0.6235
   61SAPC  H13A 4710   0.260   4.294  11.071 -0.1499  0.6992 -0.6467
   61SAPC  H13B 4711   0.356   4.296  10.933 -0.8521  2.7442 -0.5454
   61SAPC  H13C 4712   0.214   4.393  10.929 -1.3861 -0.5090 -1.5550
   61SAPC   C14 4713   0.029   4.231  10.950 -0.0029 -0.3041  0.2897
   61SAPC  H14A 4714   0.012   4.329  10.907 -2.0419  0.2148  2.0882
   61SAPC  H14B 4715  -0.044   4.164  10.905 -0.3738  0.7048 -0.6801
   61SAPC  H14C 4716   0.026   4.250  11.056  1.0539 -0.3566  0.3356
   61SAPC   C15 4717   0.200   4.056  10.982 -0.0076  0.1652 -0.2012
   61SAPC  H15A 4718   0.293   4.013  10.948 -0.9323 -1.2453 -1.0561
   61SAPC  H15B 4719   0.204   4.086  11.085  0.8370 -0.4689 -0.0440
   61SAPC  H15C 4720   0.123   3.980  10.975 -0.5261  0.7793 -1.6223
   61SAPC   C11 4721   0.321   4.094  10.713  0.4590 -0.2255  0.2517
   61SAPC  H11A 4722   0.307   4.049  10.612  0.0772  1.6560 -0.5773
   61SAPC  H11B 4723   0.357   4.016  10.783  0.7450 -1.4262 -1.1847
   61SAPC     P 4724   0.561   4.180  10.656 -0.1020 -0.4184 -0.1138
   61SAPC   O13 4725   0.613   4.306  10.599 -0.0597  0.5617 -0.2394
   61SAPC   O14 4726   0.641   4.117  10.766 -0.0630 -0.2417  0.6849
   61SAPC   O12 4727   0.414   4.203  10.710  0.0327 -0.2178  0.2487
   61SAPC   O11 4728   0.546   4.073  10.547 -0.2190 -0.0345 -0.2984
   61SAPC    C1 4729   0.483   4.091  10.423 -0.3479  0.2305  0.0811
   61SAPC    HA 4730   0.407   4.011  10.416  0.8730 -0.9961  0.2983
   61SAPC    HB 4731   0.442   4.194  10.415 -1.7295 -0.4160 -1.6864
   61SAPC    C2 4732   0.578   4.052  10.305  0.4664  0.0307 -0.2407
   61SAPC    HS 4733   0.632   4.145  10.276  2.5354 -0.8176  0.6594
   61SAPC   O21 4734   0.508   3.995  10.193 -0.5794  0.1166  0.2828
   61SAPC   C21 4735   0.435   4.078  10.125  1.1234  0.4824  0.1584
   61SAPC   O22 4736   0.424   4.194  10.147 -0.0390 -0.2427 -0.0829
   61SAPC   C22 4737   0.369   4.001  10.015  0.0220 -0.5053  0.4871
   61SAPC   H2R 4738   0.439   3.976   9.932 -1.8255 -1.8353 -0.7343
   61SAPC   H2S 4739   0.341   3.907  10.067  0.8958 -0.1996  1.5436
   61SAPC    C3 4740   0.692   3.955  10.363 -0.2284  0.7622  0.3333
   61SAPC    HX 4741   0.647   3.864  10.408  0.6116 -0.6112 -1.4499
   61SAPC    HY 4742   0.756   4.005  10.439  0.3068  1.3071 -0.4573
   61SAPC   O31 4743   0.768   3.900  10.252  0.0090 -0.0676 -0.8678
   61SAPC   C31 4744   0.883   3.958  10.221  0.0525  0.1110 -0.4857
   61SAPC   O32 4745   0.924   4.059  10.277 -0.0072  0.2797 -0.4521
   61SAPC   C32 4746   0.944   3.891  10.100  0.3457 -0.3346 -0.0077
   61SAPC   H2X 4747   0.869   3.883  10.019  1.6940 -0.1238 -1.3253
   61SAPC   H2Y 4748   0.973   3.787  10.125 -0.3733 -0.2650  1.1945
   61SAPC   C23 4749   0.236   4.069   9.956  0.1360  0.7204  0.1575
   61SAPC   H3R 4750   0.240   4.180   9.948  1.0041  0.6621 -0.3197
   61SAPC   H3S 4751   0.145   4.046  10.015  0.1083 -2.9419 -1.0708
   61SAPC   C24 4752   0.205   4.022   9.810  0.3903 -0.4641  0.5381
   61SAPC   H4R 4753   0.300   4.022   9.753  0.1536 -1.2545  0.1256
   61SAPC   H4S 4754   0.145   4.090   9.745  2.2684  0.5424 -0.2078
   61SAPC   C25 4755   0.152   3.881   9.804  0.2563  0.6787  0.8856
   61SAPC   H5R 4756   0.056   3.871   9.857 -1.0220 -0.0704 -1.4371
   61SAPC   C26 4757   0.203   3.782   9.722 -0.8391  0.2880  0.7050
   61SAPC   H6R 4758   0.173   3.679   9.746 -2.8487  1.3740  3.2120
   61SAPC   C27 4759   0.321   3.804   9.623  0.1144  0.7163 -0.6867
   61SAPC   H7R 4760   0.417   3.825   9.675 -1.0163  1.1292  1.3240
   61SAPC   H7S 4761   0.309   3.899   9.566  0.2763  2.5337  2.1226
   61SAPC   C28 4762   0.341   3.691   9.524  0.6735 -0.1441  0.0646
   61SAPC   H8R 4763   0.407   3.610   9.558 -0.7444 -0.9128  1.0813
   61SAPC   C29 4764   0.279   3.689   9.404 -0.1150 -0.3978  0.3195
   61SAPC   H9R 4765   0.286   3.592   9.352 -1.9457 -0.9593  1.0654
   61SAPC  C210 4766   0.175   3.795   9.364  0.4807  0.9682  0.1436
   61SAPC  H10R 4767   0.200   3.898   9.398 -3.8764  1.0753  4.0382
   61SAPC  H10S 4768   0.082   3.764   9.415  1.2224  2.6630  2.7000
   61SAPC  C211 4769   0.151   3.792   9.214 -0.2091 -0.5819 -0.0031
   61SAPC  H11R 4770   0.220   3.733   9.151 -1.6178 -2.1045 -0.2059
   61SAPC  C212 4771   0.042   3.847   9.156 -0.1881 -0.4669  0.1010
   61SAPC  H12R 4772   0.042   3.845   9.046 -1.1800  2.0714 -0.0080
   61SAPC  C213 4773  -0.079   3.917   9.213  0.1594 -0.5353 -0.1981
   61SAPC  H13R 4774  -0.082   3.913   9.324  0.6691  0.4843 -0.1307
   61SAPC  H13S 4775  -0.173   3.863   9.188 -1.2747  2.1617 -1.1213
   61SAPC  C214 4776  -0.070   4.067   9.182 -0.3078  0.1193 -0.4941
   61SAPC  H14R 4777   0.022   4.114   9.144 -1.0119  1.1719 -0.9514
   61SAPC  C215 4778  -0.172   4.141   9.199 -0.4874  0.2777 -0.0053
   61SAPC  H15R 4779  -0.154   4.241   9.156  1.0870 -1.1813 -2.9951
   61SAPC  C216 4780  -0.315   4.105   9.237 -0.2434  0.1160 -0.5266
   61SAPC  H16R 4781  -0.347   4.003   9.209  2.1387 -0.6786 -0.5283
   61SAPC  H16S 4782  -0.385   4.164   9.173 -0.9356  0.8251  0.8389
   61SAPC  C217 4783  -0.343   4.133   9.386 -0.0906 -0.2080 -0.1848
   61SAPC  H17R 4784  -0.446   4.173   9.399  0.6070  1.5096  0.3798
   61SAPC  H17S 4785  -0.280   4.218   9.421 -0.2436 -0.5990  1.0935
   61SAPC  C218 4786  -0.307   4.011   9.467 -0.4452  0.6293  0.4056
   61SAPC  H18R 4787  -0.197   4.010   9.484 -0.5228  0.1441  0.9056
   61SAPC  H18S 4788  -0.325   3.917   9.410 -0.3083 -0.9577  2.8351
   61SAPC  C219 4789  -0.384   4.005   9.591  0.5134  0.0810  0.2213
   61SAPC  H19R 4790  -0.482   3.962   9.560  0.9168  0.5306 -1.8418
   61SAPC  H19S 4791  -0.413   4.106   9.626 -0.5868  0.3773 -1.4381
   61SAPC  C220 4792  -0.311   3.924   9.698 -0.1961 -0.3285 -0.4626
   61SAPC  H20R 4793  -0.212   3.968   9.724 -0.3539 -0.6638  0.7468
   61SAPC  H20S 4794  -0.295   3.819   9.666  0.6833 -0.1672 -0.5655
   61SAPC  H20T 4795  -0.372   3.906   9.789  0.8735 -2.7564 -0.1434
   61SAPC   C33 4796   1.075   3.958  10.056  0.5012 -0.3503  0.7862
   61SAPC   H3X 4797   1.156   3.936  10.129  1.3747 -0.4822 -0.1976
   61SAPC   H3Y 4798   1.068   4.067  10.036 -0.7831 -0.7573 -1.3115
   61SAPC   C34 4799   1.142   3.888   9.935  0.7901 -0.7691  0.2016
   61SAPC   H4X 4800   1.140   3.779   9.956  0.3459 -0.7695  0.1812
   61SAPC   H4Y 4801   1.248   3.915   9.917  1.1377 -2.5810 -0.6629
   61SAPC   C35 4802   1.074   3.921   9.804  0.1517  0.6820 -0.8595
   61SAPC   H5X 4803   1.085   4.030   9.783  1.1477  0.5771 -0.9074
   61SAPC   H5Y 4804   0.967   3.896   9.823  0.6442  0.4803  2.1771
   61SAPC   C36 4805   1.118   3.834   9.684 -0.5666  0.1674  0.1444
   61SAPC   H6X 4806   1.105   3.729   9.719 -1.1732  0.0271 -0.4719
   61SAPC   H6Y 4807   1.224   3.848   9.656 -0.4997  0.9063  0.7240
   61SAPC   C37 4808   1.051   3.850   9.547 -0.2091 -0.4637  0.4720
   61SAPC   H7X 4809   0.941   3.841   9.556 -0.0662 -1.0027  1.9287
   61SAPC   H7Y 4810   1.071   3.771   9.472 -1.1631 -0.1451 -0.1343
   61SAPC   C38 4811   1.093   3.988   9.492  0.2665  0.5260  0.4928
   61SAPC   H8X 4812   1.088   4.059   9.577 -2.4114 -0.7519  1.5240
   61SAPC   H8Y 4813   1.022   4.023   9.414  0.3341  0.1882  0.2775
   61SAPC   C39 4814   1.230   3.991   9.428  0.0643  0.2027  0.5577
   61SAPC   H9X 4815   1.303   3.955   9.504 -1.3230 -1.7551  1.0171
   61SAPC   H9Y 4816   1.255   4.099   9.412  0.7387 -0.0503 -0.1657
   61SAPC  C310 4817   1.242   3.915   9.297 -0.7910  0.2086 -0.5275
   61SAPC  H10X 4818   1.245   3.806   9.319 -1.3727 -0.0684 -1.6954
   61SAPC  H10Y 4819   1.339   3.936   9.248 -0.8261 -0.9799 -1.1679
   61SAPC  C311 4820   1.146   3.957   9.186 -0.0149  0.1519 -0.8994
   61SAPC  H11X 4821   1.192   3.920   9.092 -3.0025 -1.3869 -1.9204
   61SAPC  H11Y 4822   1.140   4.068   9.190 -0.5785  0.1682 -1.8583
   61SAPC  C312 4823   1.002   3.889   9.184 -0.3579 -1.2364  0.0249
   61SAPC  H12X 4824   0.942   3.952   9.252  3.0144  1.6203  0.6525
   61SAPC  H12Y 4825   1.025   3.784   9.214  5.3063 -0.5803 -0.8250
   61SAPC  C313 4826   0.926   3.891   9.044  0.8628  0.2023 -0.0837
   61SAPC  H13X 4827   0.837   3.825   9.048 -2.1214  3.8325 -0.8290
   61SAPC  H13Y 4828   0.998   3.849   8.970  1.7733  0.6069  0.5401
   61SAPC  C314 4829   0.877   4.033   9.010 -0.5627 -0.3153  0.7110
   61SAPC  H14X 4830   0.964   4.102   9.009 -2.0235  1.7184  2.9890
   61SAPC  H14Y 4831   0.800   4.073   9.078 -2.0906  2.3846 -2.3266
   61SAPC  C315 4832   0.818   4.040   8.866 -0.2671 -0.4006  0.1396
   61SAPC  H15X 4833   0.720   3.988   8.871 -0.5613  0.1830  0.6475
   61SAPC  H15Y 4834   0.885   3.992   8.791  1.6896 -1.2702  2.3082
   61SAPC  C316 4835   0.778   4.191   8.841 -0.3996 -0.1815 -0.1080
   61SAPC  H16X 4836   0.864   4.261   8.854 -1.6271  1.1861  1.0231
   61SAPC  H16Y 4837   0.699   4.220   8.913 -0.0815 -1.5512  0.8171
   61SAPC  C317 4838   0.728   4.215   8.698  0.3790  0.8138  0.1437
   61SAPC  H17X 4839   0.688   4.317   8.681 -0.9548 -0.0522 -2.2705
   61SAPC  H17Y 4840   0.641   4.147   8.697 -1.3823  2.7837  2.9919
   61SAPC  C318 4841   0.828   4.195   8.582 -0.8104  1.1629 -0.3025
   61SAPC  H18X 4842   0.886   4.102   8.600 -1.5571  0.8612  0.6918
   61SAPC  H18Y 4843   0.886   4.289   8.574 -0.2041  0.8401  0.1980
   61SAPC  H18Z 4844   0.776   4.197   8.484  0.1697  1.7063 -0.8220
   62SAPC     N 4845   6.549   1.519  10.615  0.2220  0.7663  0.0302
   62SAPC   C12 4846   6.472   1.554  10.743 -0.2995  0.5484  0.5711
   62SAPC  H12A 4847   6.549   1.596  10.806 -0.6036  0.9718  0.6666
   62SAPC  H12B 4848   6.440   1.462  10.792  1.7511 -0.9087 -0.6658
   62SAPC   C13 4849   6.617   1.635  10.566 -0.0726 -0.2257  1.0826
   62SAPC  H13A 4850   6.559   1.726  10.568 -0.8753 -0.7271  1.4149
   62SAPC  H13B 4851   6.705   1.653  10.626 -0.5071  0.6617  1.4718
   62SAPC  H13C 4852   6.639   1.616  10.462 -1.2114  0.1589  0.7494
   62SAPC   C14 4853   6.651   1.416  10.645 -0.1458  0.6512 -0.7413
   62SAPC  H14A 4854   6.738   1.455  10.696  0.0221 -1.8942  1.1069
   62SAPC  H14B 4855   6.609   1.337  10.705 -0.7686  0.7002 -1.1155
   62SAPC  H14C 4856   6.693   1.366  10.559  1.9678 -3.4040  2.2886
   62SAPC   C15 4857   6.447   1.464  10.519 -0.3668  0.2560  0.2318
   62SAPC  H15A 4858   6.414   1.365  10.546 -1.4710  0.3850 -0.5499
   62SAPC  H15B 4859   6.355   1.520  10.522  0.0430  0.9017  1.7343
   62SAPC  H15C 4860   6.491   1.460  10.420  1.3232  1.5573  0.8671
   62SAPC   C11 4861   6.369   1.664  10.736  0.0305  0.1679 -0.0936
   62SAPC  H11A 4862   6.417   1.761  10.711  4.6119 -1.6303  0.7234
   62SAPC  H11B 4863   6.336   1.669  10.842  2.1353 -0.6328  0.6526
   62SAPC     P 4864   6.113   1.666  10.685 -0.1765  0.6926  0.6436
   62SAPC   O13 4865   6.070   1.590  10.810 -0.2269  0.4110  0.4737
   62SAPC   O14 4866   6.100   1.811  10.693 -0.1213 -0.7106  0.8673
   62SAPC   O12 4867   6.264   1.626  10.652  1.0459 -0.3279 -0.6536
   62SAPC   O11 4868   6.025   1.604  10.568  0.1693  0.5103 -0.0695
   62SAPC    C1 4869   6.081   1.526  10.464  0.0678 -0.3056 -0.4412
   62SAPC    HA 4870   6.160   1.594  10.426 -0.6997  0.5808 -0.5012
   62SAPC    HB 4871   6.129   1.437  10.508  0.7989  0.9433  1.4065
   62SAPC    C2 4872   5.980   1.496  10.346  0.4133 -0.5219 -0.9506
   62SAPC    HS 4873   6.038   1.462  10.257  1.6625 -1.9358  0.3493
   62SAPC   O21 4874   5.914   1.617  10.306  0.3741  0.3167 -0.5573
   62SAPC   C21 4875   5.981   1.715  10.249  0.1470  0.1103 -0.4043
   62SAPC   O22 4876   6.100   1.712  10.218  0.1087 -0.3570  0.2369
   62SAPC   C22 4877   5.886   1.829  10.205 -0.1260  0.1124  0.1859
   62SAPC   H2R 4878   5.784   1.826  10.249  0.4303  2.5102  1.7952
   62SAPC   H2S 4879   5.937   1.917  10.249  1.3676  0.5295 -2.1784
   62SAPC    C3 4880   5.888   1.392  10.412  0.6923 -0.1472  0.4385
   62SAPC    HX 4881   5.836   1.452  10.490 -0.5118  1.8812 -1.7629
   62SAPC    HY 4882   5.941   1.308  10.461  3.2074 -0.9087 -3.1726
   62SAPC   O31 4883   5.801   1.334  10.317  0.0221 -0.4668 -0.0926
   62SAPC   C31 4884   5.678   1.384  10.310  0.4917  0.1440  0.0042
   62SAPC   O32 4885   5.621   1.447  10.392 -0.2189  0.2148 -0.0313
   62SAPC   C32 4886   5.626   1.345  10.176  0.7725 -0.1624  0.4213
   62SAPC   H2X 4887   5.598   1.237  10.179 -0.4651  0.1609  2.6580
   62SAPC   H2Y 4888   5.705   1.346  10.098  1.2305  0.7070  0.8768
   62SAPC   C23 4889   5.871   1.844  10.056 -0.0322 -0.4219 -0.1302
   62SAPC   H3R 4890   5.971   1.816  10.019  0.5457 -0.9645  1.7100
   62SAPC   H3S 4891   5.854   1.950  10.030  2.6175 -0.2535 -1.4207
   62SAPC   C24 4892   5.770   1.740   9.995  0.4427 -0.6484  0.5240
   62SAPC   H4R 4893   5.740   1.670  10.075 -0.3399 -0.0707  0.7480
   62SAPC   H4S 4894   5.832   1.690   9.918 -0.1031 -0.1646 -0.2479
   62SAPC   C25 4895   5.653   1.814   9.926 -0.1940  0.8348  0.4991
   62SAPC   H5R 4896   5.575   1.861   9.989 -2.0177  1.3380 -2.0013
   62SAPC   C26 4897   5.632   1.828   9.794 -0.3093  0.4917  0.1147
   62SAPC   H6R 4898   5.543   1.880   9.755 -0.1592 -0.1526 -1.1463
   62SAPC   C27 4899   5.726   1.768   9.697 -0.0397  0.4908  0.3087
   62SAPC   H7R 4900   5.714   1.660   9.717  1.2185  0.1356 -0.7355
   62SAPC   H7S 4901   5.834   1.789   9.712  0.3463 -0.9203 -0.4057
   62SAPC   C28 4902   5.688   1.799   9.551  0.4051 -0.0613 -0.9704
   62SAPC   H8R 4903   5.580   1.808   9.533  0.1561  2.1960  1.1086
   62SAPC   C29 4904   5.773   1.801   9.451 -0.3795 -0.5459 -1.1459
   62SAPC   H9R 4905   5.738   1.818   9.349 -0.4109 -1.0319 -1.2176
   62SAPC  C210 4906   5.922   1.776   9.462  0.7310 -0.2855  0.1024
   62SAPC  H10R 4907   5.943   1.673   9.498 -1.2586 -1.5390 -2.0252
   62SAPC  H10S 4908   5.970   1.854   9.524 -0.5021  3.0939 -2.8128
   62SAPC  C211 4909   5.984   1.790   9.325  0.3343 -0.2337  0.1890
   62SAPC  H11R 4910   5.974   1.892   9.286  1.8583 -0.7800 -1.7878
   62SAPC  C212 4911   6.052   1.696   9.255  0.5847  0.6964  0.2391
   62SAPC  H12R 4912   6.091   1.723   9.156  1.9031 -0.8141  0.3048
   62SAPC  C213 4913   6.101   1.558   9.294 -0.0086 -0.5995 -0.3369
   62SAPC  H13R 4914   6.148   1.558   9.394 -0.9983  0.1188  0.1384
   62SAPC  H13S 4915   6.172   1.521   9.217 -0.0312  0.4737 -0.8948
   62SAPC  C214 4916   5.989   1.464   9.318  0.6597 -0.1725 -0.0094
   62SAPC  H14R 4917   5.910   1.503   9.384  0.4332  1.6899 -1.3225
   62SAPC  C215 4918   5.980   1.335   9.290  0.1970 -0.6315 -0.2387
   62SAPC  H15R 4919   5.895   1.278   9.328  0.1778 -1.1112 -0.9771
   62SAPC  C216 4920   6.077   1.247   9.216  0.7697  0.5516 -0.2596
   62SAPC  H16R 4921   6.111   1.309   9.130 -0.9515  1.6650 -0.2023
   62SAPC  H16S 4922   6.021   1.161   9.174 -1.9331  2.6088 -1.1734
   62SAPC  C217 4923   6.204   1.210   9.290  0.6774  0.2972 -0.1024
   62SAPC  H17R 4924   6.260   1.300   9.326 -0.2258 -0.0960  2.4351
   62SAPC  H17S 4925   6.268   1.148   9.223  0.6696  1.7084 -1.5111
   62SAPC  C218 4926   6.173   1.125   9.414 -0.2849 -0.0064  0.0733
   62SAPC  H18R 4927   6.098   1.051   9.380  0.6463 -1.6676  1.4825
   62SAPC  H18S 4928   6.136   1.185   9.500  1.6764  1.3200  0.0481
   62SAPC  C219 4929   6.301   1.066   9.462 -0.4494  0.4427 -0.1468
   62SAPC  H19R 4930   6.378   1.139   9.495  0.7618 -1.2639  1.0048
   62SAPC  H19S 4931   6.350   1.003   9.384 -1.3082 -2.3794  1.4560
   62SAPC  C220 4932   6.273   0.985   9.584 -0.2695 -0.1981  0.7239
   62SAPC  H20R 4933   6.366   0.927   9.608 -0.2178 -0.4466 -0.0411
   62SAPC  H20S 4934   6.188   0.917   9.561 -1.0467  1.2259 -0.7912
   62SAPC  H20T 4935   6.252   1.055   9.667 -1.3018  0.5635 -0.1587
   62SAPC   C33 4936   5.512   1.431  10.123 -0.2061  0.5285  0.0943
   62SAPC   H3X 4937   5.563   1.528  10.106  0.4884  0.1539  0.0152
   62SAPC   H3Y 4938   5.436   1.442  10.204 -0.3843  1.5600 -0.2110
   62SAPC   C34 4939   5.457   1.373   9.994  0.2998  0.1033  0.1583
   62SAPC   H4X 4940   5.357   1.419   9.978  0.8910  1.5698  0.5371
   62SAPC   H4Y 4941   5.428   1.266  10.004 -0.2814  0.2867  0.4538
   62SAPC   C35 4942   5.521   1.418   9.861 -0.2329  0.6959  0.7843
   62SAPC   H5X 4943   5.629   1.408   9.883 -0.0938  0.4254  0.0095
   62SAPC   H5Y 4944   5.503   1.527   9.844  1.7160  0.7097 -1.8220
   62SAPC   C36 4945   5.473   1.341   9.734 -0.3228  0.0212  0.6475
   62SAPC   H6X 4946   5.367   1.366   9.711 -0.6631 -1.0129  1.0308
   62SAPC   H6Y 4947   5.483   1.233   9.758  0.1785 -0.7360 -2.4813
   62SAPC   C37 4948   5.573   1.383   9.623 -0.5097 -0.2312  0.0947
   62SAPC   H7X 4949   5.677   1.364   9.657 -0.7044  2.5380  2.6438
   62SAPC   H7Y 4950   5.569   1.493   9.610  3.9822  0.1862  0.5454
   62SAPC   C38 4951   5.533   1.331   9.484 -0.2219 -0.5575 -0.0708
   62SAPC   H8X 4952   5.425   1.350   9.461 -0.0208 -0.5549 -1.0723
   62SAPC   H8Y 4953   5.542   1.220   9.492 -2.4264 -0.7210  0.9152
   62SAPC   C39 4954   5.609   1.398   9.374  0.1752 -0.0952 -0.1533
   62SAPC   H9X 4955   5.681   1.318   9.347 -0.0078 -1.2968  2.5869
   62SAPC   H9Y 4956   5.667   1.478   9.426  0.9464 -0.8227  0.1433
   62SAPC  C310 4957   5.534   1.446   9.248  0.2987  0.2909 -0.2859
   62SAPC  H10X 4958   5.446   1.511   9.270 -0.0317 -0.3858  0.4419
   62SAPC  H10Y 4959   5.479   1.369   9.191 -0.2452  1.2820 -1.1344
   62SAPC  C311 4960   5.626   1.511   9.145  0.2923 -0.2875  0.7167
   62SAPC  H11X 4961   5.717   1.449   9.156  1.1592  0.6699 -0.7076
   62SAPC  H11Y 4962   5.662   1.613   9.173  0.6403  0.5703 -2.4530
   62SAPC  C312 4963   5.556   1.509   9.006 -0.2255 -0.4297  0.8934
   62SAPC  H12X 4964   5.481   1.590   9.017  0.2731  0.6947 -2.6796
   62SAPC  H12Y 4965   5.504   1.414   8.981 -1.4189  0.8975 -2.2586
   62SAPC  C313 4966   5.651   1.550   8.888  0.0701 -0.3505 -0.4690
   62SAPC  H13X 4967   5.606   1.524   8.790 -1.0791 -1.0010  0.2103
   62SAPC  H13Y 4968   5.745   1.491   8.896  0.4435  0.3151  0.1971
   62SAPC  C314 4969   5.683   1.702   8.889 -0.3901  0.0539  0.0090
   62SAPC  H14X 4970   5.713   1.716   8.995 -0.2189 -0.7075  0.0635
   62SAPC  H14Y 4971   5.593   1.764   8.869  0.3512  0.9515 -0.6608
   62SAPC  C315 4972   5.801   1.740   8.795  0.6318 -0.0876 -0.0086
   62SAPC  H15X 4973   5.820   1.846   8.824  0.9929 -0.2960  0.5167
   62SAPC  H15Y 4974   5.786   1.738   8.685  0.8074  0.7525 -0.0536
   62SAPC  C316 4975   5.934   1.674   8.822 -0.2962 -0.4817  0.2431
   62SAPC  H16X 4976   5.935   1.563   8.821  2.5284 -0.5199  0.4126
   62SAPC  H16Y 4977   5.963   1.702   8.925 -0.5881 -0.3613  0.2943
   62SAPC  C317 4978   6.051   1.723   8.730 -0.2407  0.4941  0.5460
   62SAPC  H17X 4979   6.153   1.735   8.772 -0.5364  0.1565  1.3711
   62SAPC  H17Y 4980   6.030   1.827   8.699 -0.4950  0.4754  0.6535
   62SAPC  C318 4981   6.071   1.641   8.599 -0.0910  0.0539 -0.0548
   62SAPC  H18X 4982   6.074   1.532   8.615  0.6299 -0.2878 -2.2191
   62SAPC  H18Y 4983   6.169   1.669   8.554  0.5674  0.1828  1.4061
   62SAPC  H18Z 4984   5.989   1.661   8.526 -0.8382  0.6081  0.9123
   63SAPC     N 4985   3.231   1.281   6.218  0.1572  0.5004 -0.0768
   63SAPC   C12 4986   3.152   1.303   6.339  0.1264 -0.1511 -0.1922
   63SAPC  H12A 4987   3.051   1.331   6.311 -0.2748 -0.8816  0.4783
   63SAPC  H12B 4988   3.197   1.384   6.394 -1.4534 -1.1813  2.8475
   63SAPC   C13 4989   3.246   1.412   6.138  0.2447  0.2111  0.4380
   63SAPC  H13A 4990   3.298   1.485   6.198  1.9742 -0.3978 -0.2641
   63SAPC  H13B 4991   3.304   1.398   6.048 -0.6218  1.1378 -0.2899
   63SAPC  H13C 4992   3.152   1.454   6.106 -0.4135 -0.1929  1.7712
   63SAPC   C14 4993   3.365   1.227   6.250  0.6250  0.0529 -0.6025
   63SAPC  H14A 4994   3.364   1.129   6.297 -1.4057  1.5696  2.9374
   63SAPC  H14B 4995   3.430   1.213   6.165  2.4577 -1.1989  0.9090
   63SAPC  H14C 4996   3.411   1.296   6.318  2.5036 -3.4428  2.0375
   63SAPC   C15 4997   3.169   1.170   6.140  0.1147 -0.0658  0.0709
   63SAPC  H15A 4998   3.070   1.195   6.102 -0.8812 -0.0350  2.5209
   63SAPC  H15B 4999   3.225   1.154   6.049 -1.0384 -2.8372 -0.2601
   63SAPC  H15C 5000   3.170   1.078   6.197  1.7532 -0.4986 -0.5850
   63SAPC   C11 5001   3.148   1.194   6.452  0.7440 -0.2435  1.3328
   63SAPC  H11A 5002   3.086   1.235   6.535 -0.2409 -1.0714  1.0216
   63SAPC  H11B 5003   3.251   1.192   6.496  0.6301 -0.1016  1.6111
   63SAPC     P 5004   3.161   0.937   6.408  0.4470  0.2298  0.3602
   63SAPC   O13 5005   3.199   0.888   6.267 -0.2153 -0.2259 -0.5747
   63SAPC   O14 5006   3.265   0.939   6.513  0.1621  0.3392  0.3469
   63SAPC   O12 5007   3.085   1.077   6.395 -0.7672  0.0673 -0.3003
   63SAPC   O11 5008   3.049   0.841   6.459 -0.3887 -0.1256  0.2651
   63SAPC    C1 5009   2.919   0.876   6.487 -0.0781  0.3347  0.5392
   63SAPC    HA 5010   2.860   0.920   6.404 -1.5217 -0.4638  1.0940
   63SAPC    HB 5011   2.855   0.787   6.505  0.1457  0.2152  0.7525
   63SAPC    C2 5012   2.904   0.960   6.614 -0.3565  0.7872 -0.7590
   63SAPC    HS 5013   2.890   1.065   6.581  0.8046  1.0786 -0.3696
   63SAPC   O21 5014   3.018   0.943   6.703 -0.3130  0.1377  0.4176
   63SAPC   C21 5015   3.065   1.055   6.758 -0.4091 -0.5204  0.2603
   63SAPC   O22 5016   3.019   1.166   6.743 -0.1123 -0.5236 -0.1882
   63SAPC   C22 5017   3.178   1.041   6.857 -0.1966 -0.3758 -0.0562
   63SAPC   H2R 5018   3.254   0.980   6.805  1.0648 -1.6808  3.0626
   63SAPC   H2S 5019   3.201   1.147   6.882 -2.2466  0.1478 -0.1761
   63SAPC    C3 5020   2.771   0.917   6.691  0.5978  0.7166  0.0363
   63SAPC    HX 5021   2.790   0.812   6.720  1.0393  1.3054  2.0251
   63SAPC    HY 5022   2.677   0.922   6.632 -0.1701 -0.6833  1.0932
   63SAPC   O31 5023   2.754   0.993   6.814  0.2483  0.2569  0.1644
   63SAPC   C31 5024   2.691   1.108   6.804  0.2703  0.6215 -0.5464
   63SAPC   O32 5025   2.670   1.166   6.701 -0.0948 -1.1555  0.5837
   63SAPC   C32 5026   2.645   1.157   6.945 -0.6034 -0.5923  0.4171
   63SAPC   H2X 5027   2.576   1.239   6.914  0.0020 -0.1477  0.2349
   63SAPC   H2Y 5028   2.723   1.215   6.998 -0.8452 -1.3851  1.6669
   63SAPC   C23 5029   3.126   0.984   6.993  0.5025  0.0116 -0.0348
   63SAPC   H3R 5030   3.219   0.973   7.052  0.7006  1.9264  0.0837
   63SAPC   H3S 5031   3.082   0.882   6.994  1.9648 -0.6373  0.5796
   63SAPC   C24 5032   3.034   1.091   7.054  0.2397 -0.2516 -0.6799
   63SAPC   H4R 5033   2.947   1.107   6.986 -0.1955 -0.0798 -0.0948
   63SAPC   H4S 5034   3.095   1.183   7.061 -0.6736  0.4226 -1.3870
   63SAPC   C25 5035   2.991   1.048   7.193  0.4816 -0.1494  0.2321
   63SAPC   H5R 5036   2.907   0.977   7.197 -0.3432  0.4482 -3.1401
   63SAPC   C26 5037   3.041   1.089   7.312 -0.0384  0.2175 -0.1341
   63SAPC   H6R 5038   2.984   1.047   7.397 -0.2612  0.9481  0.0851
   63SAPC   C27 5039   3.146   1.191   7.347  0.0934 -0.3088 -0.0858
   63SAPC   H7R 5040   3.088   1.285   7.354 -1.6977 -1.3433 -0.3137
   63SAPC   H7S 5041   3.216   1.217   7.265 -0.0523  1.9930  0.4625
   63SAPC   C28 5042   3.216   1.165   7.477 -0.0959 -0.8706  0.9258
   63SAPC   H8R 5043   3.297   1.092   7.462 -1.1458 -1.8302 -0.2802
   63SAPC   C29 5044   3.171   1.208   7.597  0.6336  0.8878  0.0412
   63SAPC   H9R 5045   3.230   1.186   7.687  1.8428 -1.1824 -1.1702
   63SAPC  C210 5046   3.044   1.289   7.621 -0.1851  0.1939  0.3942
   63SAPC  H10R 5047   3.018   1.265   7.726  1.3951  0.0894  0.7825
   63SAPC  H10S 5048   2.966   1.242   7.557  1.4279 -1.0671 -0.7271
   63SAPC  C211 5049   3.054   1.433   7.590 -0.1756 -0.6834  1.2838
   63SAPC  H11R 5050   3.066   1.458   7.484  0.7185  0.2100  1.5675
   63SAPC  C212 5051   3.060   1.535   7.680 -0.3172 -0.5137  0.8908
   63SAPC  H12R 5052   3.068   1.636   7.638  0.1707 -0.0314  2.0715
   63SAPC  C213 5053   3.057   1.526   7.830  0.1933 -0.3516 -1.0072
   63SAPC  H13R 5054   3.144   1.582   7.870  1.9813 -3.1330 -0.7088
   63SAPC  H13S 5055   3.064   1.419   7.858 -1.2995  0.0475  1.0752
   63SAPC  C214 5056   2.919   1.594   7.860  0.2317  0.5605  0.1284
   63SAPC  H14R 5057   2.833   1.531   7.835 -1.1889  0.8007  3.7421
   63SAPC  C215 5058   2.898   1.718   7.911 -0.3069 -0.0421  0.3752
   63SAPC  H15R 5059   2.795   1.752   7.931 -0.1829 -0.0210  1.0149
   63SAPC  C216 5060   3.001   1.820   7.951 -0.2071 -0.8393 -0.8360
   63SAPC  H16R 5061   3.106   1.786   7.964 -0.2479 -0.2423  1.4801
   63SAPC  H16S 5062   2.976   1.860   8.052  1.4715 -1.4907 -0.1188
   63SAPC  C217 5063   3.013   1.940   7.854  0.0167 -0.4454 -0.0070
   63SAPC  H17R 5064   2.908   1.971   7.834  0.0582 -1.0810 -1.3087
   63SAPC  H17S 5065   3.070   1.923   7.761 -2.0275  1.9261 -1.8506
   63SAPC  C218 5066   3.096   2.044   7.928  0.8945  0.6082  0.7418
   63SAPC  H18R 5067   3.195   2.002   7.956  3.0100  3.7393 -1.3102
   63SAPC  H18S 5068   3.045   2.067   8.024 -1.5757 -1.1135 -0.0496
   63SAPC  C219 5069   3.114   2.176   7.856  0.4902  0.8258 -0.5616
   63SAPC  H19R 5070   3.019   2.223   7.822  0.4426  0.9950 -0.1956
   63SAPC  H19S 5071   3.188   2.158   7.776  1.1487  3.4217 -0.6165
   63SAPC  C220 5072   3.179   2.267   7.964 -0.1099  0.1846  0.0803
   63SAPC  H20R 5073   3.183   2.372   7.929 -1.2991 -0.7921 -3.3692
   63SAPC  H20S 5074   3.282   2.238   7.996  0.0641  1.1585  0.4482
   63SAPC  H20T 5075   3.107   2.263   8.049 -0.4811  0.4144 -0.2244
   63SAPC   C33 5076   2.583   1.043   7.025  0.3528  0.1201  0.4107
   63SAPC   H3X 5077   2.666   0.996   7.082  0.6164  0.6536  0.4662
   63SAPC   H3Y 5078   2.527   0.970   6.963 -0.7073  1.6097 -0.4386
   63SAPC   C34 5079   2.483   1.108   7.116 -0.1321  0.2300 -0.4856
   63SAPC   H4X 5080   2.416   1.172   7.054  0.7557  0.6592 -1.0185
   63SAPC   H4Y 5081   2.554   1.170   7.175 -0.7533  1.3798 -0.8953
   63SAPC   C35 5082   2.406   1.018   7.206  0.0970  0.2273  0.1571
   63SAPC   H5X 5083   2.469   0.955   7.273  0.9962 -0.0421 -0.9322
   63SAPC   H5Y 5084   2.339   0.957   7.141  0.5715 -0.2009  0.0612
   63SAPC   C36 5085   2.313   1.093   7.302 -0.0612  0.2654 -0.0671
   63SAPC   H6X 5086   2.247   1.022   7.356 -0.5399  0.2727 -0.6348
   63SAPC   H6Y 5087   2.246   1.165   7.251 -2.6556 -0.4711  2.0907
   63SAPC   C37 5088   2.387   1.170   7.416  0.3177 -0.8823 -0.0786
   63SAPC   H7X 5089   2.300   1.212   7.472  0.3377 -0.8890 -0.0425
   63SAPC   H7Y 5090   2.453   1.243   7.365 -0.4301 -0.3088 -0.2452
   63SAPC   C38 5091   2.473   1.075   7.506 -0.0290  0.0848  0.0303
   63SAPC   H8X 5092   2.566   1.054   7.450  0.9457  0.5171  1.4465
   63SAPC   H8Y 5093   2.411   0.983   7.516 -2.1210  1.1278 -2.3483
   63SAPC   C39 5094   2.493   1.143   7.640  0.2453 -0.0231 -0.1099
   63SAPC   H9X 5095   2.512   1.069   7.721  1.3281 -1.8065 -1.9119
   63SAPC   H9Y 5096   2.398   1.197   7.659 -1.5972 -2.9088 -0.4918
   63SAPC  C310 5097   2.615   1.237   7.635  0.0097 -0.1810  0.1143
   63SAPC  H10X 5098   2.607   1.313   7.555  0.5895  0.5837  0.7658
   63SAPC  H10Y 5099   2.705   1.172   7.633  0.1241 -0.1058  1.4830
   63SAPC  C311 5100   2.642   1.328   7.763  0.3018  0.0869  0.6486
   63SAPC  H11X 5101   2.545   1.360   7.807 -0.4604 -0.1095 -0.8010
   63SAPC  H11Y 5102   2.700   1.413   7.721  1.7300 -1.0304  0.2977
   63SAPC  C312 5103   2.716   1.258   7.880 -0.3672 -0.2484 -0.2704
   63SAPC  H12X 5104   2.825   1.272   7.865 -0.4176  0.3307 -0.1238
   63SAPC  H12Y 5105   2.697   1.151   7.856 -0.5297 -0.6488  1.5160
   63SAPC  C313 5106   2.679   1.309   8.025 -0.6738 -0.4832 -0.9506
   63SAPC  H13X 5107   2.578   1.267   8.042 -0.4565 -2.3693 -3.6397
   63SAPC  H13Y 5108   2.689   1.420   8.027 -0.4151 -0.5145  0.0157
   63SAPC  C314 5109   2.782   1.266   8.127 -0.1019  0.5384 -0.3423
   63SAPC  H14X 5110   2.885   1.300   8.104  0.0154 -0.4400 -1.3790
   63SAPC  H14Y 5111   2.780   1.155   8.137  0.5251  0.5261 -0.3309
   63SAPC  C315 5112   2.753   1.310   8.273  0.3037 -0.4204  0.0025
   63SAPC  H15X 5113   2.716   1.414   8.280 -2.4710 -1.3402  0.1211
   63SAPC  H15Y 5114   2.836   1.301   8.346 -0.1664 -0.0698  0.5839
   63SAPC  C316 5115   2.639   1.219   8.335 -0.1733 -0.1145  0.3259
   63SAPC  H16X 5116   2.684   1.120   8.355 -0.5497 -0.0581  1.4872
   63SAPC  H16Y 5117   2.565   1.191   8.257  1.4931  0.6339 -1.6292
   63SAPC  C317 5118   2.576   1.278   8.467  0.0115  0.4981  0.0500
   63SAPC  H17X 5119   2.535   1.378   8.441 -1.1950 -0.4604 -1.9565
   63SAPC  H17Y 5120   2.651   1.290   8.548  0.6915  2.5152 -0.8206
   63SAPC  C318 5121   2.467   1.191   8.528 -0.1864  0.1499  0.0259
   63SAPC  H18X 5122   2.384   1.180   8.454 -0.6982 -1.0262  0.7437
   63SAPC  H18Y 5123   2.419   1.228   8.621  1.0974  1.5751  0.1478
   63SAPC  H18Z 5124   2.497   1.084   8.538 -0.8218 -0.0457 -0.0679
   64SAPC     N 5125   4.590   0.031   6.043 -0.1055  0.0679  0.0771
   64SAPC   C12 5126   4.529   0.089   6.171 -0.4176 -0.8935  0.4346
   64SAPC  H12A 5127   4.597   0.070   6.253  1.1866  2.5438  0.0981
   64SAPC  H12B 5128   4.443   0.028   6.194 -0.1206 -1.4100  0.1981
   64SAPC   C13 5129   4.504   0.049   5.922 -0.0526  0.4742  0.1482
   64SAPC  H13A 5130   4.402   0.017   5.939  0.5001 -0.5968  1.6819
   64SAPC  H13B 5131   4.509   0.149   5.883  1.1293 -0.9776 -3.9981
   64SAPC  H13C 5132   4.546  -0.009   5.841  0.8576  1.0635  0.1801
   64SAPC   C14 5133   4.723   0.090   6.019 -0.3454 -0.0231 -0.4733
   64SAPC  H14A 5134   4.768   0.055   5.927 -0.0844 -2.6995  0.5902
   64SAPC  H14B 5135   4.708   0.197   6.022 -0.3716 -0.0382  1.7139
   64SAPC  H14C 5136   4.791   0.066   6.099 -1.0669  3.4563  1.3570
   64SAPC   C15 5137   4.601  -0.117   6.061 -0.5020  0.4638  0.1869
   64SAPC  H15A 5138   4.632  -0.159   5.967 -0.6091 -0.3000  0.4838
   64SAPC  H15B 5139   4.671  -0.139   6.140 -0.0834  2.2129  0.3368
   64SAPC  H15C 5140   4.503  -0.156   6.087  0.2999 -0.5589  1.8826
   64SAPC   C11 5141   4.502   0.237   6.179  0.4066  0.0035 -0.3758
   64SAPC  H11A 5142   4.444   0.265   6.269  1.0068  2.5550 -0.7222
   64SAPC  H11B 5143   4.433   0.265   6.096 -1.0197  0.0614  0.7933
   64SAPC     P 5144   4.711   0.358   6.295  0.1771  0.3194 -0.5023
   64SAPC   O13 5145   4.846   0.302   6.305 -0.2560 -0.2847 -0.3916
   64SAPC   O14 5146   4.695   0.503   6.292 -0.3626 -0.0240 -0.0017
   64SAPC   O12 5147   4.624   0.307   6.173  0.4409  0.0906 -0.2694
   64SAPC   O11 5148   4.629   0.300   6.415  0.5574 -0.8826  0.2964
   64SAPC    C1 5149   4.537   0.376   6.490  0.2246  0.0513 -0.0877
   64SAPC    HA 5150   4.479   0.448   6.428 -1.0602 -0.9270 -0.0671
   64SAPC    HB 5151   4.464   0.304   6.533  0.3573 -0.5350 -0.8369
   64SAPC    C2 5152   4.609   0.458   6.606 -0.0812 -0.3995  0.0192
   64SAPC    HS 5153   4.700   0.507   6.566  0.2891  1.0622  2.4291
   64SAPC   O21 5154   4.655   0.367   6.705 -0.3340 -0.0889 -0.0574
   64SAPC   C21 5155   4.759   0.410   6.776 -0.0553 -0.4753 -0.0362
   64SAPC   O22 5156   4.820   0.513   6.749 -0.3101  0.5301  0.1492
   64SAPC   C22 5157   4.753   0.345   6.917  0.2586 -0.8522  0.7087
   64SAPC   H2R 5158   4.646   0.329   6.940  0.6279 -1.4483  2.1656
   64SAPC   H2S 5159   4.804   0.246   6.920  0.4888 -0.7618  4.2512
   64SAPC    C3 5160   4.524   0.572   6.675 -0.1577 -0.2972  0.1051
   64SAPC    HX 5161   4.480   0.638   6.598 -1.6850 -1.6438 -0.2420
   64SAPC    HY 5162   4.594   0.629   6.740 -1.4085  0.0071  1.2259
   64SAPC   O31 5163   4.412   0.510   6.738 -0.4473 -0.4135  0.6957
   64SAPC   C31 5164   4.407   0.507   6.871 -0.4651  0.0080 -0.9989
   64SAPC   O32 5165   4.494   0.555   6.943  0.3051 -0.0099 -0.4834
   64SAPC   C32 5166   4.283   0.432   6.921  0.2183 -0.8791  0.3698
   64SAPC   H2X 5167   4.267   0.335   6.871  0.6141 -0.4798 -0.5480
   64SAPC   H2Y 5168   4.189   0.493   6.916  0.1591 -0.9718  0.3559
   64SAPC   C23 5169   4.824   0.426   7.030 -0.5200  0.0060  0.1562
   64SAPC   H3R 5170   4.780   0.528   7.040 -0.6136  0.4070 -3.1570
   64SAPC   H3S 5171   4.928   0.442   6.996  0.0400 -0.4746  1.5692
   64SAPC   C24 5172   4.832   0.360   7.167  0.0317 -0.3292  0.2983
   64SAPC   H4R 5173   4.899   0.418   7.234  0.2863 -1.5211  1.0947
   64SAPC   H4S 5174   4.880   0.260   7.168 -0.6530 -0.6535  1.2292
   64SAPC   C25 5175   4.687   0.352   7.221  0.6557 -1.8742  0.4215
   64SAPC   H5R 5176   4.620   0.309   7.145  1.1300 -2.5792  0.3907
   64SAPC   C26 5177   4.646   0.380   7.344  0.2317  0.2835  0.2917
   64SAPC   H6R 5178   4.538   0.372   7.358 -0.0204 -0.2259 -1.6797
   64SAPC   C27 5179   4.731   0.417   7.468  1.1064  0.6142 -0.0250
   64SAPC   H7R 5180   4.707   0.515   7.515  0.5311  0.3557  0.2240
   64SAPC   H7S 5181   4.832   0.444   7.430  0.9427 -0.5331 -1.3390
   64SAPC   C28 5182   4.743   0.295   7.557 -0.0005  0.1398 -0.1568
   64SAPC   H8R 5183   4.744   0.198   7.506  1.3373 -0.6694  1.3138
   64SAPC   C29 5184   4.767   0.290   7.690 -0.2881 -0.1438 -0.9174
   64SAPC   H9R 5185   4.794   0.194   7.736  1.6120  0.8401  0.1333
   64SAPC  C210 5186   4.794   0.418   7.770 -0.2894  1.0448  0.7896
   64SAPC  H10R 5187   4.764   0.506   7.709 -1.2866 -0.2104 -0.6151
   64SAPC  H10S 5188   4.904   0.428   7.780  0.2288 -3.3698  1.4216
   64SAPC  C211 5189   4.726   0.419   7.901  0.0354  0.7042  0.0299
   64SAPC  H11R 5190   4.636   0.358   7.914  1.4766 -1.3381  1.0168
   64SAPC  C212 5191   4.764   0.497   8.011  0.3094  0.5633 -0.1760
   64SAPC  H12R 5192   4.698   0.498   8.099 -0.4409  1.3269 -0.7371
   64SAPC  C213 5193   4.887   0.578   8.019 -0.4959  0.0719 -0.1668
   64SAPC  H13R 5194   4.905   0.618   7.918 -0.7585 -2.0676 -1.1241
   64SAPC  H13S 5195   4.976   0.515   8.041 -0.3263  0.7636  1.2933
   64SAPC  C214 5196   4.883   0.697   8.110 -0.0596  0.1985 -1.0071
   64SAPC  H14R 5197   4.860   0.792   8.061 -2.4749 -0.0353 -0.4431
   64SAPC  C215 5198   4.919   0.699   8.243  0.0703  0.6549  0.1080
   64SAPC  H15R 5199   4.925   0.793   8.299  1.8987 -0.8087  2.6119
   64SAPC  C216 5200   4.959   0.578   8.317 -0.6969 -0.3104  0.2966
   64SAPC  H16R 5201   4.898   0.495   8.275  0.1958 -1.0662  0.4527
   64SAPC  H16S 5202   4.932   0.580   8.424 -2.7012  2.9947 -0.1552
   64SAPC  C217 5203   5.110   0.552   8.300  0.7483  0.5984 -0.4023
   64SAPC  H17R 5204   5.138   0.559   8.192 -2.1059 -1.8618 -1.4527
   64SAPC  H17S 5205   5.136   0.451   8.337 -2.5426 -0.1804  0.0996
   64SAPC  C218 5206   5.199   0.645   8.385 -0.0563 -0.1466  1.2644
   64SAPC  H18R 5207   5.191   0.614   8.491  0.7879 -3.0048  0.5663
   64SAPC  H18S 5208   5.176   0.754   8.378  1.6553  0.2403  1.2089
   64SAPC  C219 5209   5.343   0.620   8.344  0.2303  0.4230  0.5121
   64SAPC  H19R 5210   5.359   0.637   8.235 -0.7170 -1.3988  0.0518
   64SAPC  H19S 5211   5.352   0.512   8.370 -0.3118  0.6767  1.8314
   64SAPC  C220 5212   5.440   0.702   8.421  0.5054  0.2751 -0.4013
   64SAPC  H20R 5213   5.413   0.810   8.413 -1.6757  0.0146  2.1954
   64SAPC  H20S 5214   5.541   0.709   8.374  0.3859  1.2942 -0.5384
   64SAPC  H20T 5215   5.456   0.683   8.529  2.0348 -2.8120 -1.0819
   64SAPC   C33 5216   4.299   0.395   7.072  0.4191  0.0017  0.4566
   64SAPC   H3X 5217   4.272   0.486   7.130  0.8116 -0.8600  2.0562
   64SAPC   H3Y 5218   4.401   0.357   7.096  0.1023 -0.5472  1.0043
   64SAPC   C34 5219   4.193   0.287   7.120  0.0231  0.2814  0.2059
   64SAPC   H4X 5220   4.239   0.186   7.114 -0.4486  0.0216  0.8543
   64SAPC   H4Y 5221   4.111   0.291   7.046 -1.4541  0.6714  1.8028
   64SAPC   C35 5222   4.130   0.323   7.257 -0.6068  0.9702  0.1070
   64SAPC   H5X 5223   4.055   0.241   7.264  0.0151  0.3638 -0.1922
   64SAPC   H5Y 5224   4.088   0.425   7.264 -2.2195  0.2259  3.0378
   64SAPC   C36 5225   4.237   0.303   7.360  0.2061  0.5010 -0.7167
   64SAPC   H6X 5226   4.329   0.362   7.338  0.9178 -0.8965 -1.6807
   64SAPC   H6Y 5227   4.272   0.197   7.367  2.1117  1.1891  1.1819
   64SAPC   C37 5228   4.192   0.343   7.508  0.0150  0.0201  0.4897
   64SAPC   H7X 5229   4.127   0.262   7.547 -0.7132  0.6270  0.5704
   64SAPC   H7Y 5230   4.126   0.432   7.504  1.8681  1.4000 -1.3458
   64SAPC   C38 5231   4.305   0.362   7.606 -0.3109  1.1598  0.5514
   64SAPC   H8X 5232   4.367   0.446   7.570  0.7925 -0.0195 -0.3699
   64SAPC   H8Y 5233   4.372   0.274   7.605  1.8887  2.7540 -0.5067
   64SAPC   C39 5234   4.253   0.379   7.744 -0.1649 -1.2152 -1.1495
   64SAPC   H9X 5235   4.183   0.303   7.781 -1.2128 -0.2491 -1.0970
   64SAPC   H9Y 5236   4.184   0.466   7.742  3.3145  1.8688 -3.1460
   64SAPC  C310 5237   4.361   0.405   7.853 -0.2755 -0.1511  0.6876
   64SAPC  H10X 5238   4.424   0.491   7.821  1.7371 -2.1961 -1.2632
   64SAPC  H10Y 5239   4.426   0.316   7.841 -0.4808  0.0030 -2.3836
   64SAPC  C311 5240   4.300   0.410   7.989  0.1444  0.0664 -0.1168
   64SAPC  H11X 5241   4.264   0.306   8.006  0.8362 -0.0869  0.4666
   64SAPC  H11Y 5242   4.211   0.477   7.991 -0.7622 -1.0243 -1.6470
   64SAPC  C312 5243   4.389   0.450   8.113 -0.6361  0.0828 -0.4625
   64SAPC  H12X 5244   4.448   0.539   8.084 -1.7512  0.7371 -0.7943
   64SAPC  H12Y 5245   4.452   0.359   8.124 -2.1261 -0.9901 -0.5136
   64SAPC  C313 5246   4.321   0.480   8.244  0.0390 -0.5233  0.0402
   64SAPC  H13X 5247   4.236   0.408   8.255 -0.0321 -0.3657  0.5286
   64SAPC  H13Y 5248   4.281   0.583   8.237  0.6059 -0.2998  0.0524
   64SAPC  C314 5249   4.411   0.475   8.359 -0.2409  0.0644 -1.0013
   64SAPC  H14X 5250   4.498   0.544   8.358  0.3576 -0.5905  0.9757
   64SAPC  H14Y 5251   4.452   0.372   8.366 -1.1759 -0.2813 -0.3426
   64SAPC  C315 5252   4.339   0.513   8.490 -0.1002 -1.4097  0.9020
   64SAPC  H15X 5253   4.243   0.459   8.476  0.8042 -2.8377 -0.0360
   64SAPC  H15Y 5254   4.323   0.622   8.503 -1.4675 -1.0911 -2.5950
   64SAPC  C316 5255   4.411   0.478   8.625  0.1353 -0.2298  0.6302
   64SAPC  H16X 5256   4.500   0.545   8.637 -0.0808  0.8330 -2.5196
   64SAPC  H16Y 5257   4.444   0.373   8.613 -0.7712 -0.3655 -1.1018
   64SAPC  C317 5258   4.324   0.478   8.754 -0.7197 -0.3366 -0.1648
   64SAPC  H17X 5259   4.380   0.435   8.840 -2.7143 -2.2065  0.2974
   64SAPC  H17Y 5260   4.228   0.421   8.757 -1.5912  1.0721  2.5911
   64SAPC  C318 5261   4.266   0.612   8.792 -0.7761  0.1378  0.0089
   64SAPC  H18X 5262   4.207   0.646   8.705  1.0559 -0.0203 -1.3384
   64SAPC  H18Y 5263   4.348   0.687   8.794 -1.7139  1.2002 -0.0870
   64SAPC  H18Z 5264   4.217   0.620   8.892  0.3424  0.1566  0.5634
   65SAPC     N 5265   4.781   2.929   5.720 -0.5835  0.6506  0.6260
   65SAPC   C12 5266   4.890   2.920   5.827 -0.4774  0.5137  0.0130
   65SAPC  H12A 5267   4.847   2.975   5.908  0.5113  1.7876 -0.2866
   65SAPC  H12B 5268   4.978   2.974   5.795  1.0913 -2.0383 -0.3364
   65SAPC   C13 5269   4.817   2.873   5.591  0.3198  0.5742  0.0536
   65SAPC  H13A 5270   4.837   2.768   5.601 -2.1403  0.2054  2.5324
   65SAPC  H13B 5271   4.735   2.896   5.525 -0.4820  1.6242  1.3493
   65SAPC  H13C 5272   4.913   2.914   5.562 -0.6607  1.8653 -1.5822
   65SAPC   C14 5273   4.645   2.877   5.773 -0.1098 -0.1929 -0.2145
   65SAPC  H14A 5274   4.575   2.862   5.692 -0.2412 -0.4680 -0.0505
   65SAPC  H14B 5275   4.675   2.791   5.832  2.2615  1.4306  1.0987
   65SAPC  H14C 5276   4.600   2.941   5.847  1.1057  0.2231  0.1944
   65SAPC   C15 5277   4.758   3.073   5.692 -0.0760  0.1015  0.0550
   65SAPC  H15A 5278   4.841   3.130   5.655 -0.5115 -0.4887 -1.9470
   65SAPC  H15B 5279   4.676   3.086   5.623 -0.0726 -1.0642 -0.1975
   65SAPC  H15C 5280   4.721   3.108   5.787  0.9699  1.4473 -0.0170
   65SAPC   C11 5281   4.942   2.778   5.862  0.1699 -0.1697 -0.1259
   65SAPC  H11A 5282   5.025   2.789   5.935  0.2208  1.8607 -0.4142
   65SAPC  H11B 5283   4.997   2.737   5.774  2.4679 -2.9091  2.3973
   65SAPC     P 5284   4.827   2.606   6.036 -0.3967  0.1385  0.0060
   65SAPC   O13 5285   4.692   2.549   6.037  0.3510  0.4954 -0.3809
   65SAPC   O14 5286   4.940   2.512   6.048 -0.2941  0.0091  0.1704
   65SAPC   O12 5287   4.835   2.682   5.899  0.0585 -0.3179 -0.5143
   65SAPC   O11 5288   4.843   2.729   6.135 -0.2327  0.1357  0.0457
   65SAPC    C1 5289   4.724   2.804   6.183  0.4761  0.1237  0.0595
   65SAPC    HA 5290   4.747   2.909   6.157  2.0792 -0.5514 -1.4837
   65SAPC    HB 5291   4.636   2.765   6.128  0.6363  0.8462 -0.7185
   65SAPC    C2 5292   4.696   2.783   6.333  0.6383  0.6425 -0.0835
   65SAPC    HS 5293   4.616   2.855   6.359  0.7197  0.0963  1.8493
   65SAPC   O21 5294   4.822   2.796   6.410 -0.3208  0.1400 -0.0399
   65SAPC   C21 5295   4.844   2.919   6.457 -0.1974  0.0905  0.7458
   65SAPC   O22 5296   4.772   3.019   6.447 -0.8272 -0.0724 -0.5337
   65SAPC   C22 5297   4.977   2.916   6.535 -0.2738  0.0424 -0.6454
   65SAPC   H2R 5298   5.044   2.860   6.466 -0.5384  0.7605 -1.5151
   65SAPC   H2S 5299   5.011   3.022   6.533  0.9949 -0.3555 -1.4282
   65SAPC    C3 5300   4.640   2.640   6.359  0.4875 -0.0113  0.1630
   65SAPC    HX 5301   4.695   2.558   6.309  1.5598  0.3121  0.7834
   65SAPC    HY 5302   4.540   2.641   6.310  0.9347  0.4479 -0.7828
   65SAPC   O31 5303   4.629   2.629   6.498  0.1739 -0.2199  0.2717
   65SAPC   C31 5304   4.725   2.567   6.555  0.1182 -0.3602  0.5333
   65SAPC   O32 5305   4.817   2.514   6.501  0.0725 -0.0289  0.3448
   65SAPC   C32 5306   4.710   2.574   6.701  0.4344 -0.0346  0.5880
   65SAPC   H2X 5307   4.632   2.506   6.740 -1.7085  2.9196  1.8706
   65SAPC   H2Y 5308   4.685   2.679   6.728 -2.1467 -1.1853  3.0776
   65SAPC   C23 5309   4.961   2.875   6.682 -0.2212 -0.0219 -0.5929
   65SAPC   H3R 5310   5.051   2.819   6.716 -1.0812 -0.5172  0.9648
   65SAPC   H3S 5311   4.875   2.805   6.692  0.8389 -1.1396  1.3044
   65SAPC   C24 5312   4.949   2.991   6.789  0.0258 -0.2865 -0.6329
   65SAPC   H4R 5313   5.023   3.074   6.786 -1.8572  1.5765  1.2807
   65SAPC   H4S 5314   4.975   2.940   6.884  2.4631  0.0333 -1.0537
   65SAPC   C25 5315   4.804   3.029   6.802  0.2730 -0.8305  0.0499
   65SAPC   H5R 5316   4.745   3.049   6.711  2.0757  1.7426 -0.6798
   65SAPC   C26 5317   4.735   3.038   6.920 -0.1956 -0.6953 -0.2533
   65SAPC   H6R 5318   4.628   3.063   6.918 -0.0983  0.5196  2.9851
   65SAPC   C27 5319   4.785   3.021   7.064 -0.0654  0.1634 -0.4290
   65SAPC   H7R 5320   4.885   2.972   7.062  0.3921  0.9703  1.4023
   65SAPC   H7S 5321   4.720   2.955   7.124 -0.7947  1.7262  0.5531
   65SAPC   C28 5322   4.816   3.147   7.146 -0.0397  0.1838 -0.1217
   65SAPC   H8R 5323   4.860   3.224   7.081 -0.8347  1.2734  0.6039
   65SAPC   C29 5324   4.778   3.162   7.275 -0.3151  0.7275 -0.4499
   65SAPC   H9R 5325   4.816   3.246   7.335 -1.7441  0.6466  0.6231
   65SAPC  C210 5326   4.703   3.071   7.367 -0.8434  0.3626  0.0718
   65SAPC  H10R 5327   4.778   3.003   7.413 -0.6969 -0.2912 -1.0938
   65SAPC  H10S 5328   4.627   3.007   7.316 -2.1013  0.8990  1.2152
   65SAPC  C211 5329   4.627   3.141   7.480 -0.5409 -0.5825 -0.1354
   65SAPC  H11R 5330   4.543   3.198   7.438  0.4063  0.0247 -1.2749
   65SAPC  C212 5331   4.663   3.158   7.604  0.2394 -0.0841 -0.3129
   65SAPC  H12R 5332   4.600   3.226   7.662 -1.3645 -1.1487 -0.7291
   65SAPC  C213 5333   4.784   3.106   7.679 -0.5516 -0.1282 -0.4007
   65SAPC  H13R 5334   4.824   3.010   7.640  0.8128  0.0333  0.5019
   65SAPC  H13S 5335   4.749   3.079   7.781 -0.4508  1.6206  0.1429
   65SAPC  C214 5336   4.902   3.206   7.674  0.8300 -0.8018 -0.1548
   65SAPC  H14R 5337   4.916   3.265   7.583  1.3886 -0.2549  0.2786
   65SAPC  C215 5338   4.992   3.222   7.769  0.3279 -0.0053  0.0194
   65SAPC  H15R 5339   5.067   3.299   7.745 -1.5522  1.9345  0.0229
   65SAPC  C216 5340   4.999   3.141   7.901  0.2321  0.0531  0.0204
   65SAPC  H16R 5341   4.917   3.067   7.917  2.5870 -2.3583  1.9407
   65SAPC  H16S 5342   4.992   3.216   7.983  1.3560  0.2644 -0.0568
   65SAPC  C217 5343   5.129   3.060   7.915 -0.9956 -0.8708  0.8630
   65SAPC  H17R 5344   5.214   3.132   7.914 -0.2987 -1.5814  3.3335
   65SAPC  H17S 5345   5.140   3.004   7.819  0.7033  2.1775 -0.8877
   65SAPC  C218 5346   5.130   2.968   8.035 -0.5080 -1.0748 -0.0054
   65SAPC  H18R 5347   5.215   2.897   8.025 -0.5657 -1.1099 -0.2534
   65SAPC  H18S 5348   5.035   2.910   8.035 -1.3876  0.2552 -2.2301
   65SAPC  C219 5349   5.139   3.044   8.173 -0.3674 -0.1718 -0.5325
   65SAPC  H19R 5350   5.104   2.987   8.262 -0.3530 -3.2400 -2.3385
   65SAPC  H19S 5351   5.060   3.122   8.170  0.0807  0.2634 -1.0937
   65SAPC  C220 5352   5.275   3.115   8.196  1.0796 -0.4510  0.2375
   65SAPC  H20R 5353   5.294   3.146   8.302 -2.4782  3.2117  0.0609
   65SAPC  H20S 5354   5.301   3.204   8.134  1.2528  0.7514  1.9443
   65SAPC  H20T 5355   5.361   3.050   8.169  0.9666 -0.3629 -0.3483
   65SAPC   C33 5356   4.842   2.549   6.774 -0.2182 -0.2761  0.3807
   65SAPC   H3X 5357   4.924   2.609   6.729  0.7411  1.7724  4.4168
   65SAPC   H3Y 5358   4.882   2.446   6.775  1.8524  0.4863  1.4962
   65SAPC   C34 5359   4.834   2.586   6.927  0.1094  0.7972 -0.2489
   65SAPC   H4X 5360   4.772   2.504   6.969 -0.5296  1.1233 -0.5356
   65SAPC   H4Y 5361   4.767   2.674   6.935 -0.7022  0.0358  1.7975
   65SAPC   C35 5362   4.963   2.610   6.995 -0.5602 -0.3438  0.3982
   65SAPC   H5X 5363   5.004   2.707   6.960 -0.2919 -0.7032 -0.3198
   65SAPC   H5Y 5364   5.041   2.539   6.962  0.4959  0.0252  2.0371
   65SAPC   C36 5365   4.952   2.604   7.149  0.1273  0.3698  0.4043
   65SAPC   H6X 5366   4.973   2.498   7.175  0.7107  0.6075  0.9117
   65SAPC   H6Y 5367   4.851   2.638   7.180  0.3821 -0.2372  1.9710
   65SAPC   C37 5368   5.060   2.699   7.210  0.2208  1.0505 -0.3684
   65SAPC   H7X 5369   5.011   2.799   7.219  0.4660  0.9990  2.9006
   65SAPC   H7Y 5370   5.149   2.700   7.144 -0.2058  3.7161 -1.0135
   65SAPC   C38 5371   5.086   2.661   7.355 -0.0823  0.1435 -0.0780
   65SAPC   H8X 5372   5.162   2.730   7.395 -0.8550  0.2777  1.2192
   65SAPC   H8Y 5373   5.136   2.563   7.366  1.5105  1.0600  1.1633
   65SAPC   C39 5374   4.974   2.670   7.459 -0.2416 -0.0189  0.2045
   65SAPC   H9X 5375   4.896   2.599   7.424  0.7795 -2.4036  2.5111
   65SAPC   H9Y 5376   4.927   2.771   7.464 -0.6996 -0.2844  1.3347
   65SAPC  C310 5377   5.010   2.618   7.608 -0.0109 -1.4205  0.4919
   65SAPC  H10X 5378   5.025   2.508   7.605  2.4726 -1.1270 -2.2394
   65SAPC  H10Y 5379   4.927   2.649   7.675  0.9340 -0.6170  1.3291
   65SAPC  C311 5380   5.146   2.669   7.669 -0.6973 -0.6880 -0.1693
   65SAPC  H11X 5381   5.123   2.777   7.681 -0.7334 -0.7663  0.4504
   65SAPC  H11Y 5382   5.226   2.654   7.593  1.1296  1.8490  1.1029
   65SAPC  C312 5383   5.173   2.617   7.811  0.2025  0.1564 -0.4487
   65SAPC  H12X 5384   5.142   2.511   7.809  2.1653 -0.4695 -2.4984
   65SAPC  H12Y 5385   5.119   2.678   7.887 -1.0388 -0.4868 -0.7972
   65SAPC  C313 5386   5.324   2.622   7.846  0.4895  0.3717 -0.7303
   65SAPC  H13X 5387   5.352   2.719   7.800  0.4773 -0.8264 -3.4615
   65SAPC  H13Y 5388   5.377   2.534   7.803  1.7749  0.0879  1.2843
   65SAPC  C314 5389   5.353   2.619   7.995 -0.5285 -0.5818  0.5809
   65SAPC  H14X 5390   5.300   2.707   8.036 -0.7767  0.6767 -2.1767
   65SAPC  H14Y 5391   5.462   2.622   8.014 -0.0526 -0.7294 -1.7831
   65SAPC  C315 5392   5.309   2.478   8.048 -1.4776 -0.3138 -0.0877
   65SAPC  H15X 5393   5.378   2.403   8.004  0.1642 -0.2007  2.1306
   65SAPC  H15Y 5394   5.205   2.466   8.010 -1.0535 -1.1885 -1.0221
   65SAPC  C316 5395   5.333   2.458   8.203 -0.2477  0.4643 -0.4643
   65SAPC  H16X 5396   5.443   2.448   8.217 -0.2601 -0.4957 -0.9634
   65SAPC  H16Y 5397   5.291   2.358   8.226 -1.5780  0.8140 -1.2893
   65SAPC  C317 5398   5.261   2.570   8.272  0.2004 -0.4559  0.4628
   65SAPC  H17X 5399   5.154   2.577   8.243  0.4143  0.8010 -0.0816
   65SAPC  H17Y 5400   5.297   2.671   8.246 -0.8962 -0.4055 -0.9783
   65SAPC  C318 5401   5.269   2.566   8.428  0.1154 -0.5769  0.1226
   65SAPC  H18X 5402   5.372   2.588   8.463 -0.4442  0.4175  1.1917
   65SAPC  H18Y 5403   5.236   2.468   8.470 -0.3742 -0.5354 -0.1586
   65SAPC  H18Z 5404   5.201   2.648   8.457 -1.4517 -1.3128 -1.2824
   66SAPC     N 5405   2.787   1.494   5.609 -0.3365 -0.3950  0.2458
   66SAPC   C12 5406   2.662   1.459   5.681  0.1869  0.3371  0.3943
   66SAPC  H12A 5407   2.640   1.363   5.636  2.7837 -0.0719 -0.2045
   66SAPC  H12B 5408   2.587   1.535   5.662  0.0043  0.2590  0.7945
   66SAPC   C13 5409   2.830   1.637   5.639 -0.1312 -0.5409 -0.4406
   66SAPC  H13A 5410   2.752   1.706   5.612  1.4030  2.5378  2.2131
   66SAPC  H13B 5411   2.852   1.654   5.744 -0.3780 -0.1550 -0.4514
   66SAPC  H13C 5412   2.918   1.659   5.581  1.5948  0.7354  2.3994
   66SAPC   C14 5413   2.898   1.399   5.649 -0.1168 -0.2766 -0.5852
   66SAPC  H14A 5414   2.920   1.406   5.754  0.6480 -1.5888 -0.6327
   66SAPC  H14B 5415   2.877   1.296   5.625  0.8237 -0.8499  0.9698
   66SAPC  H14C 5416   2.988   1.416   5.592  0.3146  0.9348  0.4073
   66SAPC   C15 5417   2.771   1.488   5.455  0.7122  0.1134 -0.5199
   66SAPC  H15A 5418   2.864   1.510   5.404  1.0998 -1.3229 -0.4732
   66SAPC  H15B 5419   2.729   1.393   5.425  1.4145 -0.6512  0.8344
   66SAPC  H15C 5420   2.708   1.566   5.416  0.1962  0.4347  0.8857
   66SAPC   C11 5421   2.668   1.444   5.837 -0.0770  0.4529  0.4808
   66SAPC  H11A 5422   2.749   1.374   5.865 -0.8199 -0.4696  0.3951
   66SAPC  H11B 5423   2.569   1.408   5.874 -0.5239  0.1496 -0.9189
   66SAPC     P 5424   2.600   1.677   5.930 -0.0166 -0.4004  0.0329
   66SAPC   O13 5425   2.685   1.799   5.947  0.6182  0.5372  0.3564
   66SAPC   O14 5426   2.499   1.673   5.822  0.1596 -0.3061 -0.4772
   66SAPC   O12 5427   2.710   1.563   5.897 -0.7565 -0.3089 -0.0803
   66SAPC   O11 5428   2.530   1.625   6.061 -0.5310  0.0957 -0.7393
   66SAPC    C1 5429   2.605   1.550   6.158 -0.2677 -0.1864 -0.4389
   66SAPC    HA 5430   2.534   1.486   6.215 -1.3793 -0.2883 -1.8566
   66SAPC    HB 5431   2.676   1.484   6.105 -0.4210  1.3769 -2.7650
   66SAPC    C2 5432   2.670   1.633   6.272 -0.2964 -0.4509  0.4804
   66SAPC    HS 5433   2.759   1.681   6.226 -0.2728 -1.4167 -0.5254
   66SAPC   O21 5434   2.704   1.543   6.379  0.6272 -0.4587 -0.2431
   66SAPC   C21 5435   2.832   1.542   6.404  0.8154  0.6777  0.2466
   66SAPC   O22 5436   2.926   1.563   6.329 -0.7278  0.5413  0.0039
   66SAPC   C22 5437   2.851   1.455   6.536 -0.7555  0.2795 -0.3221
   66SAPC   H2R 5438   2.754   1.409   6.566 -1.3485  1.3367 -0.5601
   66SAPC   H2S 5439   2.917   1.371   6.507 -2.5856 -1.4708  0.4318
   66SAPC    C3 5440   2.574   1.740   6.327 -0.1473  0.1624  0.4848
   66SAPC    HX 5441   2.496   1.680   6.379  0.8297 -0.4340  1.2960
   66SAPC    HY 5442   2.538   1.797   6.239 -0.3499  1.2481  1.2553
   66SAPC   O31 5443   2.655   1.825   6.407  0.0325  0.4277 -0.2794
   66SAPC   C31 5444   2.588   1.891   6.498  0.5984 -0.2027  0.2681
   66SAPC   O32 5445   2.466   1.902   6.499  0.3703  0.1165  0.4860
   66SAPC   C32 5446   2.683   1.949   6.604  0.2241 -0.2432  0.4523
   66SAPC   H2X 5447   2.777   1.963   6.546  1.4852 -2.0375  1.9182
   66SAPC   H2Y 5448   2.698   1.858   6.667 -0.2746 -1.6692 -1.3781
   66SAPC   C23 5449   2.917   1.526   6.660 -0.6550  0.2047 -0.3376
   66SAPC   H3R 5450   3.016   1.563   6.626 -2.0022  3.5602 -1.0209
   66SAPC   H3S 5451   2.933   1.454   6.743  1.6513 -0.6252 -1.4239
   66SAPC   C24 5452   2.843   1.661   6.709  0.2331  0.2542 -0.3610
   66SAPC   H4R 5453   2.734   1.642   6.720 -0.0946  1.3489 -1.4572
   66SAPC   H4S 5454   2.850   1.739   6.630  0.0563  1.0650  0.4013
   66SAPC   C25 5455   2.877   1.727   6.846  0.2401 -0.7214  0.2188
   66SAPC   H5R 5456   2.926   1.825   6.837 -0.7109 -0.2595 -0.0965
   66SAPC   C26 5457   2.846   1.685   6.972 -0.2411 -0.5646  0.4150
   66SAPC   H6R 5458   2.882   1.746   7.056 -0.4782  0.6063 -0.2980
   66SAPC   C27 5459   2.755   1.570   6.999 -0.4146  0.6773 -0.2657
   66SAPC   H7R 5460   2.740   1.517   6.902 -0.3260 -0.3300  0.2611
   66SAPC   H7S 5461   2.657   1.614   7.028  0.3724  2.7403 -0.5645
   66SAPC   C28 5462   2.801   1.475   7.106 -0.2394 -0.3909  1.0556
   66SAPC   H8R 5463   2.901   1.437   7.081 -0.2519  0.3150 -0.1402
   66SAPC   C29 5464   2.756   1.458   7.232 -0.6026  0.0174  0.7242
   66SAPC   H9R 5465   2.805   1.379   7.292 -0.0577 -1.6690 -1.7617
   66SAPC  C210 5466   2.645   1.527   7.306  1.1532  0.2976  0.2379
   66SAPC  H10R 5467   2.556   1.461   7.315  0.9706  0.5859  0.5902
   66SAPC  H10S 5468   2.620   1.618   7.247 -0.0880 -0.9780 -1.2928
   66SAPC  C211 5469   2.673   1.575   7.451 -0.7502 -0.0341 -0.2350
   66SAPC  H11R 5470   2.603   1.537   7.527  0.3097  0.6100  1.1193
   66SAPC  C212 5471   2.773   1.657   7.502 -0.3960 -0.0110  0.5772
   66SAPC  H12R 5472   2.760   1.669   7.611  0.5421 -1.0171  0.8122
   66SAPC  C213 5473   2.877   1.724   7.419 -0.4967  0.0242 -0.0650
   66SAPC  H13R 5474   2.831   1.760   7.325 -2.4042 -1.1510  0.3494
   66SAPC  H13S 5475   2.937   1.643   7.372 -0.5119 -0.0588  0.0554
   66SAPC  C214 5476   2.957   1.832   7.478  0.1660 -0.1196 -0.0387
   66SAPC  H14R 5477   2.942   1.841   7.587 -1.8818  0.8851 -0.3544
   66SAPC  C215 5478   3.044   1.917   7.421  0.2874 -0.2070 -0.1857
   66SAPC  H15R 5479   3.079   2.008   7.471  2.9518  0.8915 -3.6958
   66SAPC  C216 5480   3.088   1.919   7.278  0.5738  0.3923  0.2058
   66SAPC  H16R 5481   3.062   1.822   7.231 -2.4321  1.0953  0.2484
   66SAPC  H16S 5482   3.198   1.928   7.268  1.1332 -1.7018  2.9916
   66SAPC  C217 5483   2.995   2.013   7.197 -0.4974 -0.4570 -0.3055
   66SAPC  H17R 5484   3.004   2.121   7.221 -0.8172 -0.8357  1.6651
   66SAPC  H17S 5485   2.887   1.989   7.202 -0.2476 -1.2944  2.0773
   66SAPC  C218 5486   3.030   2.008   7.046  0.5305  0.8362  0.4386
   66SAPC  H18R 5487   2.957   2.072   6.991  0.4011 -0.8389 -1.4637
   66SAPC  H18S 5488   3.029   1.906   7.003  0.1188  0.5816  1.0458
   66SAPC  C219 5489   3.170   2.063   7.026  0.0075 -1.0046  0.5047
   66SAPC  H19R 5490   3.252   2.024   7.090 -0.1998  0.3292  1.6494
   66SAPC  H19S 5491   3.173   2.167   7.066 -0.0642 -0.8940  0.2272
   66SAPC  C220 5492   3.218   2.053   6.885 -0.0431 -0.0002  0.0524
   66SAPC  H20R 5493   3.207   1.949   6.845 -0.8062 -0.0039  0.2571
   66SAPC  H20S 5494   3.321   2.094   6.876  0.0842 -0.5553 -1.1625
   66SAPC  H20T 5495   3.155   2.109   6.813  0.2094  0.1391 -0.0628
   66SAPC   C33 5496   2.652   2.076   6.677 -1.1559  0.0104  0.2109
   66SAPC   H3X 5497   2.616   2.146   6.599  0.3478 -0.4719 -0.9856
   66SAPC   H3Y 5498   2.745   2.119   6.720 -2.6063  1.2857  2.2483
   66SAPC   C34 5499   2.557   2.060   6.786 -0.0719 -0.8261 -0.5502
   66SAPC   H4X 5500   2.465   2.012   6.746 -1.2537  0.4080  0.5806
   66SAPC   H4Y 5501   2.523   2.159   6.825  0.5448  0.3860 -2.9271
   66SAPC   C35 5502   2.600   1.971   6.902 -0.5837  0.4936 -1.8864
   66SAPC   H5X 5503   2.681   2.023   6.957 -1.2021 -1.2365  0.8397
   66SAPC   H5Y 5504   2.630   1.868   6.875  1.1277  0.9755 -1.8946
   66SAPC   C36 5505   2.479   1.961   7.010  0.5844  0.6001  0.3913
   66SAPC   H6X 5506   2.390   1.909   6.968 -0.3508  2.6200 -0.2581
   66SAPC   H6Y 5507   2.431   2.058   7.037 -0.3290 -0.3037  2.2248
   66SAPC   C37 5508   2.532   1.905   7.141 -0.0491  0.2939 -0.4296
   66SAPC   H7X 5509   2.608   1.984   7.162 -0.4405  0.9287 -1.3299
   66SAPC   H7Y 5510   2.579   1.805   7.127 -0.9966 -0.4568  1.4512
   66SAPC   C38 5511   2.431   1.915   7.256  0.3872  0.6669 -0.6157
   66SAPC   H8X 5512   2.346   1.843   7.248 -0.5149  1.3472  1.8159
   66SAPC   H8Y 5513   2.386   2.016   7.270 -1.4586 -0.3827  1.6553
   66SAPC   C39 5514   2.489   1.884   7.392  0.9152  0.0782  0.6023
   66SAPC   H9X 5515   2.570   1.955   7.416  0.7048  0.3366  0.5576
   66SAPC   H9Y 5516   2.533   1.782   7.390  1.4811  0.3040  1.1810
   66SAPC  C310 5517   2.381   1.903   7.502 -0.3854  0.2730  0.7239
   66SAPC  H10X 5518   2.297   1.834   7.476 -0.8161  1.3053 -0.7042
   66SAPC  H10Y 5519   2.351   2.010   7.505 -0.0493  0.4495 -1.0112
   66SAPC  C311 5520   2.435   1.860   7.638  0.0627 -0.6923  0.2964
   66SAPC  H11X 5521   2.512   1.780   7.630  0.2651 -0.4176 -0.5952
   66SAPC  H11Y 5522   2.346   1.825   7.694 -0.5794 -1.1447 -0.9808
   66SAPC  C312 5523   2.497   1.970   7.721 -0.2169 -0.4268  0.7787
   66SAPC  H12X 5524   2.432   2.060   7.724  0.8322  0.4981 -1.7561
   66SAPC  H12Y 5525   2.591   1.995   7.667 -1.7517 -1.9064 -2.8480
   66SAPC  C313 5526   2.524   1.932   7.863  0.2684 -0.1468 -0.6007
   66SAPC  H13X 5527   2.604   1.856   7.859  0.8958  0.4954 -0.4777
   66SAPC  H13Y 5528   2.434   1.887   7.910  0.3853 -0.0011 -0.2369
   66SAPC  C314 5529   2.551   2.052   7.954 -0.1597  0.2081  0.1277
   66SAPC  H14X 5530   2.465   2.121   7.941  1.1373  2.1016  1.1146
   66SAPC  H14Y 5531   2.647   2.103   7.931 -0.0600 -0.2828 -0.5666
   66SAPC  C315 5532   2.549   2.018   8.100 -0.0904 -0.0641 -0.4002
   66SAPC  H15X 5533   2.449   1.969   8.105  0.2247 -0.7889 -1.0933
   66SAPC  H15Y 5534   2.555   2.111   8.161  1.6717  0.0904 -0.7608
   66SAPC  C316 5535   2.662   1.927   8.149  0.5993 -0.0202 -0.3145
   66SAPC  H16X 5536   2.754   1.988   8.152  2.1304 -2.1741  3.9913
   66SAPC  H16Y 5537   2.672   1.840   8.080 -1.2565 -0.8495  0.3824
   66SAPC  C317 5538   2.643   1.869   8.286 -0.1785 -0.3405  0.0212
   66SAPC  H17X 5539   2.634   1.955   8.355  0.1401 -0.3621  0.0936
   66SAPC  H17Y 5540   2.733   1.807   8.305 -0.5143 -0.6442  0.6473
   66SAPC  C318 5541   2.516   1.787   8.293  0.5598 -0.0562  0.1192
   66SAPC  H18X 5542   2.435   1.859   8.269 -1.2658 -2.1817 -0.4527
   66SAPC  H18Y 5543   2.519   1.744   8.395  1.0331  1.2992  0.7065
   66SAPC  H18Z 5544   2.515   1.703   8.221 -0.7833 -0.1689  0.2378
   67SAPC     N 5545   4.812   3.706   6.033  0.2071  0.7780 -0.6774
   67SAPC   C12 5546   4.899   3.739   6.157  0.9737 -0.1487  0.4694
   67SAPC  H12A 5547   4.916   3.845   6.158 -0.1933  0.0459  1.5557
   67SAPC  H12B 5548   4.996   3.697   6.139  0.7606 -0.3134 -0.3449
   67SAPC   C13 5549   4.675   3.765   6.052  0.5262 -0.6583 -0.4343
   67SAPC  H13A 5550   4.618   3.748   5.962  1.7090  3.0495 -2.0726
   67SAPC  H13B 5551   4.617   3.733   6.138 -0.9130  1.2526 -0.6347
   67SAPC  H13C 5552   4.680   3.873   6.063  0.2013 -0.6455 -0.4079
   67SAPC   C14 5553   4.879   3.780   5.923  0.2782  0.0110 -0.0222
   67SAPC  H14A 5554   4.980   3.748   5.904 -1.2325 -3.7295 -3.0461
   67SAPC  H14B 5555   4.825   3.761   5.831 -2.5907  0.2337  1.4876
   67SAPC  H14C 5556   4.869   3.886   5.944 -2.4565 -0.1964  0.1517
   67SAPC   C15 5557   4.809   3.559   6.000 -0.0519 -0.1375  0.3290
   67SAPC  H15A 5558   4.761   3.534   5.907 -1.6814  2.5610  0.3480
   67SAPC  H15B 5559   4.910   3.519   5.999 -0.3522 -1.2613  3.4997
   67SAPC  H15C 5560   4.763   3.507   6.083  1.4565  2.0982  2.7348
   67SAPC   C11 5561   4.856   3.697   6.295 -0.5052 -0.5580 -0.2904
   67SAPC  H11A 5562   4.940   3.704   6.367 -0.3008  1.1985 -0.6463
   67SAPC  H11B 5563   4.830   3.589   6.307 -1.7642 -0.1100  1.3311
   67SAPC     P 5564   4.756   3.913   6.389 -0.4637 -0.2527  0.3187
   67SAPC   O13 5565   4.831   3.985   6.279 -0.0138 -0.0115 -0.4503
   67SAPC   O14 5566   4.638   3.986   6.443 -0.1955  0.0505 -0.0920
   67SAPC   O12 5567   4.744   3.766   6.345  0.4556  0.4284  0.2367
   67SAPC   O11 5568   4.862   3.901   6.503 -0.0426  0.4770 -0.4700
   67SAPC    C1 5569   4.840   3.818   6.623 -0.1148 -0.2702 -0.1931
   67SAPC    HA 5570   4.781   3.726   6.605  0.8414 -1.8269  3.7183
   67SAPC    HB 5571   4.938   3.786   6.664  0.1368  1.0961  0.3213
   67SAPC    C2 5572   4.775   3.897   6.735  0.2034 -0.1630 -0.6591
   67SAPC    HS 5573   4.675   3.928   6.697  0.6654  0.3361 -1.4887
   67SAPC   O21 5574   4.863   4.013   6.762 -0.3500  0.6894  0.0285
   67SAPC   C21 5575   4.794   4.116   6.799  0.8216 -0.1457  0.7360
   67SAPC   O22 5576   4.670   4.121   6.817  0.0310 -0.2413 -0.0646
   67SAPC   C22 5577   4.894   4.229   6.802  0.4830  0.0626  0.3647
   67SAPC   H2R 5578   4.994   4.196   6.839  1.0111 -0.5388 -1.4771
   67SAPC   H2S 5579   4.916   4.264   6.699 -0.5770 -2.4491 -0.7969
   67SAPC    C3 5580   4.760   3.796   6.860  0.0967 -0.2505  0.0571
   67SAPC    HX 5581   4.864   3.770   6.891  0.2876 -1.0029 -1.1608
   67SAPC    HY 5582   4.704   3.701   6.840  1.4252 -1.2036  0.6965
   67SAPC   O31 5583   4.705   3.866   6.973  0.2032 -0.0750  0.1481
   67SAPC   C31 5584   4.572   3.865   6.980 -0.4185  0.2964  0.3201
   67SAPC   O32 5585   4.497   3.816   6.896  0.1388 -0.2073  0.2413
   67SAPC   C32 5586   4.528   3.922   7.116 -1.0909  0.2227 -0.3067
   67SAPC   H2X 5587   4.519   3.832   7.181  0.9770  0.0586 -0.1814
   67SAPC   H2Y 5588   4.437   3.986   7.111  0.0580  1.8775 -0.7663
   67SAPC   C23 5589   4.842   4.355   6.881 -0.9711  0.5823  0.2267
   67SAPC   H3R 5590   4.744   4.382   6.837 -0.5434 -1.2682 -2.0686
   67SAPC   H3S 5591   4.918   4.436   6.871  0.9695 -1.2649 -0.7445
   67SAPC   C24 5592   4.827   4.336   7.034  0.3126 -0.2483 -0.7256
   67SAPC   H4R 5593   4.927   4.321   7.080  0.5565  3.3668  0.2527
   67SAPC   H4S 5594   4.773   4.240   7.041  0.0733 -0.2207 -1.9925
   67SAPC   C25 5595   4.746   4.449   7.104  0.0637  0.6782  0.7796
   67SAPC   H5R 5596   4.637   4.433   7.095  0.3080 -0.3409 -0.9898
   67SAPC   C26 5597   4.792   4.545   7.182 -0.6158  0.2140 -0.3027
   67SAPC   H6R 5598   4.719   4.606   7.238  0.9999  0.2521  1.8941
   67SAPC   C27 5599   4.937   4.564   7.226 -0.7597 -0.3314  0.3597
   67SAPC   H7R 5600   5.014   4.534   7.151  1.1357  2.7409  0.9091
   67SAPC   H7S 5601   4.963   4.497   7.311  0.0323  0.7980  1.0353
   67SAPC   C28 5602   4.968   4.711   7.255 -0.5027  0.0272 -0.0914
   67SAPC   H8R 5603   4.988   4.769   7.164  1.6166 -0.1471  0.2121
   67SAPC   C29 5604   4.953   4.763   7.380  0.3071  0.6503 -0.1714
   67SAPC   H9R 5605   4.961   4.872   7.382 -0.5704  0.7387 -0.7419
   67SAPC  C210 5606   4.910   4.698   7.507 -0.0251 -0.1540  0.2094
   67SAPC  H10R 5607   4.984   4.715   7.588 -0.2296 -1.0478  0.5878
   67SAPC  H10S 5608   4.907   4.587   7.509 -0.2645 -0.2123 -1.5090
   67SAPC  C211 5609   4.769   4.748   7.554  0.4689  0.8021 -0.0317
   67SAPC  H11R 5610   4.708   4.789   7.472  1.7213 -0.1358 -1.5088
   67SAPC  C212 5611   4.718   4.747   7.678  0.5329  0.3971  0.5528
   67SAPC  H12R 5612   4.619   4.795   7.682  1.3582  2.4055 -1.3468
   67SAPC  C213 5613   4.776   4.690   7.808  0.3145 -0.2043  0.0682
   67SAPC  H13R 5614   4.819   4.589   7.788  0.9099 -0.2436  1.4327
   67SAPC  H13S 5615   4.692   4.675   7.879 -0.1446 -0.9154 -0.5953
   67SAPC  C214 5616   4.903   4.759   7.859  0.6538 -0.0449 -0.2066
   67SAPC  H14R 5617   4.966   4.814   7.787  0.6589 -2.0863 -1.8379
   67SAPC  C215 5618   4.946   4.753   7.986 -0.5884 -0.2570 -0.0324
   67SAPC  H15R 5619   5.043   4.798   8.014 -1.4480  1.2764  0.6245
   67SAPC  C216 5620   4.883   4.681   8.098  0.1457 -0.2678 -0.1387
   67SAPC  H16R 5621   4.774   4.662   8.095 -0.1321  1.1155  0.2048
   67SAPC  H16S 5622   4.888   4.763   8.174  1.7922  0.6718 -1.2037
   67SAPC  C217 5623   4.958   4.555   8.146  0.0520 -0.4281  0.2157
   67SAPC  H17R 5624   5.063   4.582   8.172  0.3791  0.0981 -1.5434
   67SAPC  H17S 5625   4.958   4.475   8.069  0.0058 -0.1847 -0.0387
   67SAPC  C218 5626   4.885   4.494   8.264 -0.1412 -0.0239  0.6950
   67SAPC  H18R 5627   4.777   4.486   8.241 -0.2787  0.4091  1.1781
   67SAPC  H18S 5628   4.897   4.561   8.352  0.3507 -0.6406  1.1066
   67SAPC  C219 5629   4.931   4.349   8.303  0.1363  0.3203 -0.1317
   67SAPC  H19R 5630   4.897   4.282   8.221  2.4369  0.7015 -1.4974
   67SAPC  H19S 5631   4.880   4.327   8.399  0.8307  0.2208  0.2244
   67SAPC  C220 5632   5.087   4.336   8.337  0.2194 -0.9556 -0.4956
   67SAPC  H20R 5633   5.147   4.318   8.246  0.8112 -0.0020 -0.3056
   67SAPC  H20S 5634   5.109   4.243   8.394  0.7864 -0.5274  0.0005
   67SAPC  H20T 5635   5.128   4.418   8.400  0.1425 -0.0689 -1.5662
   67SAPC   C33 5636   4.636   4.023   7.178  0.3092  0.1495 -0.1249
   67SAPC   H3X 5637   4.625   4.117   7.119 -0.5155 -0.7041 -1.3739
   67SAPC   H3Y 5638   4.741   3.987   7.177 -0.0966 -1.2512 -3.2024
   67SAPC   C34 5639   4.604   4.044   7.328  0.0247 -0.1594  1.3552
   67SAPC   H4X 5640   4.633   3.953   7.386 -2.1450 -1.1326  1.0147
   67SAPC   H4Y 5641   4.494   4.059   7.330  0.0445  0.0911  0.8284
   67SAPC   C35 5642   4.670   4.173   7.381 -0.2981  0.6598  0.0671
   67SAPC   H5X 5643   4.651   4.244   7.297 -3.7377 -1.4756 -1.1728
   67SAPC   H5Y 5644   4.781   4.164   7.380 -0.3854 -0.8194 -1.3314
   67SAPC   C36 5645   4.600   4.231   7.501 -0.4460  0.0108 -0.4085
   67SAPC   H6X 5646   4.499   4.270   7.479 -1.4035 -1.4785  1.0707
   67SAPC   H6Y 5647   4.655   4.323   7.531  1.1246 -0.6467 -1.1277
   67SAPC   C37 5648   4.573   4.132   7.619  0.2356  0.3639  1.3652
   67SAPC   H7X 5649   4.666   4.083   7.655 -0.0197 -0.5145  0.8621
   67SAPC   H7Y 5650   4.492   4.062   7.588  0.9940  0.5873 -1.3457
   67SAPC   C38 5651   4.514   4.217   7.736 -0.5279  0.1922 -0.0926
   67SAPC   H8X 5652   4.445   4.159   7.800  0.3856 -0.3361  0.4319
   67SAPC   H8Y 5653   4.448   4.291   7.686 -0.8097  0.7067  1.0106
   67SAPC   C39 5654   4.624   4.299   7.812  0.0792  0.1729  1.3390
   67SAPC   H9X 5655   4.687   4.357   7.741  0.9981 -3.3928 -1.0136
   67SAPC   H9Y 5656   4.686   4.234   7.877  0.6889  0.6361  1.2293
   67SAPC  C310 5657   4.569   4.400   7.920 -0.0640  0.0046  0.2566
   67SAPC  H10X 5658   4.520   4.488   7.872  0.2960 -0.0091 -0.1478
   67SAPC  H10Y 5659   4.668   4.435   7.956 -0.6187  1.3070  0.5537
   67SAPC  C311 5660   4.492   4.345   8.033  0.4511  0.5876  0.7511
   67SAPC  H11X 5661   4.528   4.248   8.073  1.7272  0.1145 -1.4002
   67SAPC  H11Y 5662   4.389   4.315   8.004  1.0662 -0.0512 -0.9008
   67SAPC  C312 5663   4.478   4.430   8.155 -0.1269 -0.4103 -0.6282
   67SAPC  H12X 5664   4.410   4.513   8.125 -0.3139 -0.0354  0.7890
   67SAPC  H12Y 5665   4.579   4.466   8.182  0.3543 -1.5621 -0.8473
   67SAPC  C313 5666   4.431   4.373   8.293 -0.6490 -0.2779  0.1558
   67SAPC  H13X 5667   4.506   4.306   8.340  0.7472  1.9066  1.2322
   67SAPC  H13Y 5668   4.335   4.318   8.281 -0.4942 -0.2588 -1.3931
   67SAPC  C314 5669   4.421   4.483   8.397  0.3849  0.3106 -0.6320
   67SAPC  H14X 5670   4.373   4.575   8.356  0.5329  0.8863  0.4740
   67SAPC  H14Y 5671   4.517   4.524   8.434 -0.7033  0.6932  1.9272
   67SAPC  C315 5672   4.334   4.442   8.508 -0.1968  0.0617 -0.1965
   67SAPC  H15X 5673   4.367   4.353   8.566 -4.7717 -2.6861 -1.2594
   67SAPC  H15Y 5674   4.231   4.413   8.476 -0.3849 -0.6559  0.9943
   67SAPC  C316 5675   4.319   4.561   8.602  0.0269  0.2293 -0.5984
   67SAPC  H16X 5676   4.278   4.647   8.544  2.8802  1.9847 -0.1759
   67SAPC  H16Y 5677   4.413   4.602   8.643 -0.7948 -0.3274  2.0319
   67SAPC  C317 5678   4.224   4.525   8.718  0.4915  0.0991 -0.2995
   67SAPC  H17X 5679   4.288   4.461   8.782  1.4480  0.9698 -0.3563
   67SAPC  H17Y 5680   4.138   4.463   8.686  0.3814  0.6751 -1.1894
   67SAPC  C318 5681   4.189   4.642   8.810 -0.0243 -0.5455  0.0468
   67SAPC  H18X 5682   4.127   4.603   8.894  2.4205  0.4314  2.4513
   67SAPC  H18Y 5683   4.123   4.715   8.758  0.2170 -2.0522 -2.5435
   67SAPC  H18Z 5684   4.276   4.698   8.850  0.3523 -1.3982  0.4454
   68SAPC     N 5685   4.000   2.327   5.977  0.5491 -0.1964 -0.5177
   68SAPC   C12 5686   4.003   2.226   6.082  0.1353  1.0647  0.0022
   68SAPC  H12A 5687   4.106   2.212   6.113 -0.0647 -0.5764 -0.0139
   68SAPC  H12B 5688   3.977   2.130   6.040  1.8850  0.1901  0.7941
   68SAPC   C13 5689   4.100   2.439   5.998 -0.7246 -0.1165 -0.1013
   68SAPC  H13A 5690   4.198   2.403   5.970 -0.4974  0.3253  0.1087
   68SAPC  H13B 5691   4.080   2.521   5.930  0.4038 -1.8517 -2.6745
   68SAPC  H13C 5692   4.106   2.466   6.102 -0.2581  0.5016 -0.2757
   68SAPC   C14 5693   4.023   2.265   5.846 -0.1706 -0.4974 -0.2596
   68SAPC  H14A 5694   4.000   2.335   5.767 -2.8413 -2.4491 -1.3552
   68SAPC  H14B 5695   4.123   2.226   5.839 -0.7932 -2.2247  0.0164
   68SAPC  H14C 5696   3.949   2.187   5.839 -0.4658 -0.2240 -0.2279
   68SAPC   C15 5697   3.864   2.401   5.966 -0.2699  0.5135  0.2020
   68SAPC  H15A 5698   3.793   2.336   5.916  2.4550 -2.9270  0.3788
   68SAPC  H15B 5699   3.830   2.442   6.060  0.1530  0.5901  0.3214
   68SAPC  H15C 5700   3.878   2.486   5.901  0.5392 -0.1134 -0.4662
   68SAPC   C11 5701   3.934   2.252   6.222 -0.2690  0.3038  0.2980
   68SAPC  H11A 5702   3.971   2.344   6.273 -1.8855  1.1183  0.0637
   68SAPC  H11B 5703   3.951   2.168   6.292  0.0726 -2.7481 -3.1292
   68SAPC     P 5704   3.706   2.122   6.198  0.1081  0.0619  0.4896
   68SAPC   O13 5705   3.573   2.141   6.136  0.0705 -0.0894 -0.0579
   68SAPC   O14 5706   3.784   2.010   6.132  0.5419  0.5603 -0.6567
   68SAPC   O12 5707   3.790   2.256   6.205 -0.3395 -0.2715 -0.2526
   68SAPC   O11 5708   3.695   2.096   6.355  0.3541  0.0029 -0.1149
   68SAPC    C1 5709   3.689   2.195   6.455 -0.0888 -1.0685  0.8347
   68SAPC    HA 5710   3.791   2.230   6.483  1.2205 -2.0950 -2.1882
   68SAPC    HB 5711   3.641   2.287   6.414 -0.2514 -1.3046  0.4934
   68SAPC    C2 5712   3.608   2.146   6.575 -0.2012 -0.1404 -0.0881
   68SAPC    HS 5713   3.627   2.213   6.662  0.6499 -0.7101  0.1833
   68SAPC   O21 5714   3.646   2.013   6.603 -0.0552  0.4671 -0.0284
   68SAPC   C21 5715   3.766   1.997   6.651 -0.0874 -0.0984 -0.6995
   68SAPC   O22 5716   3.834   2.083   6.707  0.6128  0.8451 -0.2507
   68SAPC   C22 5717   3.815   1.858   6.617 -0.7456  0.4245  0.2594
   68SAPC   H2R 5718   3.823   1.856   6.506 -1.9534  1.2005  0.1359
   68SAPC   H2S 5719   3.916   1.849   6.661 -1.6029 -3.0319  1.8767
   68SAPC    C3 5720   3.461   2.140   6.541 -0.1205 -0.0270 -0.5489
   68SAPC    HX 5721   3.413   2.092   6.629  2.0586  1.8535  1.8193
   68SAPC    HY 5722   3.449   2.070   6.455 -0.7915  0.6081 -0.9823
   68SAPC   O31 5723   3.399   2.276   6.521 -0.4986 -0.4992  0.2399
   68SAPC   C31 5724   3.271   2.260   6.521  1.1274 -1.2034 -0.7104
   68SAPC   O32 5725   3.210   2.157   6.547  0.3005 -0.4156  0.3774
   68SAPC   C32 5726   3.218   2.407   6.512 -0.5484  0.9146 -0.0120
   68SAPC   H2X 5727   3.239   2.444   6.409 -2.0398 -1.9768 -1.4669
   68SAPC   H2Y 5728   3.280   2.459   6.589  0.4752  0.7326 -0.6961
   68SAPC   C23 5729   3.723   1.754   6.675 -0.2551 -0.0459 -0.2627
   68SAPC   H3R 5730   3.761   1.652   6.651 -0.0825 -0.4979  1.7170
   68SAPC   H3S 5731   3.625   1.773   6.627 -0.6164 -0.7715  0.1650
   68SAPC   C24 5732   3.707   1.766   6.825 -0.4134  0.2117  0.1058
   68SAPC   H4R 5733   3.795   1.818   6.867 -0.5451  2.8192 -2.5722
   68SAPC   H4S 5734   3.726   1.668   6.874  1.7355  0.9668  0.9158
   68SAPC   C25 5735   3.584   1.817   6.892  0.4278 -0.4642  0.2537
   68SAPC   H5R 5736   3.494   1.767   6.851  0.6485  0.5749 -1.5902
   68SAPC   C26 5737   3.575   1.914   6.984 -0.3920 -0.0137 -0.2841
   68SAPC   H6R 5738   3.481   1.938   7.035  0.3580  1.1171  0.6256
   68SAPC   C27 5739   3.692   1.993   7.035 -0.1867 -0.2231 -0.2670
   68SAPC   H7R 5740   3.673   2.101   7.013  0.9149 -0.3090 -1.8174
   68SAPC   H7S 5741   3.781   1.983   6.969  0.8822  2.6674  0.5950
   68SAPC   C28 5742   3.722   1.958   7.173  0.0056  0.3720 -0.2740
   68SAPC   H8R 5743   3.712   1.852   7.198  2.1939  0.2136  0.1174
   68SAPC   C29 5744   3.755   2.049   7.269 -0.0271 -0.8420  0.7055
   68SAPC   H9R 5745   3.767   2.004   7.369 -0.1155 -0.8284  0.7225
   68SAPC  C210 5746   3.762   2.199   7.267  0.1491  0.2760  0.2093
   68SAPC  H10R 5747   3.695   2.242   7.191 -0.0155  1.1438  0.8357
   68SAPC  H10S 5748   3.863   2.213   7.224  0.4461 -2.7211 -0.3077
   68SAPC  C211 5749   3.745   2.272   7.397 -0.1840  0.2257 -0.0874
   68SAPC  H11R 5750   3.646   2.279   7.444  0.7631  1.9522  1.8216
   68SAPC  C212 5751   3.847   2.327   7.464  0.3492 -0.2061 -0.8488
   68SAPC  H12R 5752   3.821   2.374   7.560  0.8937 -1.4962 -0.0477
   68SAPC  C213 5753   3.999   2.320   7.438  0.5471 -0.5210  0.0172
   68SAPC  H13R 5754   4.018   2.289   7.333 -1.0225 -1.0987 -0.1296
   68SAPC  H13S 5755   4.045   2.247   7.507 -0.7119 -0.6375  0.7758
   68SAPC  C214 5756   4.077   2.451   7.456 -0.6748 -0.7927  0.4259
   68SAPC  H14R 5757   4.084   2.520   7.371 -1.1441  1.8042  2.3932
   68SAPC  C215 5758   4.121   2.502   7.574  0.6038  0.1121 -0.6244
   68SAPC  H15R 5759   4.182   2.593   7.577 -0.0837  0.6206 -1.4472
   68SAPC  C216 5760   4.094   2.442   7.710 -0.3607 -0.9921  0.5973
   68SAPC  H16R 5761   4.143   2.343   7.719 -3.2010 -2.5689  0.0392
   68SAPC  H16S 5762   3.984   2.435   7.723 -0.6698  1.4024 -0.0866
   68SAPC  C217 5763   4.133   2.534   7.824 -0.1054 -0.1401 -0.5283
   68SAPC  H17R 5764   4.090   2.636   7.815  0.6532  0.3516  1.0754
   68SAPC  H17S 5765   4.243   2.544   7.836 -0.1990  0.0693  0.2189
   68SAPC  C218 5766   4.069   2.480   7.954  0.5181 -0.8547  0.3255
   68SAPC  H18R 5767   4.117   2.384   7.981  2.7839 -0.0897 -0.7152
   68SAPC  H18S 5768   3.959   2.463   7.957  0.4533 -0.3005  1.8215
   68SAPC  C219 5769   4.102   2.568   8.067 -0.5058 -0.3729 -0.3362
   68SAPC  H19R 5770   4.029   2.652   8.069 -1.2289 -0.9948  0.1280
   68SAPC  H19S 5771   4.205   2.610   8.069 -0.5700 -0.2412  1.2102
   68SAPC  C220 5772   4.094   2.490   8.203 -0.2524  0.3795  0.5938
   68SAPC  H20R 5773   4.156   2.398   8.194  0.3911  0.8194  0.4860
   68SAPC  H20S 5774   3.995   2.440   8.212 -0.6628  1.2224  0.8599
   68SAPC  H20T 5775   4.116   2.549   8.295  2.4001 -0.3224  0.5103
   68SAPC   C33 5776   3.069   2.413   6.568  0.1152 -0.4265  0.1082
   68SAPC   H3X 5777   3.007   2.340   6.511  2.2411 -0.4278 -2.4203
   68SAPC   H3Y 5778   3.036   2.516   6.542  1.3755  0.0796  0.4481
   68SAPC   C34 5779   3.064   2.389   6.718 -0.1137  0.3431  0.1393
   68SAPC   H4X 5780   3.118   2.476   6.762 -1.9423  0.2656  2.7336
   68SAPC   H4Y 5781   3.125   2.300   6.747 -2.0243 -0.8750  0.5658
   68SAPC   C35 5782   2.929   2.371   6.777  0.1770 -0.8555  0.1679
   68SAPC   H5X 5783   2.878   2.278   6.744 -0.5641 -0.7431  0.9414
   68SAPC   H5Y 5784   2.863   2.454   6.743  0.5201 -0.5850  0.1593
   68SAPC   C36 5785   2.930   2.363   6.932 -0.0866  0.2699  0.2619
   68SAPC   H6X 5786   2.974   2.452   6.982  1.0061  1.8130 -3.1159
   68SAPC   H6Y 5787   3.003   2.285   6.960 -1.8575 -1.4427  0.2743
   68SAPC   C37 5788   2.792   2.327   6.982  0.3054 -0.4328 -0.4521
   68SAPC   H7X 5789   2.764   2.228   6.939 -2.6679  1.0816 -2.3675
   68SAPC   H7Y 5790   2.717   2.397   6.938 -2.1450 -2.6073 -0.0262
   68SAPC   C38 5791   2.777   2.318   7.133 -0.2824 -0.0603 -0.1115
   68SAPC   H8X 5792   2.827   2.411   7.166  0.0695 -0.6823  1.1892
   68SAPC   H8Y 5793   2.852   2.243   7.166 -0.4025  0.5408  1.6151
   68SAPC   C39 5794   2.638   2.294   7.186 -0.0906  0.0806  0.1355
   68SAPC   H9X 5795   2.592   2.224   7.114 -0.3943 -1.3569  1.6642
   68SAPC   H9Y 5796   2.568   2.381   7.183 -1.4319 -0.9921 -0.5699
   68SAPC  C310 5797   2.630   2.215   7.312 -0.5880 -0.3029  0.0141
   68SAPC  H10X 5798   2.694   2.125   7.304 -0.9985 -0.6093  0.1371
   68SAPC  H10Y 5799   2.531   2.168   7.329 -0.7808  0.2346  0.3821
   68SAPC  C311 5800   2.693   2.298   7.427  0.4380  0.3065  0.4019
   68SAPC  H11X 5801   2.633   2.390   7.441 -1.7868 -0.5408 -2.3624
   68SAPC  H11Y 5802   2.797   2.321   7.397  0.5977  0.3840  0.9995
   68SAPC  C312 5803   2.702   2.207   7.549 -0.4372 -0.1880 -0.3481
   68SAPC  H12X 5804   2.729   2.108   7.507  0.3768 -0.7585  1.4076
   68SAPC  H12Y 5805   2.605   2.203   7.603  1.0699  1.6864  2.8259
   68SAPC  C313 5806   2.797   2.261   7.663 -0.3024 -0.2779 -0.3462
   68SAPC  H13X 5807   2.905   2.264   7.638  0.4340  1.1190  2.5362
   68SAPC  H13Y 5808   2.791   2.187   7.746  1.1819  0.7008  0.6878
   68SAPC  C314 5809   2.743   2.401   7.712  0.1764 -0.6785 -0.7701
   68SAPC  H14X 5810   2.640   2.391   7.751 -0.4230  3.7194 -0.7845
   68SAPC  H14Y 5811   2.744   2.471   7.626 -0.4947 -1.3907 -1.3745
   68SAPC  C315 5812   2.825   2.460   7.829  0.6141 -0.5453  0.3871
   68SAPC  H15X 5813   2.807   2.569   7.838 -0.5538 -0.6558 -0.3553
   68SAPC  H15Y 5814   2.935   2.456   7.813  0.8572  0.9348  1.4965
   68SAPC  C316 5815   2.791   2.397   7.963 -0.5059  0.2920 -0.0741
   68SAPC  H16X 5816   2.815   2.290   7.944  2.2609  0.7916  0.0663
   68SAPC  H16Y 5817   2.684   2.417   7.983 -0.7314  2.3756 -2.8021
   68SAPC  C317 5818   2.873   2.452   8.079 -0.2227 -0.3277 -0.0378
   68SAPC  H17X 5819   2.838   2.558   8.087 -2.2273 -0.7047 -2.4286
   68SAPC  H17Y 5820   2.980   2.451   8.051 -0.9782  0.8280 -3.5955
   68SAPC  C318 5821   2.846   2.380   8.203  0.0181  0.0427 -0.2291
   68SAPC  H18X 5822   2.738   2.381   8.229  0.3395 -0.5349  1.2600
   68SAPC  H18Y 5823   2.888   2.442   8.286  3.1739 -2.7048  0.4544
   68SAPC  H18Z 5824   2.880   2.274   8.200 -0.5569 -0.1304 -0.9629
   69SLPC     N 5825   0.914   2.346  11.182  0.2798  0.0037 -0.9178
   69SLPC   C13 5826   0.783   2.404  11.226 -0.7294 -0.0757 -0.1880
   69SLPC  H13A 5827   0.776   2.403  11.333  0.0072 -1.3927 -0.1291
   69SLPC  H13B 5828   0.781   2.507  11.194  1.3506  0.4559  1.1666
   69SLPC  H13C 5829   0.700   2.349  11.184 -0.2198 -1.1401  0.1511
   69SLPC   C14 5830   0.935   2.204  11.212  0.1644 -0.8236  0.1317
   69SLPC  H14A 5831   0.837   2.160  11.215 -0.1266 -0.1972  0.0352
   69SLPC  H14B 5832   0.988   2.172  11.124 -0.9996 -0.1120 -0.8601
   69SLPC  H14C 5833   1.000   2.185  11.296 -0.1927 -0.7908  0.4154
   69SLPC   C15 5834   1.024   2.410  11.266 -0.2093 -0.3183 -0.0900
   69SLPC  H15A 5835   1.014   2.379  11.369  1.7180 -1.4610 -0.1866
   69SLPC  H15B 5836   1.124   2.383  11.235  0.3432 -0.7916  1.9571
   69SLPC  H15C 5837   1.012   2.517  11.265 -2.2778 -0.5046  0.7231
   69SLPC   C12 5838   0.935   2.389  11.040 -0.1595 -0.1858 -0.4638
   69SLPC  H12A 5839   0.908   2.493  11.036 -1.5324 -0.2622  3.1438
   69SLPC  H12B 5840   0.855   2.346  10.982 -2.6723  2.9407  0.4068
   69SLPC   C11 5841   1.068   2.359  10.968 -0.4413 -0.4470  0.6207
   69SLPC  H11A 5842   1.150   2.414  11.019  0.3430 -1.9741  1.0850
   69SLPC  H11B 5843   1.070   2.405  10.867 -0.1619 -2.1777 -0.2062
   69SLPC     P 5844   1.041   2.104  10.882  0.0506 -0.4659 -0.2802
   69SLPC   O13 5845   1.134   1.990  10.887 -0.6732  0.0299 -0.2220
   69SLPC   O14 5846   0.901   2.078  10.921 -0.2692  0.3971 -0.2704
   69SLPC   O12 5847   1.105   2.226  10.968 -0.0905 -0.1635 -0.2632
   69SLPC   O11 5848   1.044   2.165  10.734 -0.1662  0.0307  0.1902
   69SLPC    C1 5849   0.924   2.230  10.678 -0.1635 -0.0050 -0.6829
   69SLPC    HA 5850   0.832   2.214  10.738  0.1338 -0.3750 -0.3160
   69SLPC    HB 5851   0.945   2.338  10.662 -1.9450  0.3851 -0.5847
   69SLPC    C2 5852   0.890   2.179  10.534 -0.6556  0.0891 -1.1440
   69SLPC    HS 5853   0.855   2.074  10.542 -0.3276  0.1149  1.2396
   69SLPC   O21 5854   1.009   2.199  10.459 -0.0874 -0.3876 -0.1233
   69SLPC   C21 5855   1.031   2.107  10.370 -0.2892  0.7814 -0.6221
   69SLPC   O22 5856   0.964   2.014  10.343  0.2020  0.3785 -0.3858
   69SLPC   C22 5857   1.170   2.143  10.304 -0.4390 -0.2780  0.2480
   69SLPC   H2R 5858   1.209   2.237  10.347  1.5407 -0.9209 -0.0306
   69SLPC   H2S 5859   1.232   2.058  10.340  0.2888 -1.1878 -2.7705
   69SLPC    C3 5860   0.782   2.263  10.477 -0.0071 -1.0616 -0.4413
   69SLPC    HX 5861   0.825   2.363  10.453  0.6141 -1.2234 -0.0161
   69SLPC    HY 5862   0.693   2.272  10.542  0.0885  0.3998 -0.4784
   69SLPC   O31 5863   0.743   2.204  10.350  0.2190 -0.2974 -0.6796
   69SLPC   C31 5864   0.634   2.126  10.354  0.4575  0.0655 -0.3379
   69SLPC   O32 5865   0.569   2.097  10.455  0.0945  0.4613  0.1802
   69SLPC   C32 5866   0.594   2.088  10.216  0.4984  0.2685 -0.2745
   69SLPC   H2X 5867   0.497   2.140  10.203  1.2201  1.4160 -1.3549
   69SLPC   H2Y 5868   0.587   1.977  10.212 -0.7736  0.0266  4.0247
   69SLPC   C23 5869   1.179   2.152  10.145  0.3623 -0.4142  0.1911
   69SLPC   H3R 5870   1.106   2.224  10.103 -0.4014 -0.3588  1.5355
   69SLPC   H3S 5871   1.143   2.054  10.106 -1.8370 -0.0945  1.2925
   69SLPC   C24 5872   1.323   2.182  10.104  0.4527 -0.2068  0.0447
   69SLPC   H4R 5873   1.398   2.104  10.129 -1.7166 -2.0333  1.2608
   69SLPC   H4S 5874   1.362   2.279  10.141  0.1760  0.1425 -0.5603
   69SLPC   C25 5875   1.329   2.207   9.953  0.1883  0.4001 -0.6271
   69SLPC   H5R 5876   1.255   2.282   9.918 -1.8511 -1.3432 -0.3151
   69SLPC   H5S 5877   1.278   2.129   9.891 -4.2729  1.8539  0.8289
   69SLPC   C26 5878   1.462   2.251   9.890  0.1078 -0.0274 -0.4290
   69SLPC   H6R 5879   1.541   2.178   9.917  1.0896  1.5837  1.3392
   69SLPC   H6S 5880   1.498   2.345   9.938  2.9547 -1.0048 -0.4652
   69SLPC   C27 5881   1.446   2.272   9.738  0.2057 -0.1305  0.0379
   69SLPC   H7R 5882   1.367   2.346   9.712  1.4348  0.5991 -1.8531
   69SLPC   H7S 5883   1.421   2.176   9.687  2.5681 -0.1670 -1.2099
   69SLPC   C28 5884   1.569   2.343   9.684 -0.1999 -0.1453  0.5888
   69SLPC   H8R 5885   1.589   2.438   9.739 -1.6181  0.7617 -0.3988
   69SLPC   H8S 5886   1.546   2.378   9.581  2.4110 -1.5076 -0.5464
   69SLPC   C29 5887   1.684   2.246   9.677 -0.2727 -0.2393 -0.4756
   69SLPC   H9R 5888   1.749   2.252   9.766 -0.6000  0.0764 -0.2552
   69SLPC  C210 5889   1.705   2.153   9.582 -0.1903  0.3767 -0.2967
   69SLPC  H10R 5890   1.788   2.081   9.591  1.0125  1.8016  0.4089
   69SLPC  C211 5891   1.616   2.128   9.459  0.6336 -0.1693 -0.4957
   69SLPC  H11R 5892   1.516   2.166   9.486  0.4066 -2.3589  2.2024
   69SLPC  H11S 5893   1.605   2.019   9.446  0.4556 -0.3314  0.8602
   69SLPC  C212 5894   1.673   2.207   9.343 -0.4115  0.3168 -0.1761
   69SLPC  H12R 5895   1.753   2.278   9.366 -1.2405  1.2900 -0.2010
   69SLPC  C213 5896   1.625   2.191   9.215 -0.0793  0.0070 -0.0527
   69SLPC  H13R 5897   1.673   2.257   9.142  3.3497 -0.5703  1.4617
   69SLPC  C214 5898   1.517   2.099   9.157  0.1208  0.3948  0.0958
   69SLPC  H14R 5899   1.441   2.154   9.098  0.8537 -0.1909 -1.4266
   69SLPC  H14S 5900   1.468   2.061   9.249  1.2077 -1.2612  0.0349
   69SLPC  C215 5901   1.568   1.982   9.069  0.5554 -0.6758 -0.0488
   69SLPC  H15R 5902   1.477   1.941   9.019  0.0735 -0.7318  0.8407
   69SLPC  H15S 5903   1.602   1.904   9.140 -0.0553  0.0204  1.0447
   69SLPC  C216 5904   1.671   2.015   8.962 -0.4102  0.3934  1.0167
   69SLPC  H16R 5905   1.765   2.043   9.015 -1.3771  0.5522  2.7241
   69SLPC  H16S 5906   1.636   2.103   8.904 -2.2712 -0.3638  0.9279
   69SLPC  C217 5907   1.695   1.897   8.869  0.1499  0.0698  0.2847
   69SLPC  H17R 5908   1.711   1.810   8.937 -2.6182  0.6009  1.7575
   69SLPC  H17S 5909   1.789   1.907   8.810 -0.4429 -0.8819 -0.8763
   69SLPC  C218 5910   1.579   1.875   8.763  0.8010  0.3354 -0.4059
   69SLPC  H18R 5911   1.498   1.820   8.815 -0.2520  2.4866  0.3402
   69SLPC  H18S 5912   1.616   1.804   8.686 -1.1424 -0.4812 -0.6425
   69SLPC  H18T 5913   1.532   1.959   8.707 -1.3078 -0.0643  0.6711
   69SLPC   C33 5914   0.682   2.129  10.091 -0.4647  0.0327 -0.0818
   69SLPC   H3X 5915   0.705   2.237  10.102  0.0593 -0.0884 -0.0007
   69SLPC   H3Y 5916   0.627   2.122   9.994  0.8704  2.0793 -1.0537
   69SLPC   C34 5917   0.818   2.050  10.069 -0.3987  0.3212  0.2000
   69SLPC   H4X 5918   0.807   1.951  10.118 -3.3004  0.5613  0.2012
   69SLPC   H4Y 5919   0.897   2.099  10.129  1.7097 -1.6661 -0.7767
   69SLPC   C35 5920   0.871   2.046   9.926  0.0676 -0.1847 -0.8119
   69SLPC   H5X 5921   0.799   1.992   9.862 -1.9757  0.7253  0.6156
   69SLPC   H5Y 5922   0.968   1.992   9.924  0.4371  0.0951  2.7000
   69SLPC   C36 5923   0.896   2.184   9.858 -0.3196  0.4845 -0.0989
   69SLPC   H6X 5924   0.994   2.214   9.899 -0.6514 -0.4575  1.4520
   69SLPC   H6Y 5925   0.815   2.258   9.876  0.7515  1.4540  0.8879
   69SLPC   C37 5926   0.924   2.177   9.703  0.4944 -0.1294 -0.2004
   69SLPC   H7X 5927   0.964   2.274   9.668 -0.4060  0.3529  0.0712
   69SLPC   H7Y 5928   0.832   2.146   9.649 -0.7127 -1.7215  2.5758
   69SLPC   C38 5929   1.042   2.083   9.671 -0.4032 -0.1975  0.7093
   69SLPC   H8X 5930   1.007   1.978   9.679  1.8613 -0.9470  1.3620
   69SLPC   H8Y 5931   1.122   2.086   9.748  1.0915 -3.1871 -0.5752
   69SLPC   C39 5932   1.124   2.108   9.539  0.2949 -0.0224  0.8362
   69SLPC   H9X 5933   1.216   2.046   9.541  0.6860  0.5243  0.2619
   69SLPC   H9Y 5934   1.136   2.218   9.537 -0.7151  0.0952 -0.6869
   69SLPC  C310 5935   1.049   2.065   9.412 -0.0640  0.2098 -0.6234
   69SLPC  H10X 5936   0.953   2.120   9.405 -1.8733 -2.6468 -0.2009
   69SLPC  H10Y 5937   1.028   1.957   9.433  1.5117  0.0514  0.2361
   69SLPC  C311 5938   1.128   2.091   9.280 -0.1644  0.2025 -0.9655
   69SLPC  H11X 5939   1.231   2.052   9.283 -0.9555 -1.9594  0.3318
   69SLPC  H11Y 5940   1.137   2.201   9.266  0.9142  0.4050  0.9335
   69SLPC  C312 5941   1.063   2.012   9.168  0.2371  0.0862  0.0011
   69SLPC  H12X 5942   0.963   2.060   9.165 -0.7224 -1.7610  0.9969
   69SLPC  H12Y 5943   1.053   1.906   9.198 -0.8610  0.7348  2.1917
   69SLPC  C313 5944   1.127   2.038   9.031 -0.1516  0.2556 -0.7774
   69SLPC  H13X 5945   1.230   1.998   9.042  0.3435  1.6282 -0.2030
   69SLPC  H13Y 5946   1.122   2.147   9.008 -0.3152  0.2605 -0.7183
   69SLPC  C314 5947   1.060   1.967   8.921  0.8039 -0.7348 -0.1051
   69SLPC  H14X 5948   0.957   2.008   8.925 -0.7302 -4.3575  0.9530
   69SLPC  H14Y 5949   1.055   1.858   8.943 -1.7917 -0.9194 -1.2336
   69SLPC  C315 5950   1.116   1.988   8.781 -0.8572  0.0326  0.4349
   69SLPC  H15X 5951   1.224   1.962   8.779 -0.2888  2.1925 -0.6191
   69SLPC  H15Y 5952   1.110   2.096   8.756 -0.3921 -0.3286 -1.4158
   69SLPC  C316 5953   1.035   1.922   8.667 -0.7456 -1.0318  0.2120
   69SLPC  H16X 5954   0.936   1.972   8.656 -1.5550 -2.8108 -1.1263
   69SLPC  H16Y 5955   1.020   1.819   8.706 -2.2890 -1.6472 -1.7981
   69SLPC  C317 5956   1.126   1.916   8.542 -0.2804  0.3152 -0.3928
   69SLPC  H17X 5957   1.157   2.014   8.500 -0.0666 -0.5900 -2.4561
   69SLPC  H17Y 5958   1.069   1.870   8.458 -0.4357 -0.6302  0.2048
   69SLPC  C318 5959   1.240   1.816   8.565 -0.0112 -0.3196 -0.2814
   69SLPC  H18X 5960   1.302   1.827   8.474  1.1623  0.6300  0.6094
   69SLPC  H18Y 5961   1.193   1.719   8.596  0.7341 -0.0967  1.7120
   69SLPC  H18Z 5962   1.306   1.846   8.649 -1.9256  2.3018  0.4056
   70SLPC     N 5963   2.306   5.632  10.957  0.0433  0.8955  0.2270
   70SLPC   C13 5964   2.230   5.527  10.880  0.5225  0.1469 -0.6963
   70SLPC  H13A 5965   2.306   5.475  10.823  1.9856  2.1185 -0.6812
   70SLPC  H13B 5966   2.188   5.458  10.951  0.7655  2.3935  1.7895
   70SLPC  H13C 5967   2.149   5.557  10.815  0.7161  0.3545 -0.8430
   70SLPC   C14 5968   2.336   5.566  11.090 -0.8508  0.3605  0.3981
   70SLPC  H14A 5969   2.250   5.542  11.150 -0.1411 -1.8004  0.6497
   70SLPC  H14B 5970   2.385   5.473  11.065  0.1973  0.9262  0.2426
   70SLPC  H14C 5971   2.399   5.619  11.159  0.2391 -2.8274  2.0538
   70SLPC   C15 5972   2.230   5.752  10.982  0.1524 -0.7992 -0.0859
   70SLPC  H15A 5973   2.281   5.822  11.046 -1.2977  3.6414 -3.2679
   70SLPC  H15B 5974   2.210   5.806  10.890  1.0036  1.3011  0.9056
   70SLPC  H15C 5975   2.131   5.728  11.019 -0.5578  2.1683  0.2492
   70SLPC   C12 5976   2.441   5.661  10.895 -0.9992 -0.3390  0.2601
   70SLPC  H12A 5977   2.500   5.571  10.888  0.9837  0.8980  0.1706
   70SLPC  H12B 5978   2.484   5.731  10.964  0.2736  0.1023 -0.9466
   70SLPC   C11 5979   2.438   5.721  10.751 -0.6289  0.2914 -0.2451
   70SLPC  H11A 5980   2.378   5.645  10.698 -0.0691 -0.0886 -0.3390
   70SLPC  H11B 5981   2.538   5.720  10.702 -0.0921  1.6769  0.7509
   70SLPC     P 5982   2.470   5.978  10.784  0.2782  0.1793  0.0246
   70SLPC   O13 5983   2.406   6.105  10.761  0.0586 -0.5480  0.7432
   70SLPC   O14 5984   2.533   5.960  10.912  0.0928 -0.0917 -0.2198
   70SLPC   O12 5985   2.380   5.850  10.753  0.7431 -0.6001  0.6250
   70SLPC   O11 5986   2.579   5.967  10.676  0.2642 -0.2392  0.1427
   70SLPC    C1 5987   2.532   5.990  10.540  0.0344 -0.1546  0.1952
   70SLPC    HA 5988   2.540   5.894  10.484  2.5286  2.0989 -3.8769
   70SLPC    HB 5989   2.427   6.023  10.525 -0.1268  0.2359  2.0272
   70SLPC    C2 5990   2.631   6.095  10.458  0.1823 -0.2703  0.3747
   70SLPC    HS 5991   2.613   6.199  10.494  0.1069  0.8030 -2.4593
   70SLPC   O21 5992   2.611   6.074  10.317  0.4670 -0.5722 -0.1991
   70SLPC   C21 5993   2.498   6.125  10.279  0.3339  0.0297  0.5743
   70SLPC   O22 5994   2.430   6.211  10.334  0.5839 -0.4878  0.1150
   70SLPC   C22 5995   2.466   6.051  10.151 -0.5382 -0.0449 -0.4771
   70SLPC   H2R 5996   2.558   6.042  10.090 -0.7689  0.9111 -0.9774
   70SLPC   H2S 5997   2.435   5.947  10.173  2.3581 -0.7419  0.8219
   70SLPC    C3 5998   2.777   6.064  10.492  1.2546  0.9095 -0.0744
   70SLPC    HX 5999   2.779   5.955  10.472 -0.9088  0.5303  1.3554
   70SLPC    HY 6000   2.789   6.064  10.602  0.9372  0.1354 -0.0337
   70SLPC   O31 6001   2.873   6.146  10.421  0.4992 -0.3255 -0.3750
   70SLPC   C31 6002   2.898   6.273  10.467  1.0381 -0.0774 -0.2048
   70SLPC   O32 6003   2.828   6.329  10.554  0.3322  0.6769  0.4883
   70SLPC   C32 6004   3.035   6.324  10.409  0.1932 -0.0794 -0.2337
   70SLPC   H2X 6005   3.055   6.255  10.325 -0.5226 -0.6584  0.0534
   70SLPC   H2Y 6006   3.105   6.314  10.495 -2.4281  0.3315  2.1252
   70SLPC   C23 6007   2.354   6.117  10.071 -0.3153  0.3328  0.7487
   70SLPC   H3R 6008   2.350   6.227  10.088 -0.6555  0.0204  2.8992
   70SLPC   H3S 6009   2.259   6.071  10.104 -0.0031 -1.1139 -0.2979
   70SLPC   C24 6010   2.356   6.097   9.917 -0.1079 -0.6755 -0.4397
   70SLPC   H4R 6011   2.342   5.989   9.896  0.4631 -0.9365  0.4913
   70SLPC   H4S 6012   2.459   6.123   9.885  0.8820 -2.1292  1.4126
   70SLPC   C25 6013   2.261   6.186   9.836 -0.1588 -0.1596 -0.1415
   70SLPC   H5R 6014   2.310   6.285   9.825  1.2320 -1.0327 -2.6761
   70SLPC   H5S 6015   2.162   6.195   9.886 -0.2947  0.6041 -0.5347
   70SLPC   C26 6016   2.239   6.139   9.696  0.3283  0.7716  0.0136
   70SLPC   H6R 6017   2.332   6.084   9.670  1.7780  1.5198  3.1992
   70SLPC   H6S 6018   2.216   6.231   9.638 -1.5272 -0.4376 -1.2650
   70SLPC   C27 6019   2.113   6.039   9.690 -0.1395 -1.2372  0.0933
   70SLPC   H7R 6020   2.025   6.092   9.731 -0.2293 -2.0209  0.9436
   70SLPC   H7S 6021   2.131   5.955   9.760 -0.6358 -2.1413 -0.8344
   70SLPC   C28 6022   2.078   5.991   9.553  0.2808  0.0031 -0.2944
   70SLPC   H8R 6023   2.058   6.077   9.485 -1.7977  0.4373  0.7615
   70SLPC   H8S 6024   1.983   5.934   9.566 -0.6166  1.3953 -0.4680
   70SLPC   C29 6025   2.184   5.894   9.493 -0.5924 -0.7147 -0.4389
   70SLPC   H9R 6026   2.224   5.818   9.561 -1.4188  1.5410  2.8049
   70SLPC  C210 6027   2.212   5.891   9.367  0.0974 -0.1532  0.2408
   70SLPC  H10R 6028   2.291   5.820   9.338  0.1529  0.3778 -0.9975
   70SLPC  C211 6029   2.161   5.985   9.254 -0.2983 -0.0391 -0.8789
   70SLPC  H11R 6030   2.233   5.990   9.169 -0.5928 -1.9001 -1.2920
   70SLPC  H11S 6031   2.140   6.091   9.279  0.5354  0.4108 -1.9810
   70SLPC  C212 6032   2.031   5.938   9.196  0.1771  0.0814  0.1304
   70SLPC  H12R 6033   1.977   5.862   9.254  1.9706 -1.2971  0.1056
   70SLPC  C213 6034   1.969   6.000   9.096  0.6752  0.0376 -0.1472
   70SLPC  H13R 6035   1.871   5.963   9.060  0.2142 -0.4490  1.4859
   70SLPC  C214 6036   2.019   6.113   9.013 -0.6782  0.2562  1.1910
   70SLPC  H14R 6037   2.116   6.144   9.058 -0.6255  0.3448  1.0154
   70SLPC  H14S 6038   1.961   6.207   9.004  0.8105  1.0313 -0.9899
   70SLPC  C215 6039   2.050   6.067   8.865 -0.4513 -0.0042 -0.3373
   70SLPC  H15R 6040   2.097   6.147   8.804  0.5406 -1.2778 -1.3062
   70SLPC  H15S 6041   1.952   6.034   8.823 -0.3718 -2.5663  1.2648
   70SLPC  C216 6042   2.143   5.944   8.850 -0.0733  0.4494  0.1195
   70SLPC  H16R 6043   2.079   5.860   8.881 -0.1692 -0.0837 -1.4287
   70SLPC  H16S 6044   2.229   5.962   8.918 -1.5472  1.7124  1.7287
   70SLPC  C217 6045   2.212   5.918   8.711 -0.2097  0.1825 -0.2507
   70SLPC  H17R 6046   2.264   5.820   8.700 -0.9305  0.0483 -3.2351
   70SLPC  H17S 6047   2.281   6.002   8.689  0.1921  0.4229  1.7328
   70SLPC  C218 6048   2.107   5.917   8.608  0.6496  0.6090  0.4780
   70SLPC  H18R 6049   2.147   5.880   8.511 -3.7632 -0.4002 -1.1896
   70SLPC  H18S 6050   2.058   6.015   8.592 -0.1517  0.1648  0.1443
   70SLPC  H18T 6051   2.030   5.837   8.623 -0.0007  1.1400  0.0141
   70SLPC   C33 6052   3.038   6.473  10.367  0.5411 -0.3174 -0.4180
   70SLPC   H3X 6053   3.141   6.514  10.379 -0.8844  3.0490  1.8248
   70SLPC   H3Y 6054   2.990   6.527  10.451 -1.2630 -0.0454 -1.5645
   70SLPC   C34 6055   2.988   6.513  10.231 -0.3481 -0.9116  0.2968
   70SLPC   H4X 6056   2.976   6.624  10.230  1.7597 -0.6466  0.3304
   70SLPC   H4Y 6057   2.884   6.475  10.220 -1.4094  1.8262  0.1637
   70SLPC   C35 6058   3.081   6.456  10.126 -0.9618 -0.1639 -0.3372
   70SLPC   H5X 6059   3.075   6.345  10.130  0.0973 -0.1917  1.4066
   70SLPC   H5Y 6060   3.185   6.485  10.151 -0.5744 -0.3640 -1.6556
   70SLPC   C36 6061   3.047   6.510   9.993  0.2447  0.3946  1.2744
   70SLPC   H6X 6062   3.060   6.620  10.001  2.1584  0.3371 -0.1918
   70SLPC   H6Y 6063   2.945   6.481   9.959  0.1570  1.8874  0.1621
   70SLPC   C37 6064   3.146   6.474   9.878  0.0557  0.1758  0.6779
   70SLPC   H7X 6065   3.155   6.363   9.880  0.4781  0.2109  1.8633
   70SLPC   H7Y 6066   3.247   6.520   9.880  0.9922 -1.8013  2.0990
   70SLPC   C38 6067   3.076   6.491   9.744  0.1189  0.0234  0.5125
   70SLPC   H8X 6068   3.056   6.599   9.725 -2.8650 -0.6530 -0.7520
   70SLPC   H8Y 6069   2.981   6.436   9.762 -0.2401  0.6435  0.5690
   70SLPC   C39 6070   3.160   6.428   9.629 -0.4501  0.2200  0.0881
   70SLPC   H9X 6071   3.182   6.321   9.652 -1.1556  0.1010  0.2317
   70SLPC   H9Y 6072   3.257   6.477   9.608 -0.5170 -0.2126 -1.3206
   70SLPC  C310 6073   3.098   6.434   9.495 -0.6534  0.5705 -0.4337
   70SLPC  H10X 6074   3.120   6.534   9.454  1.2239  0.4553  0.2333
   70SLPC  H10Y 6075   2.988   6.416   9.498 -0.2358 -2.3836  0.8975
   70SLPC  C311 6076   3.162   6.344   9.394 -0.1683  0.1367  0.0645
   70SLPC  H11X 6077   3.144   6.242   9.432  2.3980 -0.6368 -0.5552
   70SLPC  H11Y 6078   3.269   6.371   9.375 -0.4647  1.1261 -0.2370
   70SLPC  C312 6079   3.101   6.354   9.257 -0.5442  0.1244 -0.1170
   70SLPC  H12X 6080   3.117   6.460   9.224  0.4767  0.0596  0.1294
   70SLPC  H12Y 6081   2.991   6.342   9.249 -0.5729 -0.0893  0.5443
   70SLPC  C313 6082   3.169   6.262   9.160  0.2953 -0.0719  0.7843
   70SLPC  H13X 6083   3.124   6.164   9.187  0.2498 -0.7121 -1.4071
   70SLPC  H13Y 6084   3.279   6.259   9.171  0.4217  0.5979 -0.1410
   70SLPC  C314 6085   3.126   6.283   9.014 -0.2734 -0.1214 -0.1886
   70SLPC  H14X 6086   3.201   6.227   8.954 -0.3143 -0.4622  0.0706
   70SLPC  H14Y 6087   3.136   6.392   8.997  0.0931 -0.0940  0.1828
   70SLPC  C315 6088   2.978   6.224   8.994 -0.5699 -0.3895  1.0099
   70SLPC  H15X 6089   2.915   6.257   9.079  0.2340  0.7815  1.1854
   70SLPC  H15Y 6090   2.982   6.114   8.978 -0.4294  0.0770 -3.6176
   70SLPC  C316 6091   2.921   6.286   8.862  0.8148 -0.0559 -0.2982
   70SLPC  H16X 6092   3.001   6.324   8.794 -0.1543  1.5968 -0.5654
   70SLPC  H16Y 6093   2.862   6.373   8.897  1.0521  0.1896 -0.4999
   70SLPC  C317 6094   2.827   6.186   8.790 -0.0843 -0.4945  0.1861
   70SLPC  H17X 6095   2.740   6.214   8.727 -1.2563 -2.5638  0.7637
   70SLPC  H17Y 6096   2.774   6.142   8.878  0.1491  1.9998  1.6512
   70SLPC  C318 6097   2.909   6.070   8.725  0.7304 -0.1749 -0.3876
   70SLPC  H18X 6098   3.003   6.046   8.778 -0.3114 -0.9694  1.1676
   70SLPC  H18Y 6099   2.929   6.101   8.620  0.7737  1.0630 -0.0275
   70SLPC  H18Z 6100   2.853   5.975   8.709  0.6947  0.0402 -1.6434
   71SLPC     N 6101   2.849   4.665  10.751 -0.5062  0.4850  0.9148
   71SLPC   C13 6102   2.983   4.608  10.756  0.5486 -0.1014 -0.1775
   71SLPC  H13A 6103   3.048   4.687  10.723 -1.7481  2.1699  0.3535
   71SLPC  H13B 6104   3.006   4.580  10.858  0.3126 -3.2816 -0.8805
   71SLPC  H13C 6105   2.996   4.518  10.699 -1.6072 -0.1361 -0.7283
   71SLPC   C14 6106   2.758   4.570  10.823 -0.0753 -0.1229 -0.6248
   71SLPC  H14A 6107   2.659   4.613  10.832  0.4618  1.0494 -0.0074
   71SLPC  H14B 6108   2.747   4.479  10.766  1.8826  1.0274 -3.0755
   71SLPC  H14C 6109   2.790   4.544  10.923 -0.0245  3.4370  0.4289
   71SLPC   C15 6110   2.811   4.672  10.608  0.0093 -0.3885  0.2754
   71SLPC  H15A 6111   2.715   4.721  10.602 -0.5401 -1.5603 -2.6991
   71SLPC  H15B 6112   2.877   4.743  10.560 -1.8656  1.9114  0.9078
   71SLPC  H15C 6113   2.811   4.577  10.556 -0.2731 -1.0039  1.3805
   71SLPC   C12 6114   2.852   4.808  10.813  0.0339 -0.0466  0.0537
   71SLPC  H12A 6115   2.945   4.864  10.803 -1.1096  2.5656  2.4132
   71SLPC  H12B 6116   2.866   4.790  10.919  0.8950  0.4736  0.0486
   71SLPC   C11 6117   2.725   4.894  10.788 -0.8839  0.3403  0.4889
   71SLPC  H11A 6118   2.734   4.943  10.689  0.2072 -2.2497 -0.7943
   71SLPC  H11B 6119   2.736   4.979  10.858  1.4979  0.6509 -0.1967
   71SLPC     P 6120   2.478   4.808  10.747 -0.1568 -0.3382  0.1684
   71SLPC   O13 6121   2.399   4.691  10.788 -0.5338 -0.0073  0.1515
   71SLPC   O14 6122   2.409   4.936  10.758 -0.1932  0.3679  0.0670
   71SLPC   O12 6123   2.610   4.818  10.822 -0.3794  0.5639  0.0074
   71SLPC   O11 6124   2.515   4.784  10.599 -0.5370  0.1108  0.0415
   71SLPC    C1 6125   2.499   4.881  10.498  0.6816 -0.0507  0.0221
   71SLPC    HA 6126   2.502   4.984  10.540  0.7310 -1.0046  2.5391
   71SLPC    HB 6127   2.571   4.876  10.414 -1.4056 -0.9848 -1.8020
   71SLPC    C2 6128   2.362   4.866  10.435  0.0710 -0.1091 -0.4196
   71SLPC    HS 6129   2.292   4.816  10.506 -0.6717  2.7493  1.0288
   71SLPC   O21 6130   2.363   4.808  10.307  0.1927 -0.7404 -0.0424
   71SLPC   C21 6131   2.373   4.678  10.311 -0.2409 -0.1234  0.1031
   71SLPC   O22 6132   2.354   4.606  10.409  0.2914 -0.1113 -0.0153
   71SLPC   C22 6133   2.414   4.629  10.170  0.3213  1.3853 -0.3502
   71SLPC   H2R 6134   2.492   4.693  10.123  0.8642  1.1537  0.2227
   71SLPC   H2S 6135   2.451   4.527  10.191 -1.6889  0.2910 -1.8514
   71SLPC    C3 6136   2.290   5.005  10.426  0.1318  0.6354  0.8785
   71SLPC    HX 6137   2.283   5.054  10.526  0.1095  2.5983 -0.0343
   71SLPC    HY 6138   2.189   5.010  10.381  0.9830 -2.2935 -1.7134
   71SLPC   O31 6139   2.372   5.085  10.340 -0.0639 -0.1109 -0.0112
   71SLPC   C31 6140   2.324   5.119  10.219  0.6920  0.3665 -0.2172
   71SLPC   O32 6141   2.211   5.089  10.176  0.0412  0.1782  0.2223
   71SLPC   C32 6142   2.427   5.188  10.136 -0.6137  0.4709  0.7040
   71SLPC   H2X 6143   2.515   5.122  10.121 -0.6925  0.6351 -0.5607
   71SLPC   H2Y 6144   2.453   5.278  10.195  0.3311  0.1685  0.7614
   71SLPC   C23 6145   2.301   4.637  10.069 -0.0753 -0.1103  0.2272
   71SLPC   H3R 6146   2.273   4.744  10.057  0.4845 -0.1729 -2.1583
   71SLPC   H3S 6147   2.211   4.579  10.098 -0.5251  1.1221  1.3807
   71SLPC   C24 6148   2.352   4.568   9.935 -0.2470  0.7179 -0.0798
   71SLPC   H4R 6149   2.373   4.463   9.963 -0.0997  1.0773  1.2416
   71SLPC   H4S 6150   2.451   4.604   9.900  0.0911  0.9419  1.0701
   71SLPC   C25 6151   2.248   4.565   9.827 -0.1142  0.6818  0.2202
   71SLPC   H5R 6152   2.246   4.667   9.783 -0.4302  0.3200 -0.6332
   71SLPC   H5S 6153   2.145   4.537   9.858  0.3687 -3.1927 -1.1047
   71SLPC   C26 6154   2.279   4.460   9.719  0.1865  0.3594  0.0006
   71SLPC   H6R 6155   2.278   4.363   9.773  3.6345 -0.2801 -0.8470
   71SLPC   H6S 6156   2.382   4.480   9.682  0.8220  1.4728  2.1931
   71SLPC   C27 6157   2.179   4.455   9.600  0.1115  0.5185  0.0730
   71SLPC   H7R 6158   2.080   4.425   9.640  0.7046 -2.1160 -0.2171
   71SLPC   H7S 6159   2.199   4.370   9.531 -0.7115 -0.2134  0.7109
   71SLPC   C28 6160   2.165   4.595   9.534 -0.5832  0.6318  1.5050
   71SLPC   H8R 6161   2.262   4.633   9.494 -1.0776  1.2662  0.8737
   71SLPC   H8S 6162   2.124   4.658   9.616 -0.1162 -0.3352  2.5082
   71SLPC   C29 6163   2.050   4.597   9.436 -0.4304 -0.2161  0.3694
   71SLPC   H9R 6164   1.964   4.659   9.466  0.3363  0.6544  0.7944
   71SLPC  C210 6165   2.051   4.554   9.305  0.3070  1.3109 -0.2906
   71SLPC  H10R 6166   1.964   4.563   9.239  0.5091  2.3615 -0.4205
   71SLPC  C211 6167   2.164   4.491   9.237  0.0726 -0.2175  0.4442
   71SLPC  H11R 6168   2.145   4.382   9.222 -2.8008  0.3774 -0.8247
   71SLPC  H11S 6169   2.258   4.496   9.296  1.4320  1.2818 -1.7010
   71SLPC  C212 6170   2.198   4.557   9.107 -0.3703 -0.1444  0.1993
   71SLPC  H12R 6171   2.233   4.661   9.116 -0.6456  0.1671 -1.7890
   71SLPC  C213 6172   2.174   4.504   8.983  0.2570 -0.1311 -1.0529
   71SLPC  H13R 6173   2.202   4.567   8.897  1.1516  1.6861  0.4881
   71SLPC  C214 6174   2.103   4.378   8.949  0.4474  0.0632 -0.1285
   71SLPC  H14R 6175   2.043   4.349   9.038 -3.7080  0.0558 -2.6980
   71SLPC  H14S 6176   2.172   4.295   8.924 -1.4633 -2.1841  1.5979
   71SLPC  C215 6177   1.993   4.404   8.846 -0.3926  0.0809  0.2634
   71SLPC  H15R 6178   1.957   4.303   8.815  1.0941 -1.0845  2.1279
   71SLPC  H15S 6179   2.048   4.449   8.761  0.5272  0.2135  0.9227
   71SLPC  C216 6180   1.881   4.491   8.886  0.8538 -0.4797 -0.5725
   71SLPC  H16R 6181   1.932   4.584   8.919  0.9338  0.1092 -2.2600
   71SLPC  H16S 6182   1.816   4.456   8.969  1.2061 -0.0948 -0.1318
   71SLPC  C217 6183   1.794   4.554   8.769 -0.4689  0.6154 -0.0842
   71SLPC  H17R 6184   1.749   4.468   8.715  1.9595  0.1320 -1.4568
   71SLPC  H17S 6185   1.865   4.603   8.700 -0.4913  1.5497  0.5394
   71SLPC  C218 6186   1.698   4.661   8.803  0.1679 -0.8329 -0.1027
   71SLPC  H18R 6187   1.660   4.700   8.706  0.3834 -0.2437  0.0420
   71SLPC  H18S 6188   1.756   4.746   8.845  0.4023 -0.7686 -0.5449
   71SLPC  H18T 6189   1.614   4.636   8.871 -0.7649  0.3617 -0.7713
   71SLPC   C33 6190   2.390   5.244   9.991 -0.1845  0.7463 -0.3546
   71SLPC   H3X 6191   2.299   5.308   9.991 -0.3329  0.5494  0.5066
   71SLPC   H3Y 6192   2.370   5.150   9.934  0.6534  1.3926 -1.7751
   71SLPC   C34 6193   2.502   5.311   9.913 -0.6472  0.6492 -0.6642
   71SLPC   H4X 6194   2.596   5.252   9.922 -1.0382  0.0489 -0.4448
   71SLPC   H4Y 6195   2.516   5.411   9.959  1.7238  0.1639 -0.2400
   71SLPC   C35 6196   2.455   5.333   9.764 -0.2116  0.4376  0.2934
   71SLPC   H5X 6197   2.345   5.338   9.758 -0.0873  2.6546 -1.6767
   71SLPC   H5Y 6198   2.505   5.251   9.708 -0.4195  1.3431 -1.2585
   71SLPC   C36 6199   2.491   5.473   9.714  0.1937  0.0523 -0.0417
   71SLPC   H6X 6200   2.601   5.484   9.725  0.1093 -0.7083  2.2862
   71SLPC   H6Y 6201   2.444   5.539   9.791  0.4408  0.7593 -0.4909
   71SLPC   C37 6202   2.427   5.487   9.577 -0.0245  0.5769  0.8918
   71SLPC   H7X 6203   2.457   5.584   9.531  2.0082 -0.7392 -0.7441
   71SLPC   H7Y 6204   2.318   5.467   9.581 -0.6073  3.0663 -0.6679
   71SLPC   C38 6205   2.490   5.382   9.476 -0.4061 -0.1719 -0.4838
   71SLPC   H8X 6206   2.466   5.277   9.502 -0.3217 -0.2704 -0.8014
   71SLPC   H8Y 6207   2.600   5.396   9.475 -0.4706  0.8684  1.4933
   71SLPC   C39 6208   2.433   5.402   9.334  0.8908  0.5080 -0.2554
   71SLPC   H9X 6209   2.504   5.340   9.274 -0.2780 -1.6486  0.4844
   71SLPC   H9Y 6210   2.440   5.508   9.301 -1.6750  1.6207  2.4559
   71SLPC  C310 6211   2.301   5.327   9.308 -0.2467  0.7387 -0.1318
   71SLPC  H10X 6212   2.225   5.356   9.384  2.7275  0.6483  3.1493
   71SLPC  H10Y 6213   2.314   5.217   9.320 -2.9702  0.3975  0.3056
   71SLPC  C311 6214   2.230   5.363   9.169 -0.1627  0.4435  0.0160
   71SLPC  H11X 6215   2.183   5.464   9.166  1.9997  1.4919 -0.7091
   71SLPC  H11Y 6216   2.161   5.282   9.138 -2.5251  2.4515 -0.3007
   71SLPC  C312 6217   2.324   5.379   9.047  1.3791  0.4151  0.0826
   71SLPC  H12X 6218   2.401   5.450   9.085  1.6260 -0.9774  2.3552
   71SLPC  H12Y 6219   2.264   5.436   8.972  0.9963 -1.1631 -0.8411
   71SLPC  C313 6220   2.365   5.251   8.982 -0.5354  0.6798  0.9336
   71SLPC  H13X 6221   2.270   5.214   8.937  0.3098 -2.3840  1.4717
   71SLPC  H13Y 6222   2.399   5.176   9.057 -0.6915 -0.0502  0.2911
   71SLPC  C314 6223   2.461   5.268   8.868  0.0166  0.7399  0.0501
   71SLPC  H14X 6224   2.555   5.308   8.911 -0.1231 -0.7184  1.8714
   71SLPC  H14Y 6225   2.427   5.339   8.790  1.0612  2.1153  0.8202
   71SLPC  C315 6226   2.490   5.135   8.797  0.4081  0.0990  0.8736
   71SLPC  H15X 6227   2.395   5.087   8.767  0.5594  0.2650  0.1317
   71SLPC  H15Y 6228   2.547   5.060   8.855 -0.9341 -2.6173 -1.1259
   71SLPC  C316 6229   2.563   5.157   8.663  0.4093  0.2994  0.1184
   71SLPC  H16X 6230   2.501   5.230   8.606 -1.7188 -0.6714  1.0551
   71SLPC  H16Y 6231   2.569   5.062   8.606 -1.0584  0.9109 -1.1191
   71SLPC  C317 6232   2.705   5.211   8.687 -0.1145  0.3713  0.1885
   71SLPC  H17X 6233   2.750   5.116   8.720  0.9179  1.0017  0.6257
   71SLPC  H17Y 6234   2.719   5.295   8.758  2.0683  1.8128 -1.7836
   71SLPC  C318 6235   2.774   5.254   8.559  0.5046 -0.4916  0.3440
   71SLPC  H18X 6236   2.741   5.179   8.484 -0.5523 -0.0543  0.3559
   71SLPC  H18Y 6237   2.884   5.265   8.566  0.2619  2.3383  1.1564
   71SLPC  H18Z 6238   2.738   5.350   8.516  1.9283 -0.1087 -0.0457
   72SLPC     N 6239   3.773   4.040  10.603  0.1223 -0.5050  0.2017
   72SLPC   C13 6240   3.828   4.129  10.495  0.1145 -0.2385 -0.1843
   72SLPC  H13A 6241   3.934   4.146  10.507  0.4292 -1.4192 -1.1284
   72SLPC  H13B 6242   3.811   4.084  10.399 -1.4598 -0.2666  0.0671
   72SLPC  H13C 6243   3.772   4.222  10.488 -0.4093 -0.6943 -2.9793
   72SLPC   C14 6244   3.663   4.117  10.668 -0.6582  0.4090 -0.1905
   72SLPC  H14A 6245   3.594   4.159  10.596 -1.7723 -2.8896 -1.1943
   72SLPC  H14B 6246   3.594   4.055  10.723 -0.0306 -1.0967 -1.0345
   72SLPC  H14C 6247   3.698   4.186  10.743 -3.0571 -1.9266  3.3527
   72SLPC   C15 6248   3.873   4.010  10.711  0.0696 -0.2350 -0.1701
   72SLPC  H15A 6249   3.835   3.971  10.804  1.3300  0.5835  0.7367
   72SLPC  H15B 6250   3.945   3.947  10.661 -0.7701 -0.9689 -0.4746
   72SLPC  H15C 6251   3.908   4.109  10.736 -0.9758 -0.2692  1.6139
   72SLPC   C12 6252   3.719   3.910  10.545  0.2541 -0.6041 -0.6590
   72SLPC  H12A 6253   3.633   3.931  10.485 -2.0446 -0.8793  2.2906
   72SLPC  H12B 6254   3.688   3.835  10.617 -3.7380 -1.2403 -2.7736
   72SLPC   C11 6255   3.809   3.822  10.452 -0.5532 -0.4462 -0.1373
   72SLPC  H11A 6256   3.839   3.888  10.368  1.8783  1.1880  1.8588
   72SLPC  H11B 6257   3.743   3.743  10.409  1.6127 -2.7037  0.4105
   72SLPC     P 6258   3.889   3.655  10.627 -0.0611  0.2041 -0.1749
   72SLPC   O13 6259   4.017   3.626  10.695 -0.5105 -0.2047 -0.4293
   72SLPC   O14 6260   3.774   3.695  10.716 -0.4717 -0.5549 -0.1857
   72SLPC   O12 6261   3.920   3.760  10.510 -0.4112  0.3989  0.1958
   72SLPC   O11 6262   3.841   3.524  10.556 -0.3561 -0.2561  0.4494
   72SLPC    C1 6263   3.931   3.453  10.471 -0.3485  0.7047 -0.6571
   72SLPC    HA 6264   4.025   3.508  10.449  0.4180 -0.4772 -0.4151
   72SLPC    HB 6265   3.982   3.368  10.520  0.0069  0.5772 -1.2368
   72SLPC    C2 6266   3.873   3.442  10.329 -0.7468 -0.5900  0.2096
   72SLPC    HS 6267   3.924   3.367  10.265  1.1457 -1.0194  2.1076
   72SLPC   O21 6268   3.878   3.571  10.265 -0.3815  0.2865  0.2989
   72SLPC   C21 6269   3.986   3.607  10.198  0.3490  0.5548 -0.4040
   72SLPC   O22 6270   4.089   3.540  10.190 -1.0543 -0.9247 -0.5220
   72SLPC   C22 6271   3.959   3.731  10.119  0.4037 -0.0346  0.2081
   72SLPC   H2R 6272   3.887   3.794  10.175  2.0005  0.4444  1.8576
   72SLPC   H2S 6273   4.056   3.785  10.112 -0.1952  1.0710  0.2535
   72SLPC    C3 6274   3.722   3.402  10.331 -0.3400 -0.2686  0.6822
   72SLPC    HX 6275   3.664   3.488  10.370 -0.4734  0.8695 -1.8353
   72SLPC    HY 6276   3.693   3.322  10.404 -0.2583  0.1517  1.1797
   72SLPC   O31 6277   3.688   3.359  10.198  0.3260  0.2430  0.0888
   72SLPC   C31 6278   3.626   3.446  10.119 -0.3275 -0.5720 -0.7199
   72SLPC   O32 6279   3.591   3.553  10.161 -0.1076 -0.0694  0.5914
   72SLPC   C32 6280   3.621   3.399   9.974 -0.1172  0.7828  0.3580
   72SLPC   H2X 6281   3.553   3.311   9.972  1.4493 -0.5111  1.2155
   72SLPC   H2Y 6282   3.722   3.363   9.944  0.7099  2.7198  0.6996
   72SLPC   C23 6283   3.918   3.721   9.979  0.0887 -0.4119 -0.2017
   72SLPC   H3R 6284   3.904   3.821   9.931 -2.3508  0.2596  1.7069
   72SLPC   H3S 6285   3.817   3.676   9.970 -0.1278 -0.4558  1.9637
   72SLPC   C24 6286   4.010   3.637   9.901  0.4931  0.3574  0.0816
   72SLPC   H4R 6287   4.031   3.542   9.953  2.9580  0.4888 -0.5824
   72SLPC   H4S 6288   4.102   3.693   9.875  1.5905 -1.2278  0.4219
   72SLPC   C25 6289   3.951   3.605   9.762  0.2664  0.0531  0.4050
   72SLPC   H5R 6290   3.880   3.678   9.717  0.0761 -0.6895 -0.5240
   72SLPC   H5S 6291   3.881   3.519   9.767  1.0600 -0.7502 -1.4881
   72SLPC   C26 6292   4.054   3.580   9.657 -0.0052  0.7419 -0.1596
   72SLPC   H6R 6293   4.134   3.518   9.703  0.2838  1.5533  0.4452
   72SLPC   H6S 6294   4.105   3.675   9.632 -0.0836  1.1622  1.1648
   72SLPC   C27 6295   3.994   3.512   9.535 -0.0953 -0.4015  0.3810
   72SLPC   H7R 6296   3.924   3.577   9.478  0.8318 -0.6557 -1.0914
   72SLPC   H7S 6297   3.939   3.418   9.558 -1.8870  0.5921  0.3106
   72SLPC   C28 6298   4.100   3.481   9.429 -0.4433 -0.9420  0.2692
   72SLPC   H8R 6299   4.056   3.412   9.355 -1.4563 -0.9526  0.8607
   72SLPC   H8S 6300   4.175   3.434   9.496  0.1005  0.5174  0.7400
   72SLPC   C29 6301   4.155   3.604   9.362 -0.1631 -0.4611  0.0472
   72SLPC   H9R 6302   4.236   3.649   9.422 -1.9582 -0.1231  2.3431
   72SLPC  C210 6303   4.115   3.666   9.245 -0.9000 -0.0861 -0.9081
   72SLPC  H10R 6304   4.181   3.749   9.215 -0.9598 -0.2443 -1.4922
   72SLPC  C211 6305   4.008   3.635   9.147  0.0461  0.1933 -0.1930
   72SLPC  H11R 6306   3.933   3.716   9.136 -1.6149 -1.3619 -0.7859
   72SLPC  H11S 6307   3.943   3.553   9.184 -0.7941  0.0697 -1.8652
   72SLPC  C212 6308   4.076   3.593   9.009  0.0706 -0.2482 -0.2086
   72SLPC  H12R 6309   4.184   3.597   8.991  0.0253 -1.5009 -0.8200
   72SLPC  C213 6310   3.994   3.551   8.907  0.1767  0.2687 -0.5815
   72SLPC  H13R 6311   4.039   3.530   8.809 -1.2683  2.0042 -1.6812
   72SLPC  C214 6312   3.845   3.541   8.907 -0.1934  0.5349  0.6801
   72SLPC  H14R 6313   3.809   3.498   9.003 -2.0577  1.1792  0.3134
   72SLPC  H14S 6314   3.811   3.473   8.827 -0.2610  0.9254  0.3730
   72SLPC  C215 6315   3.778   3.678   8.895 -0.6197  0.1677 -0.3333
   72SLPC  H15R 6316   3.810   3.743   8.979  2.2230  0.0436 -1.1888
   72SLPC  H15S 6317   3.669   3.661   8.902 -0.4078 -1.6858 -0.8902
   72SLPC  C216 6318   3.827   3.755   8.764  0.0833 -0.5834  0.6766
   72SLPC  H16R 6319   3.930   3.793   8.779 -0.2882  1.6239 -1.6243
   72SLPC  H16S 6320   3.756   3.837   8.741  0.1566 -0.8024 -0.3841
   72SLPC  C217 6321   3.832   3.682   8.624  1.0017 -0.7519 -0.0975
   72SLPC  H17R 6322   3.729   3.663   8.587  1.1314 -0.5128 -0.5861
   72SLPC  H17S 6323   3.888   3.587   8.639 -1.4208 -2.2722 -0.0297
   72SLPC  C218 6324   3.904   3.757   8.507  0.5246  0.4753 -0.0776
   72SLPC  H18R 6325   3.902   3.691   8.418 -1.2439  0.3766 -0.0004
   72SLPC  H18S 6326   4.010   3.773   8.535  0.4119 -2.6331  2.7847
   72SLPC  H18T 6327   3.849   3.850   8.481  0.6823  0.3707 -0.8231
   72SLPC   C33 6328   3.575   3.495   9.864 -0.3130 -0.3581 -0.3616
   72SLPC   H3X 6329   3.663   3.532   9.807 -0.0389 -0.8240 -0.2412
   72SLPC   H3Y 6330   3.535   3.588   9.911 -1.7045 -1.0819 -0.0592
   72SLPC   C34 6331   3.487   3.435   9.747  0.5055  0.5394  0.4374
   72SLPC   H4X 6332   3.381   3.417   9.774  0.0253 -0.0179 -1.6598
   72SLPC   H4Y 6333   3.523   3.333   9.722  0.1259  1.3661 -4.3344
   72SLPC   C35 6334   3.482   3.515   9.616 -0.0424 -0.3674  0.1657
   72SLPC   H5X 6335   3.584   3.549   9.588 -0.5735  1.1301 -0.0381
   72SLPC   H5Y 6336   3.425   3.608   9.639  2.8880  1.3295  1.2807
   72SLPC   C36 6337   3.430   3.434   9.505  0.0693 -0.0524 -0.6597
   72SLPC   H6X 6338   3.330   3.389   9.525  0.2611 -0.2445 -0.1328
   72SLPC   H6Y 6339   3.509   3.360   9.482 -0.8833 -1.3477  0.1256
   72SLPC   C37 6340   3.405   3.522   9.384  0.2443  0.4832 -0.4943
   72SLPC   H7X 6341   3.498   3.581   9.369  1.2132 -0.1659  2.3345
   72SLPC   H7Y 6342   3.321   3.592   9.400  1.3504  1.7535 -0.0228
   72SLPC   C38 6343   3.386   3.435   9.256 -0.2423 -0.9692 -0.6407
   72SLPC   H8X 6344   3.466   3.358   9.250  0.4739 -0.1976 -1.2324
   72SLPC   H8Y 6345   3.393   3.501   9.167  0.7876 -0.2151 -0.0140
   72SLPC   C39 6346   3.247   3.366   9.253  0.1616 -0.1343  0.5900
   72SLPC   H9X 6347   3.170   3.436   9.291 -0.5399 -0.4398 -0.2605
   72SLPC   H9Y 6348   3.244   3.283   9.327 -0.2007 -0.2503  0.4441
   72SLPC  C310 6349   3.226   3.312   9.110  0.6196  0.2221 -0.2621
   72SLPC  H10X 6350   3.233   3.391   9.032  1.6890  1.6629  1.2278
   72SLPC  H10Y 6351   3.128   3.260   9.106  1.8258 -2.2701  0.5672
   72SLPC  C311 6352   3.321   3.203   9.069  0.0719 -0.6436  0.3272
   72SLPC  H11X 6353   3.283   3.116   9.126  0.4985  0.3429  2.2339
   72SLPC  H11Y 6354   3.424   3.216   9.110  1.2433 -0.9034 -2.2895
   72SLPC  C312 6355   3.328   3.171   8.921 -0.8107  0.6478 -0.1303
   72SLPC  H12X 6356   3.225   3.161   8.880 -0.2581  0.2505 -1.4840
   72SLPC  H12Y 6357   3.379   3.073   8.909 -1.4850  0.3540 -0.7015
   72SLPC  C313 6358   3.399   3.288   8.839  0.5287  0.2301  0.6923
   72SLPC  H13X 6359   3.502   3.252   8.819  0.3643 -0.7641  1.5547
   72SLPC  H13Y 6360   3.406   3.377   8.905 -0.0998  0.5076  0.3987
   72SLPC  C314 6361   3.316   3.324   8.717  0.4557 -0.2309 -0.8082
   72SLPC  H14X 6362   3.218   3.369   8.744  1.0635  1.3377 -1.0595
   72SLPC  H14Y 6363   3.298   3.228   8.665 -0.9153 -0.7139  0.4931
   72SLPC  C315 6364   3.384   3.426   8.619  0.5696 -0.2255  0.0591
   72SLPC  H15X 6365   3.389   3.523   8.673  1.9296 -1.0333  1.4900
   72SLPC  H15Y 6366   3.314   3.442   8.535  1.5815 -0.4944 -0.8588
   72SLPC  C316 6367   3.520   3.383   8.563 -0.0003 -0.1683 -0.5081
   72SLPC  H16X 6368   3.591   3.372   8.647  1.4237  1.6762 -1.3878
   72SLPC  H16Y 6369   3.551   3.468   8.498 -1.2177  0.7624  0.1124
   72SLPC  C317 6370   3.514   3.256   8.477  0.7524  0.6959 -0.4343
   72SLPC  H17X 6371   3.487   3.175   8.549  2.4103 -1.5954 -2.2101
   72SLPC  H17Y 6372   3.616   3.224   8.448  1.0765  1.3517 -0.0364
   72SLPC  C318 6373   3.413   3.251   8.365  1.3449  0.0843  0.2870
   72SLPC  H18X 6374   3.312   3.280   8.401  1.8892  3.3980 -0.5302
   72SLPC  H18Y 6375   3.405   3.144   8.335 -0.9361 -0.1283  1.4063
   72SLPC  H18Z 6376   3.434   3.318   8.279 -0.5688  0.8172  0.3245
   73SLPC     N 6377   2.672   0.919  10.858 -0.3401  0.1788  0.2184
   73SLPC   C13 6378   2.761   0.919  10.736 -0.1746  0.1589  0.3133
   73SLPC  H13A 6379   2.701   0.940  10.648  2.6669  0.4311 -1.6766
   73SLPC  H13B 6380   2.837   0.993  10.754 -0.0996  0.3649 -0.7365
   73SLPC  H13C 6381   2.799   0.818  10.727  0.0028 -0.1443  3.4014
   73SLPC   C14 6382   2.577   0.807  10.843  0.0451  0.1145 -0.0085
   73SLPC  H14A 6383   2.489   0.828  10.903 -0.6187 -0.8882 -0.6004
   73SLPC  H14B 6384   2.542   0.801  10.741 -1.9896  0.6617  0.6080
   73SLPC  H14C 6385   2.622   0.711  10.862  1.1231  0.4062 -0.9665
   73SLPC   C15 6386   2.599   1.043  10.848  0.3876  0.0420  0.0118
   73SLPC  H15A 6387   2.537   1.063  10.935 -0.8766  3.6510 -1.5200
   73SLPC  H15B 6388   2.648   1.139  10.860 -1.4802  1.2262 -1.1844
   73SLPC  H15C 6389   2.538   1.045  10.759  0.0879 -1.7873  0.1447
   73SLPC   C12 6390   2.745   0.904  10.983 -0.1011  0.3534  0.1181
   73SLPC  H12A 6391   2.807   0.816  10.990 -0.8327 -0.3487 -1.7046
   73SLPC  H12B 6392   2.671   0.902  11.062 -1.0232  1.4045 -0.6863
   73SLPC   C11 6393   2.840   1.027  11.015  0.0260 -0.1420 -0.1664
   73SLPC  H11A 6394   2.878   1.021  11.119 -0.5689 -2.3777 -0.0256
   73SLPC  H11B 6395   2.778   1.119  11.017 -0.3099 -0.3520 -0.6365
   73SLPC     P 6396   3.064   0.937  10.925  0.2556  0.2818  0.0132
   73SLPC   O13 6397   3.183   1.012  10.956 -0.1108 -0.0441 -0.0480
   73SLPC   O14 6398   3.025   0.830  11.019  0.2747  0.1700  0.0656
   73SLPC   O12 6399   2.948   1.047  10.918 -0.0921  0.2065 -0.2685
   73SLPC   O11 6400   3.070   0.885  10.774  0.0221  0.2633 -0.7658
   73SLPC    C1 6401   3.111   0.963  10.667 -0.6289 -0.1797  0.3508
   73SLPC    HA 6402   3.054   1.058  10.666 -1.3350 -0.5295 -2.5464
   73SLPC    HB 6403   3.220   0.981  10.670 -0.7810  0.9347 -0.2359
   73SLPC    C2 6404   3.084   0.886  10.534  0.3968 -0.6904  0.5215
   73SLPC    HS 6405   2.978   0.902  10.505  0.4851 -0.2088  0.4667
   73SLPC   O21 6406   3.129   0.750  10.538 -0.5577  0.2908  0.4264
   73SLPC   C21 6407   3.029   0.671  10.567  0.1465 -0.1145  0.1341
   73SLPC   O22 6408   2.914   0.704  10.579 -0.1069  0.1044 -0.1244
   73SLPC   C22 6409   3.084   0.527  10.568 -0.7743  0.1489  0.2740
   73SLPC   H2R 6410   3.171   0.521  10.498 -1.3632  2.6236 -0.7520
   73SLPC   H2S 6411   3.117   0.503  10.672 -1.0022 -0.8636  0.1248
   73SLPC    C3 6412   3.151   0.951  10.409 -0.5749  0.5680  0.4662
   73SLPC    HX 6413   3.259   0.933  10.429 -0.1359  3.5211  1.3052
   73SLPC    HY 6414   3.129   1.060  10.404 -0.5423  0.7118  2.5573
   73SLPC   O31 6415   3.103   0.884  10.288 -0.0948  0.0909 -0.0360
   73SLPC   C31 6416   3.153   0.939  10.178 -0.6442  0.2034  0.0413
   73SLPC   O32 6417   3.236   1.026  10.171 -0.0116 -0.9910 -0.3750
   73SLPC   C32 6418   3.076   0.887  10.056 -0.6608 -0.1334  0.3533
   73SLPC   H2X 6419   2.967   0.885  10.079 -0.7291  1.5389  0.2592
   73SLPC   H2Y 6420   3.106   0.783  10.030  0.8251  0.5817 -0.8783
   73SLPC   C23 6421   2.980   0.426  10.509 -0.2275  0.0203 -0.2242
   73SLPC   H3R 6422   2.886   0.430  10.567  0.0287  2.2230  0.1182
   73SLPC   H3S 6423   3.012   0.319  10.502 -0.4933 -0.1529  1.0657
   73SLPC   C24 6424   2.923   0.458  10.370 -0.8444  0.7194  0.2611
   73SLPC   H4R 6425   2.897   0.565  10.356 -1.1142  0.6113 -0.0720
   73SLPC   H4S 6426   2.825   0.407  10.366 -0.9665  0.9973 -0.3557
   73SLPC   C25 6427   3.015   0.395  10.258  0.5430 -0.9289  0.4036
   73SLPC   H5R 6428   3.039   0.289  10.280 -0.6751 -1.0842  1.0610
   73SLPC   H5S 6429   3.117   0.439  10.255 -0.5330  1.7497  0.2291
   73SLPC   C26 6430   2.939   0.403  10.123  0.7782  0.0044 -0.7119
   73SLPC   H6R 6431   2.919   0.507  10.088 -2.2704  0.2016  1.2125
   73SLPC   H6S 6432   2.836   0.369  10.145 -0.0744  2.7316 -0.0004
   73SLPC   C27 6433   2.995   0.304  10.012 -0.3533 -0.5437 -0.2987
   73SLPC   H7R 6434   3.104   0.325  10.001 -0.0678 -1.8813 -0.2256
   73SLPC   H7S 6435   2.951   0.336   9.916 -0.6902 -1.5212 -0.4768
   73SLPC   C28 6436   2.948   0.156  10.022 -0.1571  0.0768 -0.2642
   73SLPC   H8R 6437   2.991   0.108  10.112  0.7289 -0.5198 -0.9863
   73SLPC   H8S 6438   3.004   0.112   9.936  1.4579  0.9801  0.2894
   73SLPC   C29 6439   2.798   0.127  10.017  0.5234 -0.2330 -0.3659
   73SLPC   H9R 6440   2.753   0.136  10.117  2.3106  0.3604  0.4195
   73SLPC  C210 6441   2.721   0.099   9.907  0.1955 -0.6266 -0.1725
   73SLPC  H10R 6442   2.614   0.080   9.921  0.1860 -0.8665 -0.5644
   73SLPC  C211 6443   2.755   0.090   9.766 -0.6219  0.8566  0.6110
   73SLPC  H11R 6444   2.830   0.170   9.749  0.7068 -0.0605  1.9766
   73SLPC  H11S 6445   2.663   0.114   9.708 -0.5228 -1.1817 -0.4685
   73SLPC  C212 6446   2.814  -0.046   9.709 -0.5242  0.1246 -0.3209
   73SLPC  H12R 6447   2.843  -0.121   9.784 -1.6035  1.1144  1.1386
   73SLPC  C213 6448   2.822  -0.066   9.578 -0.4770  0.8127 -0.1056
   73SLPC  H13R 6449   2.870  -0.160   9.548  0.4432  0.3733  2.4516
   73SLPC  C214 6450   2.766   0.023   9.472 -0.7954  0.1722 -0.6522
   73SLPC  H14R 6451   2.741   0.124   9.509  1.0825  0.9595 -1.4311
   73SLPC  H14S 6452   2.672  -0.024   9.433 -1.8281  1.4664  0.2078
   73SLPC  C215 6453   2.848   0.051   9.344  0.3635  0.2441 -0.0478
   73SLPC  H15R 6454   2.946   0.100   9.363  0.4285 -0.0466  0.3547
   73SLPC  H15S 6455   2.779   0.119   9.289  0.0196  0.2342  0.3691
   73SLPC  C216 6456   2.874  -0.072   9.269 -0.1178  0.9676  0.3841
   73SLPC  H16R 6457   2.780  -0.132   9.277 -0.3513  1.2846  0.0606
   73SLPC  H16S 6458   2.954  -0.129   9.320  0.2537  1.1279 -0.0128
   73SLPC  C217 6459   2.924  -0.040   9.129  0.1815  0.4844  0.1722
   73SLPC  H17R 6460   3.028  -0.002   9.138 -0.7216  3.3458 -0.3494
   73SLPC  H17S 6461   2.855   0.040   9.092  0.2932  0.7704  0.5792
   73SLPC  C218 6462   2.946  -0.163   9.040 -0.1748  0.1577 -0.2843
   73SLPC  H18R 6463   3.027  -0.153   8.965  1.2346 -4.6739  0.2300
   73SLPC  H18S 6464   2.856  -0.190   8.981  0.5291  0.0476 -1.3311
   73SLPC  H18T 6465   2.971  -0.247   9.108  0.5715  0.2163 -0.4815
   73SLPC   C33 6466   3.102   0.969   9.927  0.1290 -0.0646 -0.7284
   73SLPC   H3X 6467   3.213   0.976   9.926  0.1262  0.2814  0.2639
   73SLPC   H3Y 6468   3.057   1.069   9.942 -2.9972 -1.4570 -0.0923
   73SLPC   C34 6469   3.056   0.912   9.795  0.3746  0.1859 -0.1803
   73SLPC   H4X 6470   2.945   0.905   9.794  0.2559  1.6448 -1.4099
   73SLPC   H4Y 6471   3.081   0.804   9.791 -1.8870 -0.3752 -0.7035
   73SLPC   C35 6472   3.100   0.994   9.676 -0.2915  0.7723  0.1813
   73SLPC   H5X 6473   3.209   1.012   9.683 -0.4262  1.4611  0.6366
   73SLPC   H5Y 6474   3.056   1.094   9.660 -0.8071  0.4166 -0.7265
   73SLPC   C36 6475   3.059   0.926   9.547  0.6679  0.0994  0.1468
   73SLPC   H6X 6476   2.951   0.900   9.543  0.8213 -0.4273 -2.3953
   73SLPC   H6Y 6477   3.115   0.832   9.527 -1.2026 -1.7077  2.7476
   73SLPC   C37 6478   3.096   1.016   9.422  0.4571  0.4049 -0.5218
   73SLPC   H7X 6479   3.205   1.003   9.402  0.2915 -3.7594  0.4186
   73SLPC   H7Y 6480   3.072   1.122   9.443 -0.3614 -0.2156  2.0051
   73SLPC   C38 6481   3.025   0.963   9.296 -0.2015 -0.3274 -0.5371
   73SLPC   H8X 6482   2.920   1.000   9.291 -0.6097 -1.4065 -0.4231
   73SLPC   H8Y 6483   3.012   0.852   9.297  1.2494 -0.5180  0.8377
   73SLPC   C39 6484   3.089   1.010   9.170  0.0674 -0.1111  0.1751
   73SLPC   H9X 6485   3.187   0.960   9.153  0.4878  0.7262  0.0609
   73SLPC   H9Y 6486   3.120   1.116   9.183 -0.1543 -0.1918  1.4757
   73SLPC  C310 6487   3.002   1.005   9.042 -0.0278 -0.2528  1.0812
   73SLPC  H10X 6488   2.911   1.067   9.056 -0.7350 -0.3100 -2.3405
   73SLPC  H10Y 6489   2.971   0.903   9.008 -0.6257  0.2590  0.0557
   73SLPC  C311 6490   3.091   1.053   8.921 -0.1581  0.1121  0.4402
   73SLPC  H11X 6491   3.178   0.985   8.912 -0.0044  0.2850  0.6159
   73SLPC  H11Y 6492   3.138   1.152   8.939  1.1782 -0.0623 -1.7504
   73SLPC  C312 6493   3.021   1.058   8.783  0.1918 -0.0663  0.3143
   73SLPC  H12X 6494   2.934   1.127   8.788  0.2205 -0.0389  0.4584
   73SLPC  H12Y 6495   2.971   0.960   8.771  0.5991 -0.0217 -2.2248
   73SLPC  C313 6496   3.110   1.091   8.663  0.3358 -0.2072 -0.1102
   73SLPC  H13X 6497   3.171   0.999   8.649  1.5640  0.7442 -1.2533
   73SLPC  H13Y 6498   3.163   1.188   8.675  2.0715 -1.3678  2.3222
   73SLPC  C314 6499   3.015   1.094   8.538  0.5508 -0.0777 -0.3192
   73SLPC  H14X 6500   2.932   1.164   8.560  0.0009 -0.2339 -1.8264
   73SLPC  H14Y 6501   2.977   0.991   8.523  0.4658 -0.3153  1.3536
   73SLPC  C315 6502   3.088   1.144   8.408  0.2142 -0.0899 -0.1374
   73SLPC  H15X 6503   3.013   1.109   8.334  2.4864 -3.2454 -1.1396
   73SLPC  H15Y 6504   3.185   1.092   8.404 -0.1698 -0.8666  0.3868
   73SLPC  C316 6505   3.137   1.293   8.410 -0.1445  0.2574 -0.0247
   73SLPC  H16X 6506   3.219   1.314   8.482  0.6062 -0.5169 -0.6290
   73SLPC  H16Y 6507   3.054   1.362   8.436 -3.9531 -3.4559 -1.2459
   73SLPC  C317 6508   3.181   1.346   8.277 -0.2658 -0.8561 -0.3787
   73SLPC  H17X 6509   3.112   1.312   8.197 -0.1029 -0.9928 -0.4617
   73SLPC  H17Y 6510   3.282   1.311   8.246 -0.3146 -0.6412 -0.7845
   73SLPC  C318 6511   3.181   1.496   8.264 -0.4430 -0.7054  0.4505
   73SLPC  H18X 6512   3.230   1.541   8.352  0.2782  2.7108 -1.5357
   73SLPC  H18Y 6513   3.074   1.527   8.266  0.3383  2.6260 -1.8901
   73SLPC  H18Z 6514   3.218   1.548   8.173  0.0821 -0.9543  0.5157
   74SLPC     N 6515   4.952   2.929  10.839  0.0232  0.5019  0.1851
   74SLPC   C13 6516   5.002   3.008  10.952  0.1525 -0.7209  0.3444
   74SLPC  H13A 6517   4.969   2.973  11.048 -0.3731 -1.0424  0.0574
   74SLPC  H13B 6518   5.110   3.005  10.955  0.2642  0.3934 -1.0628
   74SLPC  H13C 6519   4.968   3.110  10.940 -0.6860 -1.1322 -1.0703
   74SLPC   C14 6520   4.805   2.913  10.859  0.4039 -0.2159 -0.0155
   74SLPC  H14A 6521   4.764   2.880  10.765 -1.7828  0.5501  0.6096
   74SLPC  H14B 6522   4.785   2.841  10.937  0.7868  0.7647  1.0208
   74SLPC  H14C 6523   4.757   3.007  10.883 -1.5809 -1.1880  0.0609
   74SLPC   C15 6524   5.022   2.793  10.828  0.3440 -0.4924  0.5010
   74SLPC  H15A 6525   4.983   2.737  10.745 -1.4389  1.6495 -0.2089
   74SLPC  H15B 6526   5.128   2.801  10.809  0.4483  1.6642  1.7060
   74SLPC  H15C 6527   4.996   2.727  10.910 -2.1315  0.1979  0.3664
   74SLPC   C12 6528   4.970   3.005  10.707 -0.3857  0.3891  0.2275
   74SLPC  H12A 6529   4.941   3.106  10.733  1.1043  1.4238 -1.8309
   74SLPC  H12B 6530   4.904   2.977  10.626 -0.6752  2.5893 -0.3718
   74SLPC   C11 6531   5.116   3.022  10.651 -0.1449  0.0186 -0.5792
   74SLPC  H11A 6532   5.178   3.057  10.736  1.6620 -0.4899 -1.6203
   74SLPC  H11B 6533   5.123   3.103  10.575  1.3879  0.4376 -0.0331
   74SLPC     P 6534   5.177   2.838  10.466  0.0293 -0.0324  0.2835
   74SLPC   O13 6535   5.300   2.756  10.444  0.1362 -0.2173  0.0498
   74SLPC   O14 6536   5.050   2.768  10.444  0.1089  0.1488  0.0460
   74SLPC   O12 6537   5.179   2.907  10.605  0.0456 -0.5590 -0.1318
   74SLPC   O11 6538   5.182   2.958  10.364  0.4625 -0.4424 -0.5989
   74SLPC    C1 6539   5.299   3.038  10.364 -0.2420  0.2864 -0.1432
   74SLPC    HA 6540   5.270   3.144  10.382  0.2264  0.3406  0.3386
   74SLPC    HB 6541   5.368   3.005  10.445 -2.3937 -2.4415  0.7322
   74SLPC    C2 6542   5.369   3.047  10.226  0.0718  0.7108 -0.1863
   74SLPC    HS 6543   5.463   3.103  10.240  0.2979 -0.2554  2.7200
   74SLPC   O21 6544   5.274   3.106  10.138  0.5279  0.7313  0.1748
   74SLPC   C21 6545   5.319   3.203  10.065  0.5492  0.0499  0.0259
   74SLPC   O22 6546   5.432   3.244  10.065  0.2660  0.4663 -0.4436
   74SLPC   C22 6547   5.207   3.253   9.967  0.5033  0.7003  0.2935
   74SLPC   H2R 6548   5.160   3.159   9.929  0.9325  0.4557  0.3640
   74SLPC   H2S 6549   5.153   3.332  10.024  0.6845  1.7738 -0.9855
   74SLPC    C3 6550   5.413   2.910  10.175 -0.0091  0.4821  0.4702
   74SLPC    HX 6551   5.320   2.862  10.137 -0.6349  1.0401  1.2580
   74SLPC    HY 6552   5.462   2.864  10.263 -0.5000  0.0380  0.5142
   74SLPC   O31 6553   5.514   2.915  10.067  0.0579  0.4937  0.1444
   74SLPC   C31 6554   5.521   2.802   9.997  1.1226  0.4794  0.1903
   74SLPC   O32 6555   5.488   2.690  10.036 -0.0894  0.1464  0.6422
   74SLPC   C32 6556   5.572   2.832   9.852  0.3667 -0.2891 -0.1263
   74SLPC   H2X 6557   5.683   2.834   9.855  0.3393  1.1254  0.8229
   74SLPC   H2Y 6558   5.544   2.939   9.840 -0.0249 -0.4270 -0.4497
   74SLPC   C23 6559   5.274   3.324   9.850  0.8766  0.3427  0.2188
   74SLPC   H3R 6560   5.360   3.272   9.804  1.0802  1.1749 -0.3627
   74SLPC   H3S 6561   5.292   3.427   9.889  0.9122  0.5917 -0.4421
   74SLPC   C24 6562   5.178   3.347   9.738 -0.5877 -0.7383  0.3161
   74SLPC   H4R 6563   5.082   3.382   9.782  0.3210 -0.6003  2.3100
   74SLPC   H4S 6564   5.155   3.254   9.681  0.1519 -0.3767 -0.6084
   74SLPC   C25 6565   5.225   3.471   9.656 -0.2069  0.5479  0.1522
   74SLPC   H5R 6566   5.318   3.445   9.601  0.3447  1.9367  0.3683
   74SLPC   H5S 6567   5.239   3.561   9.720  0.9272  2.1415 -2.1513
   74SLPC   C26 6568   5.120   3.531   9.551 -0.3442 -0.4367 -0.0935
   74SLPC   H6R 6569   5.168   3.615   9.496  0.9657 -0.9501  0.2185
   74SLPC   H6S 6570   5.041   3.578   9.612 -0.2735  2.0809 -1.7783
   74SLPC   C27 6571   5.085   3.426   9.447 -0.5052 -0.8773 -0.4431
   74SLPC   H7R 6572   5.046   3.330   9.487  2.7043 -1.6158  1.1810
   74SLPC   H7S 6573   5.177   3.390   9.398 -0.2430  0.4342 -0.9690
   74SLPC   C28 6574   4.978   3.471   9.350 -0.1840 -0.5577 -0.0408
   74SLPC   H8R 6575   5.026   3.557   9.299 -1.8063 -0.3414 -1.2855
   74SLPC   H8S 6576   4.898   3.514   9.413  0.8827  1.3458  0.0786
   74SLPC   C29 6577   4.930   3.362   9.257  0.0102  0.0711 -0.3406
   74SLPC   H9R 6578   4.841   3.307   9.291 -0.2236  0.8046  0.2807
   74SLPC  C210 6579   4.982   3.334   9.134  0.1692 -0.4793  0.1636
   74SLPC  H10R 6580   4.943   3.247   9.079 -0.4807  0.1532 -0.4082
   74SLPC  C211 6581   5.102   3.401   9.075 -0.0269 -0.9121 -0.1070
   74SLPC  H11R 6582   5.167   3.447   9.153  0.3835  0.3854 -1.1875
   74SLPC  H11S 6583   5.071   3.486   9.010 -1.6347 -0.7412  0.8145
   74SLPC  C212 6584   5.191   3.314   8.993 -0.6358  0.0714 -0.8841
   74SLPC  H12R 6585   5.286   3.300   9.045  0.4530  3.0631 -1.8960
   74SLPC  C213 6586   5.165   3.262   8.871 -0.0923  0.0682  0.1191
   74SLPC  H13R 6587   5.243   3.213   8.811 -1.5176 -3.8996  1.2162
   74SLPC  C214 6588   5.036   3.282   8.791  0.1643 -0.3553  0.3284
   74SLPC  H14R 6589   4.955   3.313   8.861  0.8978  1.1517  0.5559
   74SLPC  H14S 6590   4.993   3.195   8.738  2.5887 -1.7957  0.5885
   74SLPC  C215 6591   5.035   3.404   8.698  0.5909  0.6542 -0.5923
   74SLPC  H15R 6592   5.069   3.493   8.755  0.6636  0.7536 -0.7894
   74SLPC  H15S 6593   4.932   3.437   8.672  1.0748  1.3335 -1.7088
   74SLPC  C216 6594   5.122   3.378   8.569  0.2042  0.1613 -0.3439
   74SLPC  H16R 6595   5.116   3.271   8.541 -1.6227 -0.5172  2.3033
   74SLPC  H16S 6596   5.227   3.401   8.599  0.1250  2.4181 -1.5423
   74SLPC  C217 6597   5.085   3.474   8.461  0.0400 -1.0623 -0.3126
   74SLPC  H17R 6598   5.063   3.569   8.514  2.0113 -0.8452  0.2022
   74SLPC  H17S 6599   4.995   3.442   8.404  0.2611 -0.4745 -1.0144
   74SLPC  C218 6600   5.201   3.502   8.367 -0.4454 -0.7521 -0.0641
   74SLPC  H18R 6601   5.300   3.520   8.415  0.5892 -0.2030 -2.2745
   74SLPC  H18S 6602   5.197   3.586   8.294  1.4391 -1.5726 -1.1832
   74SLPC  H18T 6603   5.207   3.411   8.304 -2.1655  0.0624 -1.4996
   74SLPC   C33 6604   5.512   2.744   9.742  0.1795  0.1550  0.1995
   74SLPC   H3X 6605   5.407   2.780   9.733 -0.6703 -2.2414 -0.2534
   74SLPC   H3Y 6606   5.502   2.642   9.784  0.1486 -0.4890 -1.3404
   74SLPC   C34 6607   5.595   2.743   9.622  0.3505 -0.2970 -0.1146
   74SLPC   H4X 6608   5.693   2.693   9.637  1.0074  0.5713 -1.3347
   74SLPC   H4Y 6609   5.611   2.840   9.571  0.3971 -0.7639 -0.9998
   74SLPC   C35 6610   5.515   2.665   9.510 -0.0251 -0.2958  0.9956
   74SLPC   H5X 6611   5.419   2.720   9.495 -0.9952 -1.7344  1.7131
   74SLPC   H5Y 6612   5.484   2.562   9.538 -2.1232 -1.0095 -3.1171
   74SLPC   C36 6613   5.600   2.652   9.380  0.0077 -0.5415  0.6194
   74SLPC   H6X 6614   5.684   2.580   9.387 -0.1142 -0.9667 -1.4812
   74SLPC   H6Y 6615   5.644   2.750   9.352 -0.2348 -0.6288 -0.0905
   74SLPC   C37 6616   5.517   2.610   9.257  0.6241  0.2075  0.2894
   74SLPC   H7X 6617   5.471   2.702   9.215 -0.3017  0.5704  2.0060
   74SLPC   H7Y 6618   5.445   2.529   9.282  1.6830 -0.7645  0.2785
   74SLPC   C38 6619   5.610   2.558   9.152 -0.4466 -0.2048 -0.0613
   74SLPC   H8X 6620   5.656   2.464   9.190 -2.0040 -0.9958 -0.0474
   74SLPC   H8Y 6621   5.682   2.635   9.119  1.8839 -0.6699  3.3804
   74SLPC   C39 6622   5.534   2.531   9.025 -0.2949  0.0744  0.0682
   74SLPC   H9X 6623   5.472   2.619   8.998 -1.9345 -0.3292  2.2719
   74SLPC   H9Y 6624   5.470   2.444   9.049 -0.0174  0.4439  2.3262
   74SLPC  C310 6625   5.618   2.496   8.904 -0.0649  0.3978 -0.4065
   74SLPC  H10X 6626   5.662   2.395   8.923  0.9593  1.0006  0.5465
   74SLPC  H10Y 6627   5.699   2.569   8.882  2.6429 -2.0830  0.6394
   74SLPC  C311 6628   5.529   2.492   8.779  0.1966 -0.9518  0.2855
   74SLPC  H11X 6629   5.507   2.596   8.748  1.3066 -0.7799  0.0287
   74SLPC  H11Y 6630   5.433   2.439   8.800  0.5506 -1.4626  0.6461
   74SLPC  C312 6631   5.584   2.423   8.657 -0.4068 -0.0335 -0.0421
   74SLPC  H12X 6632   5.509   2.417   8.575  1.4302 -0.2016 -1.7969
   74SLPC  H12Y 6633   5.601   2.317   8.687 -2.4385 -0.4597 -0.2275
   74SLPC  C313 6634   5.715   2.499   8.607  0.7656 -0.7681 -0.4689
   74SLPC  H13X 6635   5.797   2.492   8.681  0.6923  0.9207 -0.1897
   74SLPC  H13Y 6636   5.687   2.605   8.593 -1.4503 -1.2388  0.0714
   74SLPC  C314 6637   5.766   2.444   8.473  0.4479 -0.1402  0.2969
   74SLPC  H14X 6638   5.702   2.363   8.434  0.4333  0.4027 -0.8520
   74SLPC  H14Y 6639   5.864   2.397   8.501 -0.1536 -1.3628  0.4153
   74SLPC  C315 6640   5.783   2.557   8.366 -0.5766  0.1655  0.3279
   74SLPC  H15X 6641   5.704   2.635   8.376  0.3139  0.8960  2.1626
   74SLPC  H15Y 6642   5.782   2.504   8.269 -0.9324  2.5481 -1.0482
   74SLPC  C316 6643   5.922   2.624   8.371  0.0079 -0.2644 -0.6237
   74SLPC  H16X 6644   6.009   2.554   8.374 -0.2837 -0.6442 -0.9124
   74SLPC  H16Y 6645   5.934   2.688   8.461  3.9237  1.3028 -2.0138
   74SLPC  C317 6646   5.954   2.730   8.264 -0.2252  0.3945  0.0885
   74SLPC  H17X 6647   6.052   2.768   8.299  0.3250 -0.4316 -0.5299
   74SLPC  H17Y 6648   5.877   2.808   8.248  0.5241  1.1924  0.2800
   74SLPC  C318 6649   5.984   2.662   8.130 -0.5433  0.2345 -0.2168
   74SLPC  H18X 6650   5.896   2.596   8.109  0.5488 -1.7571  1.0990
   74SLPC  H18Y 6651   6.067   2.589   8.135 -0.5969  0.2422  2.2544
   74SLPC  H18Z 6652   6.004   2.735   8.050  0.6177 -0.1303 -0.2730
   75SLPC     N 6653   1.194   5.897   6.260 -0.1326  0.2029 -0.0943
   75SLPC   C13 6654   1.212   5.886   6.109  0.0436  0.1725  0.0054
   75SLPC  H13A 6655   1.186   5.787   6.073  1.1433  0.3199 -1.2946
   75SLPC  H13B 6656   1.162   5.966   6.057 -0.4675  1.3203  2.1594
   75SLPC  H13C 6657   1.315   5.890   6.076 -0.8328 -0.0681 -3.0130
   75SLPC   C14 6658   1.242   6.030   6.297  0.4875  0.1944  0.4102
   75SLPC  H14A 6659   1.230   6.039   6.404  1.2005  0.3202  0.4796
   75SLPC  H14B 6660   1.346   6.036   6.269  0.5372  0.9767  0.7309
   75SLPC  H14C 6661   1.176   6.104   6.255  0.2483 -1.5580 -2.5738
   75SLPC   C15 6662   1.278   5.795   6.334  0.1962  1.0952  0.4683
   75SLPC  H15A 6663   1.375   5.781   6.290  0.7793  2.0930  1.3958
   75SLPC  H15B 6664   1.272   5.801   6.442 -0.0916  0.3915  0.4963
   75SLPC  H15C 6665   1.238   5.697   6.314  0.2658  0.5697  2.6831
   75SLPC   C12 6666   1.049   5.874   6.280  0.1470  0.2589 -0.1450
   75SLPC  H12A 6667   1.024   5.779   6.237  1.0822 -0.1921  0.2682
   75SLPC  H12B 6668   0.986   5.932   6.214  0.8601  1.1121 -0.1100
   75SLPC   C11 6669   0.981   5.894   6.422 -0.3881  0.5591  0.6345
   75SLPC  H11A 6670   1.042   5.838   6.497  0.4941 -0.0056 -0.4745
   75SLPC  H11B 6671   0.877   5.857   6.427 -1.2589  2.7949  0.4238
   75SLPC     P 6672   0.888   6.135   6.406  0.3257  0.0369  0.0655
   75SLPC   O13 6673   0.898   6.269   6.463 -0.1208  0.0024 -0.0437
   75SLPC   O14 6674   0.887   6.118   6.257 -0.1356 -0.2890  0.0911
   75SLPC   O12 6675   0.988   6.036   6.458  0.5859 -0.0063 -0.1499
   75SLPC   O11 6676   0.753   6.067   6.456 -0.0499 -0.7464 -0.3314
   75SLPC    C1 6677   0.694   6.095   6.582 -0.0731 -0.4265 -0.5833
   75SLPC    HA 6678   0.666   6.202   6.583  0.6299 -0.2404  0.5774
   75SLPC    HB 6679   0.593   6.048   6.587 -0.3040  0.1465  0.1962
   75SLPC    C2 6680   0.781   6.049   6.703 -0.0479 -0.4064  1.0037
   75SLPC    HS 6681   0.877   6.104   6.708 -0.6513  0.8735 -0.7280
   75SLPC   O21 6682   0.781   5.909   6.688  0.0062  0.1881 -0.2063
   75SLPC   C21 6683   0.892   5.852   6.742  0.0279 -0.6019 -0.0912
   75SLPC   O22 6684   0.990   5.917   6.787 -0.1803 -0.3138 -0.1490
   75SLPC   C22 6685   0.884   5.700   6.719  0.4808  0.4298  0.8833
   75SLPC   H2R 6686   0.780   5.668   6.695  0.9758 -0.2166 -0.4498
   75SLPC   H2S 6687   0.947   5.679   6.630 -1.7226 -1.2827 -0.3988
   75SLPC    C3 6688   0.711   6.091   6.837 -0.5485 -0.2909  0.0713
   75SLPC    HX 6689   0.606   6.058   6.824  0.4002 -2.5736 -2.9447
   75SLPC    HY 6690   0.710   6.201   6.851 -1.1126 -0.5003  1.9877
   75SLPC   O31 6691   0.773   6.021   6.950 -0.0790  0.0473 -0.4119
   75SLPC   C31 6692   0.865   6.096   7.014 -0.1431  0.3806  0.2043
   75SLPC   O32 6693   0.884   6.217   7.003  0.1416  0.2195  0.7752
   75SLPC   C32 6694   0.935   6.005   7.113 -0.4654 -0.1556  0.3959
   75SLPC   H2X 6695   1.020   6.052   7.168 -0.5823 -1.4982  1.7778
   75SLPC   H2Y 6696   0.971   5.909   7.070  1.7286 -0.4829  2.6824
   75SLPC   C23 6697   0.926   5.613   6.846  0.2339 -0.7264  0.6805
   75SLPC   H3R 6698   0.889   5.673   6.931 -0.5438 -1.0238  0.5625
   75SLPC   H3S 6699   1.035   5.628   6.860 -0.0836  2.2320  0.7149
   75SLPC   C24 6700   0.869   5.481   6.849  0.3225 -0.4641 -0.1025
   75SLPC   H4R 6701   0.906   5.412   6.770 -0.5898 -0.5751 -0.4371
   75SLPC   H4S 6702   0.761   5.494   6.829  0.3934  1.2899  0.5328
   75SLPC   C25 6703   0.868   5.404   6.984 -0.4138  0.7226 -0.3553
   75SLPC   H5R 6704   0.969   5.380   7.023 -0.1179 -0.3109 -1.6944
   75SLPC   H5S 6705   0.813   5.308   6.974  0.5056  0.3279 -1.9352
   75SLPC   C26 6706   0.793   5.484   7.089 -0.2281 -0.2167  0.8395
   75SLPC   H6R 6707   0.699   5.525   7.046 -0.2189  0.0695  1.0890
   75SLPC   H6S 6708   0.855   5.565   7.133 -0.3076 -0.1423  0.8152
   75SLPC   C27 6709   0.747   5.405   7.216  0.1063  0.0362  0.4635
   75SLPC   H7R 6710   0.836   5.373   7.274 -0.6274  0.9175  2.1724
   75SLPC   H7S 6711   0.697   5.312   7.183  2.2398 -0.5433 -1.3760
   75SLPC   C28 6712   0.654   5.489   7.306  0.3882 -0.1621 -0.2110
   75SLPC   H8R 6713   0.617   5.437   7.397 -1.3781  1.5135  0.0789
   75SLPC   H8S 6714   0.568   5.527   7.247 -0.0236  1.9735  1.6644
   75SLPC   C29 6715   0.719   5.611   7.357  0.7934 -0.3802 -0.1381
   75SLPC   H9R 6716   0.742   5.690   7.285  3.4516 -1.1068 -0.2075
   75SLPC  C210 6717   0.755   5.635   7.489  0.6646 -0.7090  0.5418
   75SLPC  H10R 6718   0.813   5.724   7.516  1.9582 -0.4209 -2.7075
   75SLPC  C211 6719   0.734   5.537   7.603  0.0046 -0.2146 -0.4866
   75SLPC  H11R 6720   0.827   5.559   7.660 -0.2869 -0.1537 -0.0244
   75SLPC  H11S 6721   0.736   5.429   7.576 -1.5401 -0.1222 -1.0379
   75SLPC  C212 6722   0.609   5.583   7.683 -0.2221  0.4410  0.3009
   75SLPC  H12R 6723   0.512   5.566   7.635 -0.8016  1.8904  0.8744
   75SLPC  C213 6724   0.604   5.648   7.802  0.8850 -0.4648  0.3094
   75SLPC  H13R 6725   0.507   5.692   7.827  2.1153  1.4294  2.1582
   75SLPC  C214 6726   0.708   5.688   7.894 -0.2906  0.5136 -0.2899
   75SLPC  H14R 6727   0.698   5.797   7.917 -0.3025  0.3924  0.2963
   75SLPC  H14S 6728   0.809   5.665   7.855  0.5501  1.5606  1.1307
   75SLPC  C215 6729   0.712   5.612   8.032  0.6117 -0.6248 -0.1959
   75SLPC  H15R 6730   0.733   5.504   8.015 -1.0888 -1.1102  0.4873
   75SLPC  H15S 6731   0.616   5.612   8.089  1.6067  1.0887  1.5963
   75SLPC  C216 6732   0.822   5.672   8.127  0.2418  0.3245 -0.2765
   75SLPC  H16R 6733   0.924   5.673   8.085  1.5728 -0.0783  2.6790
   75SLPC  H16S 6734   0.821   5.596   8.208 -0.4718  0.5647 -0.0499
   75SLPC  C217 6735   0.788   5.807   8.198 -0.4061  0.3319  0.2280
   75SLPC  H17R 6736   0.687   5.792   8.243 -0.5870  1.8211  0.3780
   75SLPC  H17S 6737   0.790   5.880   8.115  1.2996 -1.3494 -1.2738
   75SLPC  C218 6738   0.888   5.848   8.308 -0.7031 -0.5628  0.5296
   75SLPC  H18R 6739   0.985   5.861   8.255 -0.6412 -0.4278  0.6750
   75SLPC  H18S 6740   0.881   5.780   8.395 -1.1396 -0.0737  0.8828
   75SLPC  H18T 6741   0.868   5.953   8.339 -2.1216 -0.4780 -0.5637
   75SLPC   C33 6742   0.833   5.971   7.219 -0.0644 -0.3784 -0.3366
   75SLPC   H3X 6743   0.731   5.968   7.175  0.1054  2.0555 -1.0366
   75SLPC   H3Y 6744   0.850   5.872   7.267 -1.6882 -0.1046  0.9157
   75SLPC   C34 6745   0.838   6.052   7.346 -0.1780 -0.3545 -1.0105
   75SLPC   H4X 6746   0.837   6.162   7.333 -0.2625 -0.2410 -0.0951
   75SLPC   H4Y 6747   0.939   6.026   7.385 -0.0711 -0.7110 -1.5220
   75SLPC   C35 6748   0.734   6.017   7.458 -0.3277 -0.2206 -0.6835
   75SLPC   H5X 6749   0.731   5.907   7.472  0.0065 -0.0064  1.6100
   75SLPC   H5Y 6750   0.632   6.054   7.435  0.0750  1.3024 -0.1358
   75SLPC   C36 6751   0.794   6.078   7.589  0.1212  0.0186 -0.5848
   75SLPC   H6X 6752   0.814   6.185   7.566  2.0858 -0.7537 -2.8062
   75SLPC   H6Y 6753   0.885   6.035   7.634 -0.5175 -1.0052 -0.2414
   75SLPC   C37 6754   0.693   6.080   7.700 -0.2300 -0.6185  0.3696
   75SLPC   H7X 6755   0.643   5.985   7.727 -0.0030 -1.1767 -1.1437
   75SLPC   H7Y 6756   0.619   6.153   7.660 -3.2996 -3.1433  0.9752
   75SLPC   C38 6757   0.741   6.140   7.836 -0.2905 -0.2829  0.8507
   75SLPC   H8X 6758   0.778   6.244   7.823  0.0657 -0.7378 -2.5949
   75SLPC   H8Y 6759   0.827   6.078   7.870 -1.1125 -1.8476  0.2053
   75SLPC   C39 6760   0.631   6.146   7.943  0.9068 -0.8268 -0.0987
   75SLPC   H9X 6761   0.598   6.041   7.962 -0.6799 -0.6040 -1.3644
   75SLPC   H9Y 6762   0.538   6.196   7.907  1.3816 -2.3236 -3.9168
   75SLPC  C310 6763   0.686   6.207   8.076 -0.6721  0.2705 -0.1884
   75SLPC  H10X 6764   0.748   6.298   8.057 -1.6823  1.0386  0.0933
   75SLPC  H10Y 6765   0.742   6.133   8.137 -0.6624 -0.6049 -1.2431
   75SLPC  C311 6766   0.573   6.267   8.161 -0.0178 -0.4394  0.3582
   75SLPC  H11X 6767   0.560   6.191   8.241 -1.6243 -0.7795 -0.1927
   75SLPC  H11Y 6768   0.472   6.286   8.119  0.0226 -2.9735 -1.0598
   75SLPC  C312 6769   0.617   6.394   8.238  0.0095 -0.0378 -0.8198
   75SLPC  H12X 6770   0.624   6.482   8.171  0.4852  1.4245  1.0496
   75SLPC  H12Y 6771   0.712   6.381   8.294 -0.1710  1.2666 -0.1926
   75SLPC  C313 6772   0.501   6.451   8.332 -0.3084 -0.0726  0.7447
   75SLPC  H13X 6773   0.542   6.534   8.393 -0.0767 -0.4237  1.0736
   75SLPC  H13Y 6774   0.492   6.374   8.412  0.4239 -2.3639 -1.2736
   75SLPC  C314 6775   0.364   6.479   8.268 -0.6095  0.2426  0.0519
   75SLPC  H14X 6776   0.299   6.515   8.351  0.0836  2.5001 -0.3173
   75SLPC  H14Y 6777   0.330   6.378   8.235  1.1082 -0.5157  0.4803
   75SLPC  C315 6778   0.349   6.603   8.169 -0.6583 -0.1965  0.3105
   75SLPC  H15X 6779   0.244   6.624   8.141 -0.5145  1.4563  0.8894
   75SLPC  H15Y 6780   0.406   6.574   8.078 -4.3816 -0.2176 -2.2143
   75SLPC  C316 6781   0.401   6.733   8.229 -0.1684 -0.3963 -0.2369
   75SLPC  H16X 6782   0.509   6.719   8.254 -0.0029 -1.9013 -1.5525
   75SLPC  H16Y 6783   0.343   6.747   8.322 -0.2794 -1.3150 -0.1562
   75SLPC  C317 6784   0.392   6.847   8.136 -0.1740 -0.3259  0.6031
   75SLPC  H17X 6785   0.286   6.867   8.110 -0.1355 -0.4828  0.3342
   75SLPC  H17Y 6786   0.452   6.826   8.045  2.8318  1.4125  2.0180
   75SLPC  C318 6787   0.447   6.980   8.190 -0.4953 -0.8135 -0.3928
   75SLPC  H18X 6788   0.547   6.964   8.235 -0.9287 -0.1112  0.8475
   75SLPC  H18Y 6789   0.375   7.026   8.261  0.5469 -0.6180  0.5591
   75SLPC  H18Z 6790   0.464   7.038   8.097  0.8729 -1.9060 -0.8558
   76SLPC     N 6791   3.542   4.187   5.772  0.4123  0.0040  0.0212
   76SLPC   C13 6792   3.437   4.097   5.706 -0.1374  0.6730  0.7266
   76SLPC  H13A 6793   3.375   4.054   5.783  0.4978  0.1593  0.9637
   76SLPC  H13B 6794   3.366   4.152   5.645  0.8890  0.5317 -0.6469
   76SLPC  H13C 6795   3.481   4.014   5.654 -1.5003  0.0416  0.5586
   76SLPC   C14 6796   3.640   4.237   5.672 -0.0597 -0.1778  0.5619
   76SLPC  H14A 6797   3.694   4.151   5.636 -3.7750 -2.1757 -0.7899
   76SLPC  H14B 6798   3.586   4.296   5.599  1.7638  1.3474  0.3701
   76SLPC  H14C 6799   3.709   4.304   5.721 -1.8385  1.8822  0.4566
   76SLPC   C15 6800   3.617   4.109   5.877 -0.2791  0.2300  0.0455
   76SLPC  H15A 6801   3.697   4.163   5.926  0.1549 -0.9972  0.7121
   76SLPC  H15B 6802   3.540   4.075   5.944 -0.2879  3.9549  2.1895
   76SLPC  H15C 6803   3.667   4.020   5.842 -3.3554 -2.0204  1.0287
   76SLPC   C12 6804   3.475   4.302   5.845  0.1622 -1.0753 -0.1066
   76SLPC  H12A 6805   3.403   4.253   5.910  0.2866 -1.8625 -0.5581
   76SLPC  H12B 6806   3.411   4.348   5.771  0.4099  0.1394  0.4042
   76SLPC   C11 6807   3.550   4.420   5.926  0.4228  0.6032 -0.1150
   76SLPC  H11A 6808   3.465   4.489   5.949 -1.7175 -2.6618  2.8683
   76SLPC  H11B 6809   3.614   4.476   5.855 -1.0127  1.6319 -0.6398
   76SLPC     P 6810   3.596   4.410   6.177  0.3809  0.2591 -0.4388
   76SLPC   O13 6811   3.698   4.365   6.275  0.1847  0.4908  0.5909
   76SLPC   O14 6812   3.576   4.557   6.170 -0.5342 -0.5734 -0.1350
   76SLPC   O12 6813   3.624   4.363   6.032  0.1898 -0.0045  0.0696
   76SLPC   O11 6814   3.464   4.334   6.211  0.4383 -0.0286 -0.3946
   76SLPC    C1 6815   3.332   4.390   6.234  1.0165  0.4350 -0.4756
   76SLPC    HA 6816   3.321   4.498   6.211  1.5247  1.4711  3.3931
   76SLPC    HB 6817   3.265   4.334   6.166  2.8760  1.1514 -3.0554
   76SLPC    C2 6818   3.285   4.377   6.381  0.1846  0.0959 -0.3479
   76SLPC    HS 6819   3.179   4.406   6.398  0.4358  0.9949 -0.2691
   76SLPC   O21 6820   3.379   4.452   6.454 -0.3888  0.6031  0.1310
   76SLPC   C21 6821   3.337   4.513   6.558 -0.1153  0.1150 -0.2023
   76SLPC   O22 6822   3.219   4.525   6.592 -0.4709  0.8662 -0.2559
   76SLPC   C22 6823   3.450   4.578   6.642 -0.2070 -0.3152  0.6671
   76SLPC   H2R 6824   3.520   4.497   6.674 -0.0315 -1.3949 -2.1536
   76SLPC   H2S 6825   3.502   4.645   6.570 -0.9937 -0.8996 -0.4714
   76SLPC    C3 6826   3.296   4.228   6.432 -0.1315  0.6562  0.7191
   76SLPC    HX 6827   3.406   4.216   6.445  0.0296 -1.4750 -1.8317
   76SLPC    HY 6828   3.255   4.164   6.351  0.6237 -1.2335  1.7758
   76SLPC   O31 6829   3.215   4.217   6.548  0.9366  0.4316 -0.7862
   76SLPC   C31 6830   3.256   4.139   6.652 -0.0710  0.1457  0.3849
   76SLPC   O32 6831   3.365   4.083   6.650 -0.3673  0.1377  0.2713
   76SLPC   C32 6832   3.165   4.144   6.766  0.7638 -0.3907  0.9160
   76SLPC   H2X 6833   3.197   4.063   6.835  0.8225 -0.4439  0.8266
   76SLPC   H2Y 6834   3.056   4.129   6.746  0.9724  0.6347 -1.3880
   76SLPC   C23 6835   3.405   4.667   6.759 -0.0206 -0.3391 -0.2288
   76SLPC   H3R 6836   3.361   4.598   6.834 -1.0558 -1.8736 -2.1531
   76SLPC   H3S 6837   3.320   4.734   6.733  1.8180  1.3403 -2.3483
   76SLPC   C24 6838   3.512   4.759   6.807 -0.4114  0.0003 -0.2664
   76SLPC   H4R 6839   3.548   4.813   6.717 -1.2178 -0.2974 -0.7802
   76SLPC   H4S 6840   3.589   4.690   6.848 -0.3859  0.2858  0.1672
   76SLPC   C25 6841   3.470   4.870   6.904 -0.2027  0.4423  0.3149
   76SLPC   H5R 6842   3.400   4.944   6.858  1.0944  1.3838 -0.2311
   76SLPC   H5S 6843   3.559   4.933   6.926 -0.6267  1.5518 -0.9525
   76SLPC   C26 6844   3.410   4.823   7.045  0.5224  0.1542 -0.0437
   76SLPC   H6R 6845   3.466   4.731   7.071 -0.1391 -0.1438  0.3436
   76SLPC   H6S 6846   3.304   4.796   7.028  0.6611  1.5836 -4.5136
   76SLPC   C27 6847   3.429   4.934   7.151 -0.3466  0.6033  0.3092
   76SLPC   H7R 6848   3.362   5.016   7.118  0.7408  1.4673  0.1872
   76SLPC   H7S 6849   3.532   4.972   7.137  0.0586 -1.5536 -4.7506
   76SLPC   C28 6850   3.393   4.885   7.295  0.3721  0.9357 -0.5330
   76SLPC   H8R 6851   3.379   4.977   7.356  0.3978 -1.4687  3.4435
   76SLPC   H8S 6852   3.292   4.840   7.285  0.4973  0.3356  0.6734
   76SLPC   C29 6853   3.504   4.795   7.354 -0.6796  0.3716  0.2249
   76SLPC   H9R 6854   3.514   4.709   7.286 -1.6362  1.0951 -0.8639
   76SLPC  C210 6855   3.587   4.810   7.457  0.2766 -0.3159 -0.2413
   76SLPC  H10R 6856   3.649   4.723   7.482 -1.8533 -2.1182 -0.8017
   76SLPC  C211 6857   3.599   4.931   7.547  0.0052  0.4023  0.3356
   76SLPC  H11R 6858   3.496   4.965   7.569 -0.1877 -0.1842  0.3550
   76SLPC  H11S 6859   3.642   5.009   7.481  2.7026 -0.5044  0.9018
   76SLPC  C212 6860   3.676   4.916   7.676 -0.7127 -0.3923  0.1398
   76SLPC  H12R 6861   3.768   4.976   7.686 -1.2590  0.5258 -0.2669
   76SLPC  C213 6862   3.644   4.850   7.795 -0.3753  0.6214  0.9727
   76SLPC  H13R 6863   3.714   4.854   7.880  0.3030 -0.4088  0.4826
   76SLPC  C214 6864   3.513   4.771   7.808  0.1840  0.1578 -0.4633
   76SLPC  H14R 6865   3.466   4.761   7.707  0.7498  2.3570 -0.9912
   76SLPC  H14S 6866   3.439   4.824   7.872  0.4153 -0.5275  0.3902
   76SLPC  C215 6867   3.528   4.630   7.872  0.3088  0.3910  0.4117
   76SLPC  H15R 6868   3.618   4.580   7.829  0.5626 -0.3448  1.7356
   76SLPC  H15S 6869   3.432   4.576   7.855 -1.2610  2.1899  3.0242
   76SLPC  C216 6870   3.544   4.648   8.024  0.4705 -0.4158 -0.0120
   76SLPC  H16R 6871   3.459   4.707   8.062  1.1329  0.9381 -0.5797
   76SLPC  H16S 6872   3.637   4.703   8.050  0.0924 -0.2065  0.9025
   76SLPC  C217 6873   3.549   4.523   8.111  0.8355 -0.1188  0.4271
   76SLPC  H17R 6874   3.607   4.438   8.067  2.5388  0.3034  1.7330
   76SLPC  H17S 6875   3.448   4.482   8.130  1.1533  0.2324  3.2202
   76SLPC  C218 6876   3.607   4.534   8.255 -0.5310  0.1377  0.3380
   76SLPC  H18R 6877   3.602   4.440   8.313 -1.4283 -0.2809 -0.3958
   76SLPC  H18S 6878   3.578   4.627   8.309  1.4293  0.4895  0.8858
   76SLPC  H18T 6879   3.718   4.539   8.245 -0.2706  0.1929  2.6434
   76SLPC   C33 6880   3.188   4.275   6.831 -0.3472  0.1674 -0.0615
   76SLPC   H3X 6881   3.147   4.363   6.779 -1.0293  1.2210  2.1501
   76SLPC   H3Y 6882   3.296   4.293   6.851 -0.6654  1.0962  0.8813
   76SLPC   C34 6883   3.128   4.284   6.972  0.3968  0.1765  0.2353
   76SLPC   H4X 6884   3.176   4.202   7.029  1.1223 -0.6567 -1.5057
   76SLPC   H4Y 6885   3.022   4.254   6.970  0.5785 -0.4431 -1.0990
   76SLPC   C35 6886   3.160   4.422   7.042  0.1560  0.3914  0.2054
   76SLPC   H5X 6887   3.103   4.505   6.995 -0.0539  0.2898  0.2765
   76SLPC   H5Y 6888   3.266   4.449   7.027 -0.7549  3.3740 -1.8224
   76SLPC   C36 6889   3.121   4.429   7.193  0.1133 -0.1912 -0.6301
   76SLPC   H6X 6890   3.170   4.340   7.236 -1.2395 -1.0606 -0.8310
   76SLPC   H6Y 6891   3.012   4.416   7.208  0.6565 -3.1443  1.8509
   76SLPC   C37 6892   3.164   4.556   7.265  0.7653  0.1581  0.3389
   76SLPC   H7X 6893   3.094   4.639   7.240 -0.0229 -0.0571  1.7334
   76SLPC   H7Y 6894   3.269   4.587   7.245  1.0027 -0.4401  0.6372
   76SLPC   C38 6895   3.146   4.534   7.415 -0.2637 -0.2578 -0.3739
   76SLPC   H8X 6896   3.231   4.476   7.456 -0.1972 -1.3478 -1.9522
   76SLPC   H8Y 6897   3.050   4.480   7.426  0.7323 -1.6346  2.2715
   76SLPC   C39 6898   3.145   4.667   7.485 -0.1823 -0.5809 -0.8062
   76SLPC   H9X 6899   3.069   4.740   7.449  0.2873  0.8468  0.9365
   76SLPC   H9Y 6900   3.243   4.719   7.478  0.0389 -0.5067  1.7932
   76SLPC  C310 6901   3.129   4.641   7.638  0.0423 -0.7525 -0.2630
   76SLPC  H10X 6902   3.210   4.574   7.672  1.4433  0.5703 -0.9012
   76SLPC  H10Y 6903   3.035   4.583   7.651  0.0240 -0.7208 -0.2510
   76SLPC  C311 6904   3.117   4.774   7.718  0.1088  0.1361 -0.0193
   76SLPC  H11X 6905   3.048   4.842   7.663 -0.2686 -0.8229 -0.7793
   76SLPC  H11Y 6906   3.221   4.809   7.730  0.3828 -1.1117  1.5951
   76SLPC  C312 6907   3.056   4.754   7.859  0.8374 -0.6262 -0.0727
   76SLPC  H12X 6908   2.948   4.728   7.860 -0.1807  3.0632  0.4373
   76SLPC  H12Y 6909   3.053   4.849   7.917 -2.5084 -0.1149 -0.8856
   76SLPC  C313 6910   3.120   4.647   7.951 -0.1670 -0.4854 -0.0655
   76SLPC  H13X 6911   3.228   4.670   7.963 -0.8046  2.5649  0.5838
   76SLPC  H13Y 6912   3.109   4.550   7.898 -0.0110 -1.4462  1.5660
   76SLPC  C314 6913   3.047   4.638   8.090  0.1337 -0.3512 -0.3455
   76SLPC  H14X 6914   2.941   4.609   8.074 -0.1862  0.1516  0.7994
   76SLPC  H14Y 6915   3.053   4.744   8.121 -1.9637 -0.1970 -0.3022
   76SLPC  C315 6916   3.098   4.533   8.182  0.0061 -0.1103 -0.8269
   76SLPC  H15X 6917   3.056   4.537   8.285  0.4308 -2.2075 -0.5287
   76SLPC  H15Y 6918   3.206   4.543   8.204 -0.3778 -0.7551  1.6796
   76SLPC  C316 6919   3.071   4.389   8.130 -0.1877 -0.4609 -0.1220
   76SLPC  H16X 6920   3.124   4.375   8.034  0.2197  0.0190  0.0252
   76SLPC  H16Y 6921   2.963   4.386   8.104  0.0411  1.5875 -1.5563
   76SLPC  C317 6922   3.114   4.280   8.227  0.0685 -0.0783 -0.5989
   76SLPC  H17X 6923   3.058   4.188   8.198  0.9622 -0.4050 -1.3400
   76SLPC  H17Y 6924   3.075   4.309   8.327  2.2957 -0.0241  0.3068
   76SLPC  C318 6925   3.265   4.254   8.247 -0.7311 -0.1528 -0.1753
   76SLPC  H18X 6926   3.284   4.181   8.329 -0.7085 -1.4533 -1.3139
   76SLPC  H18Y 6927   3.320   4.346   8.277  0.4056 -0.9103  0.1170
   76SLPC  H18Z 6928   3.316   4.216   8.156  0.9272  0.6514  0.3858
   77SLPC     N 6929   5.465   4.077   6.020 -0.4515 -0.4303 -0.2661
   77SLPC   C13 6930   5.430   4.042   6.159 -0.5608  1.0549 -0.5325
   77SLPC  H13A 6931   5.505   3.975   6.200 -0.9474  1.3913  0.7747
   77SLPC  H13B 6932   5.441   4.125   6.228  1.9033  1.0730 -0.8608
   77SLPC  H13C 6933   5.335   3.991   6.156  0.5179 -0.9975 -2.3927
   77SLPC   C14 6934   5.366   4.180   5.979 -0.0246  0.4492 -0.7064
   77SLPC  H14A 6935   5.408   4.271   6.019 -0.7989 -0.0180  1.2933
   77SLPC  H14B 6936   5.361   4.190   5.871  0.9229  0.4235 -0.7597
   77SLPC  H14C 6937   5.267   4.170   6.021  0.3641  0.8892  0.3614
   77SLPC   C15 6938   5.444   3.972   5.919  0.5572  0.0811 -0.4414
   77SLPC  H15A 6939   5.522   3.897   5.920  1.0697  0.5601  1.7252
   77SLPC  H15B 6940   5.354   3.916   5.938  0.5630  0.1138 -0.3138
   77SLPC  H15C 6941   5.430   4.011   5.820 -0.9051  2.4465  0.6077
   77SLPC   C12 6942   5.605   4.128   6.007  0.2629  0.1048 -0.2431
   77SLPC  H12A 6943   5.626   4.151   5.903  0.3352 -1.2528 -0.5489
   77SLPC  H12B 6944   5.669   4.043   6.024  0.7892  0.6179  0.4156
   77SLPC   C11 6945   5.652   4.237   6.102 -0.8900 -0.8616 -0.2618
   77SLPC  H11A 6946   5.749   4.289   6.083 -1.1527 -0.0129  0.6401
   77SLPC  H11B 6947   5.674   4.189   6.200 -0.5356  1.0696  0.6534
   77SLPC     P 6948   5.511   4.390   6.273 -0.2155 -0.3361 -0.2413
   77SLPC   O13 6949   5.597   4.510   6.307  0.2973 -0.1775 -0.8938
   77SLPC   O14 6950   5.364   4.420   6.268 -0.0338 -0.3501  0.2715
   77SLPC   O12 6951   5.550   4.341   6.132  0.1256 -0.4810  0.1398
   77SLPC   O11 6952   5.550   4.273   6.376 -0.0161 -0.3770 -0.3103
   77SLPC    C1 6953   5.449   4.222   6.467 -0.0036 -0.4986 -0.4241
   77SLPC    HA 6954   5.347   4.218   6.422  0.3376 -1.5279 -1.1677
   77SLPC    HB 6955   5.471   4.115   6.486 -0.7342 -0.1478  2.9430
   77SLPC    C2 6956   5.441   4.302   6.605 -0.3173  0.5776  0.9521
   77SLPC    HS 6957   5.398   4.401   6.580 -0.4339 -0.2695 -2.7324
   77SLPC   O21 6958   5.570   4.301   6.655 -0.5447  0.1131 -0.0299
   77SLPC   C21 6959   5.601   4.400   6.746  0.5789  0.2518  0.4490
   77SLPC   O22 6960   5.531   4.498   6.763  0.0944 -0.0082 -1.0690
   77SLPC   C22 6961   5.736   4.368   6.811  0.0219 -1.2022  0.2493
   77SLPC   H2R 6962   5.731   4.296   6.895  1.4628 -2.3564 -0.6098
   77SLPC   H2S 6963   5.785   4.302   6.737  0.5492 -3.6373  2.5926
   77SLPC    C3 6964   5.339   4.237   6.707 -0.8415  0.8392 -0.6246
   77SLPC    HX 6965   5.378   4.133   6.707  1.1244  1.5122 -2.0015
   77SLPC    HY 6966   5.240   4.245   6.660 -2.5337  0.0662  2.5004
   77SLPC   O31 6967   5.344   4.291   6.841  0.4553  0.1334  0.2833
   77SLPC   C31 6968   5.239   4.372   6.872 -0.4816 -0.2495 -0.4294
   77SLPC   O32 6969   5.162   4.422   6.790 -0.5735 -0.0060 -0.7123
   77SLPC   C32 6970   5.240   4.403   7.021  0.0785  0.7424 -0.5569
   77SLPC   H2X 6971   5.208   4.312   7.076  1.5159 -0.4680 -1.6057
   77SLPC   H2Y 6972   5.159   4.477   7.032 -1.7777 -1.1572 -0.7990
   77SLPC   C23 6973   5.822   4.486   6.851  0.1930  0.0789  0.1122
   77SLPC   H3R 6974   5.792   4.584   6.808 -0.8477 -0.0639  0.4695
   77SLPC   H3S 6975   5.926   4.470   6.815  0.1225  0.2362 -0.1643
   77SLPC   C24 6976   5.824   4.510   7.004  1.1102 -0.3499  0.4147
   77SLPC   H4R 6977   5.721   4.502   7.043  1.8517  3.6407  4.1101
   77SLPC   H4S 6978   5.863   4.614   7.016  1.5313 -0.3728 -0.6722
   77SLPC   C25 6979   5.910   4.411   7.077 -0.3623 -0.6530  0.0478
   77SLPC   H5R 6980   6.018   4.435   7.072 -0.2746 -0.8330  0.9685
   77SLPC   H5S 6981   5.911   4.311   7.029  3.0873 -0.3715 -0.6853
   77SLPC   C26 6982   5.879   4.392   7.226 -0.2787 -0.1426 -0.5074
   77SLPC   H6R 6983   5.773   4.362   7.239 -0.3918  0.5349  0.2002
   77SLPC   H6S 6984   5.882   4.491   7.276 -0.8446 -0.4626  0.1640
   77SLPC   C27 6985   5.968   4.283   7.287  0.0037  0.7310  0.6550
   77SLPC   H7R 6986   6.075   4.312   7.275  0.2947 -0.5809 -0.1706
   77SLPC   H7S 6987   5.970   4.192   7.224  0.5159  1.8370 -0.9887
   77SLPC   C28 6988   5.919   4.254   7.424  0.1222  0.3918  0.8035
   77SLPC   H8R 6989   5.818   4.210   7.406  0.8847 -0.3455 -2.0528
   77SLPC   H8S 6990   5.899   4.340   7.492 -0.5144 -0.2335  1.4300
   77SLPC   C29 6991   6.016   4.154   7.485  0.3390  0.1871  0.8593
   77SLPC   H9R 6992   6.043   4.077   7.411  0.1278  1.8085 -1.0040
   77SLPC  C210 6993   6.054   4.145   7.616  0.0034  0.8608 -0.0558
   77SLPC  H10R 6994   6.110   4.055   7.644  0.8571  1.7367  1.1308
   77SLPC  C211 6995   6.012   4.230   7.729 -0.5703  0.3784  0.0507
   77SLPC  H11R 6996   5.902   4.223   7.742 -0.7911  0.5471 -1.5882
   77SLPC  H11S 6997   6.025   4.337   7.702 -1.2945  0.6780  0.8447
   77SLPC  C212 6998   6.085   4.198   7.853 -0.2016 -0.1098 -0.3589
   77SLPC  H12R 6999   6.190   4.176   7.834 -0.1982 -1.0761  0.6801
   77SLPC  C213 7000   6.035   4.209   7.982  0.5413  0.0570  0.7397
   77SLPC  H13R 7001   6.104   4.197   8.067  0.5912  1.7493  0.9730
   77SLPC  C214 7002   5.899   4.254   8.024  0.2485 -0.8924 -1.0123
   77SLPC  H14R 7003   5.830   4.266   7.937  0.1759 -1.2905 -1.0158
   77SLPC  H14S 7004   5.906   4.346   8.085 -0.7199 -1.9434  0.7704
   77SLPC  C215 7005   5.842   4.140   8.104 -0.2351  0.7504  0.0491
   77SLPC  H15R 7006   5.854   4.040   8.057  2.2601  0.8140  0.3877
   77SLPC  H15S 7007   5.733   4.159   8.100 -0.1168  1.3012 -0.9656
   77SLPC  C216 7008   5.895   4.131   8.247 -0.3511 -0.0897  0.3057
   77SLPC  H16R 7009   5.902   4.232   8.292 -1.6369  0.2481 -0.2088
   77SLPC  H16S 7010   5.995   4.085   8.233  0.3571  1.1229  1.2091
   77SLPC  C217 7011   5.810   4.037   8.343  0.6487  0.0376  0.3065
   77SLPC  H17R 7012   5.788   3.941   8.292 -2.6062  1.0579 -0.5122
   77SLPC  H17S 7013   5.715   4.094   8.350  0.7361  0.0695  1.2969
   77SLPC  C218 7014   5.878   4.007   8.477 -0.1435 -0.1218  0.1994
   77SLPC  H18R 7015   5.876   4.100   8.539  0.7274  0.3060 -0.4049
   77SLPC  H18S 7016   5.984   3.978   8.465  0.4330  0.2137  3.4631
   77SLPC  H18T 7017   5.832   3.922   8.532  1.1333 -1.6832 -1.0734
   77SLPC   C33 7018   5.372   4.472   7.055 -0.1758 -0.2141  0.2603
   77SLPC   H3X 7019   5.360   4.578   7.024 -0.0796 -0.4542 -0.6489
   77SLPC   H3Y 7020   5.455   4.434   6.992  0.8097  2.2514 -0.0319
   77SLPC   C34 7021   5.415   4.462   7.198  0.3176  0.0507 -0.1970
   77SLPC   H4X 7022   5.523   4.484   7.211  0.0274  1.2078  0.3620
   77SLPC   H4Y 7023   5.395   4.361   7.239  1.7573 -1.4775 -3.0038
   77SLPC   C35 7024   5.344   4.564   7.289  0.1949  0.2416  0.2600
   77SLPC   H5X 7025   5.234   4.558   7.277  0.3801 -0.5674 -1.2222
   77SLPC   H5Y 7026   5.385   4.666   7.269  1.6151 -0.2016  0.7523
   77SLPC   C36 7027   5.374   4.539   7.434 -0.7802  0.6050  0.3670
   77SLPC   H6X 7028   5.483   4.539   7.459 -0.0175  0.5589 -2.5053
   77SLPC   H6Y 7029   5.332   4.442   7.467  0.7918  0.4612  2.1066
   77SLPC   C37 7030   5.317   4.656   7.521 -0.0909  0.1845 -0.2311
   77SLPC   H7X 7031   5.214   4.693   7.501  0.3658  2.9848  1.9104
   77SLPC   H7Y 7032   5.378   4.749   7.515  1.8345 -0.8089  2.1766
   77SLPC   C38 7033   5.313   4.613   7.671  0.7720  0.4877  0.1301
   77SLPC   H8X 7034   5.256   4.517   7.671  1.3318  0.1459  0.3947
   77SLPC   H8Y 7035   5.248   4.688   7.720 -0.1140  0.2285 -0.6257
   77SLPC   C39 7036   5.447   4.600   7.749  0.3555  0.6329 -0.2288
   77SLPC   H9X 7037   5.495   4.701   7.751  0.6315  0.5010  1.0421
   77SLPC   H9Y 7038   5.517   4.524   7.708  0.6623  0.4770  0.5443
   77SLPC  C310 7039   5.429   4.569   7.897  0.3256 -0.5643 -0.2149
   77SLPC  H10X 7040   5.526   4.534   7.939  0.7449 -0.3268 -0.9539
   77SLPC  H10Y 7041   5.364   4.480   7.907 -0.7107  0.0347 -1.3472
   77SLPC  C311 7042   5.384   4.687   7.977 -0.3359 -0.6653 -0.0946
   77SLPC  H11X 7043   5.294   4.734   7.932 -0.9946 -1.9264 -0.1554
   77SLPC  H11Y 7044   5.463   4.765   7.969  1.0237 -1.9223  0.5998
   77SLPC  C312 7045   5.363   4.659   8.127  0.0382  0.5090  0.4802
   77SLPC  H12X 7046   5.288   4.576   8.119 -0.0624  0.6044  0.4213
   77SLPC  H12Y 7047   5.314   4.740   8.185  0.5918  0.0345  1.6395
   77SLPC  C313 7048   5.493   4.628   8.193  0.2929 -0.4458  0.8899
   77SLPC  H13X 7049   5.553   4.715   8.158 -1.3124  0.3992  0.0859
   77SLPC  H13Y 7050   5.530   4.529   8.161  0.5470 -0.5566  1.5175
   77SLPC  C314 7051   5.483   4.631   8.344 -0.4318  0.5415 -0.1831
   77SLPC  H14X 7052   5.407   4.554   8.371 -0.5262  1.2069  1.5972
   77SLPC  H14Y 7053   5.445   4.733   8.364  1.1306  0.8970  1.2154
   77SLPC  C315 7054   5.620   4.612   8.413 -0.3520 -0.0190 -0.0847
   77SLPC  H15X 7055   5.615   4.663   8.511  1.4725 -0.7605  0.4218
   77SLPC  H15Y 7056   5.683   4.666   8.339 -2.7228 -0.1795 -2.3707
   77SLPC  C316 7057   5.668   4.469   8.434  0.1997 -0.6319  0.8051
   77SLPC  H16X 7058   5.774   4.479   8.468  0.1760 -3.4563  1.9929
   77SLPC  H16Y 7059   5.669   4.415   8.337  2.0682  1.0895 -0.2360
   77SLPC  C317 7060   5.598   4.389   8.543 -0.1040  0.4023 -0.1123
   77SLPC  H17X 7061   5.498   4.351   8.511 -0.0791  0.5091 -0.3140
   77SLPC  H17Y 7062   5.568   4.448   8.633 -4.2353 -0.9042 -0.4224
   77SLPC  C318 7063   5.677   4.276   8.603 -0.3668  0.3890 -0.8525
   77SLPC  H18X 7064   5.624   4.221   8.683 -0.7042 -1.5883 -2.3294
   77SLPC  H18Y 7065   5.778   4.301   8.641 -1.3623  0.1683  2.1490
   77SLPC  H18Z 7066   5.689   4.205   8.517 -1.8639 -0.5884 -0.2786
   78SLPC     N 7067   0.752   5.356   6.261  0.1268  0.3437  0.2232
   78SLPC   C13 7068   0.847   5.456   6.318 -0.2710  0.1918  0.6685
   78SLPC  H13A 7069   0.938   5.402   6.340  1.1833  1.8225 -0.9933
   78SLPC  H13B 7070   0.875   5.528   6.242  0.6026 -1.4476 -0.6254
   78SLPC  H13C 7071   0.802   5.491   6.409 -1.5298  0.0650  0.1190
   78SLPC   C14 7072   0.795   5.309   6.126  0.0775 -0.1103  0.3676
   78SLPC  H14A 7073   0.862   5.378   6.079 -1.6075  1.5342  0.2435
   78SLPC  H14B 7074   0.851   5.217   6.139 -0.7963 -0.4521  1.9673
   78SLPC  H14C 7075   0.710   5.275   6.068  1.6403  0.2750 -2.2757
   78SLPC   C15 7076   0.621   5.427   6.239  0.5827  0.2239 -0.6937
   78SLPC  H15A 7077   0.577   5.457   6.333  2.5336 -0.7170  0.5855
   78SLPC  H15B 7078   0.636   5.512   6.173 -0.5985  0.8303 -0.2164
   78SLPC  H15C 7079   0.547   5.366   6.190 -0.1234  0.7822 -0.3465
   78SLPC   C12 7080   0.740   5.234   6.352  0.4257 -0.1107 -0.4914
   78SLPC  H12A 7081   0.646   5.182   6.337  0.6566 -0.3129 -1.2257
   78SLPC  H12B 7082   0.739   5.272   6.454 -0.0608  2.2454 -1.3025
   78SLPC   C11 7083   0.843   5.124   6.343  0.2171 -0.1400 -0.1029
   78SLPC  H11A 7084   0.839   5.067   6.438  1.1950  2.7817  1.8219
   78SLPC  H11B 7085   0.937   5.183   6.341  0.6268 -0.7645  0.3654
   78SLPC     P 7086   0.734   4.929   6.214 -0.4309  0.0468  0.4500
   78SLPC   O13 7087   0.629   4.962   6.119 -0.0284  0.0777  0.0047
   78SLPC   O14 7088   0.806   4.801   6.187 -0.2073 -0.3084  0.3308
   78SLPC   O12 7089   0.831   5.051   6.223 -0.2444  0.0834 -0.5379
   78SLPC   O11 7090   0.665   4.923   6.363  0.2853  0.3608  0.1424
   78SLPC    C1 7091   0.701   4.817   6.456 -0.5835 -0.4503  0.4141
   78SLPC    HA 7092   0.680   4.719   6.407  1.9600  0.7002 -3.4234
   78SLPC    HB 7093   0.807   4.812   6.489 -1.0888 -1.5282  2.0362
   78SLPC    C2 7094   0.619   4.821   6.592 -0.0877 -0.8649 -0.0721
   78SLPC    HS 7095   0.513   4.834   6.560 -0.3871 -1.3833  0.6775
   78SLPC   O21 7096   0.668   4.932   6.669 -0.4602 -0.0658  0.1144
   78SLPC   C21 7097   0.586   4.996   6.749  0.1713  0.9448  0.1015
   78SLPC   O22 7098   0.465   4.979   6.749  0.0467  0.3828  0.8198
   78SLPC   C22 7099   0.663   5.093   6.835  0.0589  0.1219 -0.0687
   78SLPC   H2R 7100   0.772   5.091   6.814  0.5209 -0.6733  2.1536
   78SLPC   H2S 7101   0.623   5.192   6.805  1.5123  1.2040  1.3614
   78SLPC    C3 7102   0.641   4.695   6.678 -0.2259  0.1780  0.3647
   78SLPC    HX 7103   0.751   4.693   6.691 -0.1073 -0.4227 -0.6499
   78SLPC    HY 7104   0.605   4.608   6.619 -0.6778  1.3456 -1.1422
   78SLPC   O31 7105   0.588   4.705   6.812  0.1983 -0.0434 -0.6517
   78SLPC   C31 7106   0.457   4.686   6.819  0.3589  0.0872  0.9163
   78SLPC   O32 7107   0.390   4.642   6.726 -0.4048  0.2765  0.7157
   78SLPC   C32 7108   0.395   4.713   6.952  0.3661 -0.0228  0.1699
   78SLPC   H2X 7109   0.284   4.712   6.943  0.1630  3.4255  0.8397
   78SLPC   H2Y 7110   0.425   4.810   6.996 -0.1786 -0.4540  1.5377
   78SLPC   C23 7111   0.632   5.083   6.984 -0.3428  0.1065  0.4503
   78SLPC   H3R 7112   0.525   5.085   7.014 -0.9107 -0.3496 -1.3841
   78SLPC   H3S 7113   0.679   5.172   7.030 -1.3499  1.4382 -0.9733
   78SLPC   C24 7114   0.681   4.952   7.040  0.4884 -0.0265  0.4586
   78SLPC   H4R 7115   0.770   4.922   6.981 -0.5948 -0.3995 -1.0359
   78SLPC   H4S 7116   0.609   4.867   7.034  2.3322 -1.8675  2.6031
   78SLPC   C25 7117   0.722   4.976   7.191  0.4911 -0.4352 -0.1627
   78SLPC   H5R 7118   0.793   5.061   7.191  2.0764 -1.7040 -0.2790
   78SLPC   H5S 7119   0.791   4.889   7.206  1.9693  0.7447  0.1290
   78SLPC   C26 7120   0.604   4.975   7.288 -1.2339 -0.3961 -0.2523
   78SLPC   H6R 7121   0.521   4.909   7.255 -0.2845 -1.4399 -0.6200
   78SLPC   H6S 7122   0.560   5.077   7.293  0.2748  0.3283 -1.0131
   78SLPC   C27 7123   0.638   4.920   7.434 -0.3652  0.1070 -0.4281
   78SLPC   H7R 7124   0.663   4.813   7.417  2.2678  0.8135 -1.3537
   78SLPC   H7S 7125   0.550   4.917   7.502  0.7078 -1.3624  0.9719
   78SLPC   C28 7126   0.754   4.996   7.511  0.5689  0.6404  0.4477
   78SLPC   H8R 7127   0.828   5.028   7.434 -2.7374  0.1643 -3.2064
   78SLPC   H8S 7128   0.790   4.910   7.572 -3.4479 -2.2239 -0.8014
   78SLPC   C29 7129   0.704   5.124   7.574 -0.3358 -0.4688  0.5713
   78SLPC   H9R 7130   0.661   5.204   7.511 -0.2879 -1.0680 -0.2335
   78SLPC  C210 7131   0.702   5.155   7.705  0.1309 -0.3197  0.3426
   78SLPC  H10R 7132   0.655   5.247   7.744  1.5294  0.9901 -0.9236
   78SLPC  C211 7133   0.773   5.067   7.806 -0.0097 -0.4710  0.0613
   78SLPC  H11R 7134   0.811   4.971   7.763  1.1214  1.0364 -2.5820
   78SLPC  H11S 7135   0.700   5.023   7.877  0.4822 -2.7845 -0.7642
   78SLPC  C212 7136   0.885   5.138   7.871 -0.0275 -0.0986  1.0715
   78SLPC  H12R 7137   0.977   5.141   7.810 -0.6427  3.0886  0.1167
   78SLPC  C213 7138   0.888   5.193   7.991  1.1938 -0.5570 -0.2570
   78SLPC  H13R 7139   0.985   5.228   8.026  1.0844  0.1141 -0.6049
   78SLPC  C214 7140   0.771   5.179   8.092 -0.7132  0.6253  0.2797
   78SLPC  H14R 7141   0.753   5.072   8.115  0.9308  0.2406 -0.1319
   78SLPC  H14S 7142   0.673   5.224   8.063  0.1979  0.9652 -2.4707
   78SLPC  C215 7143   0.833   5.216   8.227  0.7288  0.3617 -0.3981
   78SLPC  H15R 7144   0.865   5.322   8.221  0.7215  0.2936 -2.2305
   78SLPC  H15S 7145   0.920   5.148   8.240  0.2251 -0.5035 -1.4589
   78SLPC  C216 7146   0.737   5.193   8.344 -0.3212 -0.2894 -0.3388
   78SLPC  H16R 7147   0.747   5.089   8.381 -0.3657 -0.6577 -1.3256
   78SLPC  H16S 7148   0.633   5.210   8.309 -1.0914  1.7885  2.5674
   78SLPC  C217 7149   0.752   5.293   8.464 -0.1399  0.2025 -0.3638
   78SLPC  H17R 7150   0.675   5.269   8.541  1.0830  0.6396  1.0617
   78SLPC  H17S 7151   0.725   5.396   8.432  1.0419  0.6133 -0.0875
   78SLPC  C218 7152   0.891   5.296   8.526 -0.7318 -0.0075 -0.9790
   78SLPC  H18R 7153   0.967   5.230   8.479  0.8831  1.5314 -0.6270
   78SLPC  H18S 7154   0.887   5.253   8.628  0.2343  1.2488 -0.3822
   78SLPC  H18T 7155   0.931   5.400   8.534  1.4095 -0.9060  1.1635
   78SLPC   C33 7156   0.440   4.596   7.043  0.4026 -0.4842  0.2412
   78SLPC   H3X 7157   0.550   4.604   7.053  0.2646  1.8679  0.2592
   78SLPC   H3Y 7158   0.400   4.500   7.003 -1.8818  0.4763  0.0662
   78SLPC   C34 7159   0.380   4.599   7.185 -0.2928  0.1940 -0.6492
   78SLPC   H4X 7160   0.269   4.585   7.185 -0.6387  2.2944  1.4414
   78SLPC   H4Y 7161   0.396   4.691   7.245 -1.3258 -0.6020  0.9426
   78SLPC   C35 7162   0.449   4.493   7.272 -0.6998  0.3885 -0.0916
   78SLPC   H5X 7163   0.559   4.505   7.263 -0.5085 -2.5118 -3.8336
   78SLPC   H5Y 7164   0.421   4.395   7.228 -0.9870 -0.5483  2.0535
   78SLPC   C36 7165   0.406   4.493   7.420 -0.5808 -0.2488  0.2261
   78SLPC   H6X 7166   0.422   4.393   7.467 -2.0852 -1.1142 -1.0061
   78SLPC   H6Y 7167   0.295   4.499   7.417 -0.7305 -2.5456 -1.2933
   78SLPC   C37 7168   0.475   4.597   7.514  0.2914 -0.1351  0.5329
   78SLPC   H7X 7169   0.456   4.694   7.462 -0.5969 -1.2896 -1.4362
   78SLPC   H7Y 7170   0.585   4.582   7.519  0.3564  0.0744 -0.1391
   78SLPC   C38 7171   0.413   4.618   7.648 -0.7181 -0.0288 -0.6935
   78SLPC   H8X 7172   0.444   4.543   7.724 -0.8621 -0.3440 -0.9423
   78SLPC   H8Y 7173   0.303   4.608   7.659 -0.5509  0.5858  2.7974
   78SLPC   C39 7174   0.454   4.760   7.698  0.6734 -0.8633 -0.2832
   78SLPC   H9X 7175   0.400   4.829   7.630  1.4000 -1.4175 -1.4565
   78SLPC   H9Y 7176   0.562   4.786   7.708 -0.0847  1.8304  2.5501
   78SLPC  C310 7177   0.396   4.791   7.837 -0.3556  0.2885  0.0165
   78SLPC  H10X 7178   0.287   4.770   7.836  0.2655 -3.8101 -1.2646
   78SLPC  H10Y 7179   0.413   4.892   7.878 -0.8140  0.0478  0.8198
   78SLPC  C311 7180   0.464   4.698   7.936 -0.7416 -0.1420  0.1217
   78SLPC  H11X 7181   0.575   4.702   7.929 -0.8216  4.1879 -1.4429
   78SLPC  H11Y 7182   0.427   4.593   7.931  0.3299 -0.6845  2.1590
   78SLPC  C312 7183   0.449   4.738   8.086 -0.3724 -0.6300  0.5386
   78SLPC  H12X 7184   0.507   4.831   8.106 -0.4053 -0.4850 -0.0358
   78SLPC  H12Y 7185   0.494   4.665   8.157  2.7333 -0.5983 -1.2094
   78SLPC  C313 7186   0.303   4.766   8.127 -0.3759  0.0314 -0.1583
   78SLPC  H13X 7187   0.267   4.831   8.045 -0.3138 -2.3073 -2.1442
   78SLPC  H13Y 7188   0.315   4.832   8.216 -0.0090 -0.7657  0.3921
   78SLPC  C314 7189   0.215   4.641   8.144 -0.4762 -0.3241 -0.6130
   78SLPC  H14X 7190   0.253   4.551   8.092  0.0345  0.7855 -2.2680
   78SLPC  H14Y 7191   0.119   4.663   8.093 -0.0034  0.9530 -0.9926
   78SLPC  C315 7192   0.197   4.603   8.291 -0.1983  0.5398  0.7855
   78SLPC  H15X 7193   0.291   4.625   8.346 -1.2182  0.6903  2.5289
   78SLPC  H15Y 7194   0.180   4.493   8.286  0.3213  0.4133  1.6004
   78SLPC  C316 7195   0.065   4.662   8.346 -0.4797 -0.2453 -0.8127
   78SLPC  H16X 7196  -0.012   4.649   8.267 -0.8696  1.6991 -0.7862
   78SLPC  H16Y 7197   0.068   4.769   8.372  0.1765 -0.8706  1.9692
   78SLPC  C317 7198   0.029   4.598   8.481  0.2268  0.1358  0.1850
   78SLPC  H17X 7199   0.064   4.493   8.473  1.3773  0.6213 -1.8814
   78SLPC  H17Y 7200  -0.081   4.598   8.494 -0.1252 -1.1124 -2.1868
   78SLPC  C318 7201   0.090   4.662   8.601  0.4720 -1.0067  0.9668
   78SLPC  H18X 7202   0.083   4.597   8.691  1.4594 -1.7405  0.5331
   78SLPC  H18Y 7203   0.049   4.758   8.639  0.5538  1.0075 -3.4199
   78SLPC  H18Z 7204   0.199   4.681   8.589  0.1337  0.0635 -0.7631
   79SLPC     N 7205   4.087   0.932   6.324 -0.0846  1.0173  0.3657
   79SLPC   C13 7206   4.218   0.995   6.283  0.2284 -0.8050  0.2604
   79SLPC  H13A 7207   4.300   0.926   6.291 -0.7166 -2.1108 -0.8355
   79SLPC  H13B 7208   4.220   1.033   6.182 -0.2597  0.7601  0.8112
   79SLPC  H13C 7209   4.236   1.087   6.336 -3.2071  1.3348 -1.8672
   79SLPC   C14 7210   4.045   0.841   6.211 -0.1752 -0.3653 -0.2294
   79SLPC  H14A 7211   4.022   0.901   6.124  2.4003  1.7657  0.4165
   79SLPC  H14B 7212   4.133   0.778   6.208  1.2767  1.5484 -0.0405
   79SLPC  H14C 7213   3.966   0.778   6.247  0.4153 -0.1304  1.6053
   79SLPC   C15 7214   3.981   1.039   6.345 -0.1029 -0.0292  0.6049
   79SLPC  H15A 7215   3.967   1.112   6.266 -1.4580 -1.5537 -0.6189
   79SLPC  H15B 7216   3.883   0.996   6.360  0.3894 -0.5656  2.6418
   79SLPC  H15C 7217   4.014   1.095   6.431  1.7441 -0.6289  0.3305
   79SLPC   C12 7218   4.095   0.850   6.454 -0.2617  0.2464 -0.8388
   79SLPC  H12A 7219   3.995   0.823   6.485  0.8355 -1.0733  1.9039
   79SLPC  H12B 7220   4.134   0.919   6.527 -1.9649  0.7668 -0.3510
   79SLPC   C11 7221   4.176   0.720   6.455 -1.4322 -0.1317  0.0353
   79SLPC  H11A 7222   4.192   0.696   6.563 -0.2234 -0.1161 -0.1353
   79SLPC  H11B 7223   4.274   0.733   6.405 -0.3836  0.3422  2.0933
   79SLPC     P 7224   3.985   0.544   6.437  0.2253 -0.2908 -0.7705
   79SLPC   O13 7225   3.866   0.628   6.472 -0.1590  0.2755  0.5914
   79SLPC   O14 7226   3.953   0.438   6.340  0.3439 -0.2527  0.3010
   79SLPC   O12 7227   4.105   0.623   6.377 -0.3619 -0.3733 -0.2891
   79SLPC   O11 7228   4.045   0.483   6.571  0.5617  0.1411 -0.8581
   79SLPC    C1 7229   4.143   0.378   6.566  0.6803  0.5323 -0.7386
   79SLPC    HA 7230   4.222   0.392   6.488 -0.2100  0.2035 -1.7220
   79SLPC    HB 7231   4.197   0.377   6.663 -2.6635 -1.7687  1.2863
   79SLPC    C2 7232   4.090   0.232   6.557  0.6807 -0.1380  0.5716
   79SLPC    HS 7233   4.003   0.246   6.489 -0.2871 -0.6388  1.6885
   79SLPC   O21 7234   4.045   0.191   6.684 -0.2743 -0.3048 -0.1470
   79SLPC   C21 7235   3.945   0.098   6.688  0.4083 -0.0146  0.0710
   79SLPC   O22 7236   3.884   0.056   6.593  0.3550 -0.5852 -0.3535
   79SLPC   C22 7237   3.899   0.086   6.828  0.1951 -0.1514 -0.2524
   79SLPC   H2R 7238   3.852   0.180   6.862 -1.7442 -1.3377  0.5418
   79SLPC   H2S 7239   3.815   0.013   6.824  0.9397 -0.9965 -0.9435
   79SLPC    C3 7240   4.194   0.135   6.493  0.4087  0.2177  0.5347
   79SLPC    HX 7241   4.219   0.171   6.391  1.3504  1.5827  1.2159
   79SLPC    HY 7242   4.147   0.037   6.474  0.7679  0.0529  0.4825
   79SLPC   O31 7243   4.315   0.120   6.567 -0.2015  0.4448  0.3314
   79SLPC   C31 7244   4.317   0.029   6.659 -0.7141  0.2456  0.2830
   79SLPC   O32 7245   4.224  -0.044   6.696 -0.4167 -0.1048  1.0149
   79SLPC   C32 7246   4.466   0.021   6.707 -0.0711 -0.0034 -0.5802
   79SLPC   H2X 7247   4.504   0.125   6.720  0.9449  0.0122 -3.0058
   79SLPC   H2Y 7248   4.525  -0.025   6.625  1.5198  1.0310 -0.0674
   79SLPC   C23 7249   4.006   0.033   6.921  0.1559 -0.4931 -0.4222
   79SLPC   H3R 7250   4.097   0.097   6.924  1.7146 -2.6015  2.2468
   79SLPC   H3S 7251   4.057  -0.060   6.886  2.9493  0.3411  1.0932
   79SLPC   C24 7252   3.955   0.014   7.066 -0.0023  0.0021 -0.1183
   79SLPC   H4R 7253   3.854  -0.032   7.063 -1.0598  2.1943 -0.8450
   79SLPC   H4S 7254   3.938   0.113   7.114 -1.5133 -1.6537  3.0066
   79SLPC   C25 7255   4.053  -0.076   7.147 -0.2769  0.2294 -0.3160
   79SLPC   H5R 7256   4.160  -0.043   7.150  0.3128 -1.5656 -0.4931
   79SLPC   H5S 7257   4.050  -0.175   7.098  0.3224 -2.1720  3.9965
   79SLPC   C26 7258   4.008  -0.109   7.286  1.3655 -0.6179 -0.0319
   79SLPC   H6R 7259   4.075  -0.189   7.322  1.9782 -0.1831 -0.1791
   79SLPC   H6S 7260   3.909  -0.156   7.267 -0.4845  2.7451  0.4562
   79SLPC   C27 7261   3.990   0.015   7.381  0.4089  0.1340  0.1810
   79SLPC   H7R 7262   3.924   0.084   7.325  2.4766  0.4671 -2.0315
   79SLPC   H7S 7263   4.081   0.072   7.411 -0.4457  0.8903  1.4071
   79SLPC   C28 7264   3.908  -0.007   7.514  0.4614  0.2446  0.3965
   79SLPC   H8R 7265   3.801  -0.022   7.486 -0.0785  1.3169  1.7966
   79SLPC   H8S 7266   3.910   0.081   7.581 -3.2539  2.0564 -1.5887
   79SLPC   C29 7267   3.956  -0.136   7.580 -0.0007 -0.5918 -0.8918
   79SLPC   H9R 7268   3.929  -0.229   7.528  1.1320 -2.2858  1.4239
   79SLPC  C210 7269   4.036  -0.133   7.689 -0.3706  0.0007 -0.8026
   79SLPC  H10R 7270   4.078  -0.223   7.736  1.1708  0.8199 -0.5514
   79SLPC  C211 7271   4.086  -0.010   7.769  0.4046 -0.6288  0.4879
   79SLPC  H11R 7272   4.116   0.065   7.693  1.5549 -1.6442 -0.1032
   79SLPC  H11S 7273   4.182  -0.029   7.821 -0.5950  0.2730  2.7829
   79SLPC  C212 7274   3.979   0.055   7.850  0.0988  0.1403 -0.0014
   79SLPC  H12R 7275   3.883   0.082   7.804 -0.6762 -1.1059  0.8516
   79SLPC  C213 7276   3.988   0.053   7.987  0.3423 -0.1460  0.0694
   79SLPC  H13R 7277   3.911   0.106   8.044  0.0262  0.9769 -1.3404
   79SLPC  C214 7278   4.106  -0.004   8.070  0.1948 -0.1127 -0.1211
   79SLPC  H14R 7279   4.174   0.082   8.084 -2.2467  1.8680  0.2624
   79SLPC  H14S 7280   4.169  -0.080   8.019  2.4518  2.7676 -1.9286
   79SLPC  C215 7281   4.056  -0.058   8.204  0.4477 -0.3902 -0.9239
   79SLPC  H15R 7282   4.005   0.022   8.262 -1.7459 -1.8333 -0.7321
   79SLPC  H15S 7283   4.145  -0.088   8.263  0.3352 -0.3199 -0.7155
   79SLPC  C216 7284   3.951  -0.181   8.193 -0.3325  0.0829 -0.1592
   79SLPC  H16R 7285   3.993  -0.278   8.161  1.4875  0.1182  1.9091
   79SLPC  H16S 7286   3.876  -0.152   8.117  0.9306  1.9295 -0.7867
   79SLPC  C217 7287   3.872  -0.198   8.322 -0.0098  0.7224 -0.5438
   79SLPC  H17R 7288   3.805  -0.111   8.339  0.0375  0.4944  1.0035
   79SLPC  H17S 7289   3.940  -0.207   8.410 -0.3165 -0.1175 -0.3926
   79SLPC  C218 7290   3.771  -0.320   8.340 -0.1242 -0.6789 -0.3803
   79SLPC  H18R 7291   3.820  -0.415   8.308  1.7313 -0.1810  0.8431
   79SLPC  H18S 7292   3.679  -0.293   8.283  0.1713  2.6774  0.5103
   79SLPC  H18T 7293   3.743  -0.322   8.447  2.1468 -2.6376  0.2644
   79SLPC   C33 7294   4.486  -0.065   6.833 -0.1408 -0.1952 -0.8544
   79SLPC   H3X 7295   4.592  -0.093   6.848 -0.0247  0.4464 -0.4566
   79SLPC   H3Y 7296   4.421  -0.154   6.814 -0.1873  0.1520 -2.4947
   79SLPC   C34 7297   4.441   0.014   6.962 -0.1710  0.2346 -0.1127
   79SLPC   H4X 7298   4.331   0.025   6.958  0.0651  3.1832 -1.6036
   79SLPC   H4Y 7299   4.483   0.117   6.956  1.5727 -0.3500  1.2517
   79SLPC   C35 7300   4.490  -0.062   7.093  0.0488  0.3429  0.4994
   79SLPC   H5X 7301   4.601  -0.071   7.093 -0.0913 -2.5307  0.8551
   79SLPC   H5Y 7302   4.449  -0.166   7.095  0.4479  0.1550 -0.6571
   79SLPC   C36 7303   4.445   0.005   7.224 -0.0573 -0.1999 -0.6741
   79SLPC   H6X 7304   4.336   0.029   7.221 -0.2773 -0.6136  1.6561
   79SLPC   H6Y 7305   4.481   0.108   7.246 -2.6117  0.3946  1.2208
   79SLPC   C37 7306   4.476  -0.088   7.345  0.4963  0.0901 -0.4769
   79SLPC   H7X 7307   4.584  -0.112   7.342  0.0051 -3.5475  2.6363
   79SLPC   H7Y 7308   4.415  -0.181   7.342 -2.4241  1.6626  2.8766
   79SLPC   C38 7309   4.440  -0.021   7.488 -0.9173  0.0346  0.9653
   79SLPC   H8X 7310   4.334   0.010   7.482 -1.3441 -1.5261 -4.2555
   79SLPC   H8Y 7311   4.488   0.077   7.468 -1.6446  0.2900  0.4406
   79SLPC   C39 7312   4.475  -0.078   7.624  0.2809  0.5254 -0.3793
   79SLPC   H9X 7313   4.582  -0.106   7.633  1.0469  3.1562 -0.4428
   79SLPC   H9Y 7314   4.418  -0.172   7.642  2.0174 -0.1017  2.4815
   79SLPC  C310 7315   4.454   0.020   7.740 -0.0816 -0.9155  0.3774
   79SLPC  H10X 7316   4.360   0.077   7.721  0.7948 -0.5906 -3.7737
   79SLPC  H10Y 7317   4.531   0.095   7.710 -1.0844  0.0900  0.2286
   79SLPC  C311 7318   4.478  -0.023   7.889 -0.2066  0.3046  0.2547
   79SLPC  H11X 7319   4.563  -0.094   7.892 -0.5097 -0.0826 -0.1472
   79SLPC  H11Y 7320   4.380  -0.064   7.923 -0.7549  3.3149  2.6689
   79SLPC  C312 7321   4.518   0.090   7.984 -0.0262  0.3269  0.1487
   79SLPC  H12X 7322   4.427   0.153   7.989  0.6073  1.2906 -0.2722
   79SLPC  H12Y 7323   4.609   0.141   7.947  0.5694 -1.4485 -0.9680
   79SLPC  C313 7324   4.535   0.029   8.129 -0.0928 -0.3816 -0.2835
   79SLPC  H13X 7325   4.639  -0.010   8.131  0.5501  1.2460  1.4825
   79SLPC  H13Y 7326   4.460  -0.049   8.153 -1.8239  0.9385 -1.1971
   79SLPC  C314 7327   4.519   0.130   8.241 -0.3334 -0.0051  0.0958
   79SLPC  H14X 7328   4.418   0.173   8.224 -1.1676 -1.9437 -0.0670
   79SLPC  H14Y 7329   4.597   0.209   8.237  0.0511 -0.1891  2.3020
   79SLPC  C315 7330   4.520   0.062   8.381  1.0207  0.0298 -0.6497
   79SLPC  H15X 7331   4.452  -0.026   8.379  0.0974  0.6473  1.1840
   79SLPC  H15Y 7332   4.485   0.125   8.466 -1.1659 -0.7362 -0.9288
   79SLPC  C316 7333   4.659   0.016   8.419 -0.9027 -0.2857 -0.2298
   79SLPC  H16X 7334   4.704  -0.037   8.332 -2.2652 -1.5639 -0.1984
   79SLPC  H16Y 7335   4.640  -0.057   8.501 -0.1353  0.7635  0.9207
   79SLPC  C317 7336   4.756   0.129   8.465  0.3617  0.1379 -0.4829
   79SLPC  H17X 7337   4.704   0.186   8.545 -0.1159  1.1421 -1.4738
   79SLPC  H17Y 7338   4.769   0.205   8.385  0.0718  0.0072 -0.6580
   79SLPC  C318 7339   4.890   0.082   8.522  0.1680 -0.6337 -0.9889
   79SLPC  H18X 7340   4.882   0.051   8.629 -0.7607  1.1421 -0.5006
   79SLPC  H18Y 7341   4.959   0.169   8.528  0.8704 -1.2583  0.6982
   79SLPC  H18Z 7342   4.948   0.012   8.458  1.5641 -1.6548  1.2785
   80SLPC     N 7343   5.603   4.646   5.931  0.1196  0.2704 -0.2761
   80SLPC   C13 7344   5.610   4.744   5.814  0.9094  0.9141 -0.3014
   80SLPC  H13A 7345   5.702   4.800   5.813  2.0871 -0.8963  0.5150
   80SLPC  H13B 7346   5.605   4.688   5.721 -1.7703  1.8092 -0.7797
   80SLPC  H13C 7347   5.531   4.818   5.815  0.1093  0.0977  1.2953
   80SLPC   C14 7348   5.709   4.540   5.911  0.0207  0.0979  0.3242
   80SLPC  H14A 7349   5.798   4.583   5.869 -0.9201  0.7063 -1.1257
   80SLPC  H14B 7350   5.740   4.501   6.007  1.5884  0.2234 -0.1045
   80SLPC  H14C 7351   5.666   4.460   5.852 -0.4315 -0.8546  1.8693
   80SLPC   C15 7352   5.470   4.576   5.928 -0.1120  0.4186 -0.1168
   80SLPC  H15A 7353   5.394   4.639   5.973 -0.0454 -1.7421  3.3774
   80SLPC  H15B 7354   5.431   4.550   5.831 -3.2158 -1.3029  1.4490
   80SLPC  H15C 7355   5.489   4.486   5.983  2.9605  2.4125  2.4543
   80SLPC   C12 7356   5.612   4.713   6.068  0.0968 -0.0387  0.4539
   80SLPC  H12A 7357   5.610   4.638   6.146  0.0550  0.7902  1.2680
   80SLPC  H12B 7358   5.522   4.770   6.085  0.7653  1.6747 -1.3867
   80SLPC   C11 7359   5.738   4.811   6.095 -0.3197  0.7490 -0.8339
   80SLPC  H11A 7360   5.734   4.853   6.197  1.0979 -1.7134  0.3167
   80SLPC  H11B 7361   5.727   4.891   6.017 -1.9108 -1.0174 -2.5315
   80SLPC     P 7362   6.001   4.830   6.085  0.0952 -0.3044  0.3622
   80SLPC   O13 7363   6.106   4.746   6.023 -0.3091 -0.0165  0.3532
   80SLPC   O14 7364   5.962   4.960   6.024 -0.4126  0.3412  0.0016
   80SLPC   O12 7365   5.866   4.755   6.079 -0.4858  0.0754 -0.2094
   80SLPC   O11 7366   6.033   4.853   6.245  0.0628  0.0861  0.5728
   80SLPC    C1 7367   6.025   4.726   6.325 -0.3495 -0.1040  0.4671
   80SLPC    HA 7368   5.923   4.711   6.367 -0.8139 -1.9493 -1.1846
   80SLPC    HB 7369   6.041   4.642   6.253  0.0064  1.2664 -1.1087
   80SLPC    C2 7370   6.136   4.701   6.432  0.3148 -0.1741 -0.6489
   80SLPC    HS 7371   6.113   4.597   6.464 -1.3170 -0.0582 -1.3533
   80SLPC   O21 7372   6.151   4.804   6.536 -0.2132 -0.2565 -0.5122
   80SLPC   C21 7373   6.085   4.778   6.647 -0.2765  0.4662  0.1304
   80SLPC   O22 7374   5.997   4.694   6.661 -0.2680  0.5451 -0.0750
   80SLPC   C22 7375   6.129   4.877   6.759 -0.3299  0.2516  0.8981
   80SLPC   H2R 7376   6.239   4.883   6.761 -0.0443 -3.0154  0.1323
   80SLPC   H2S 7377   6.078   4.972   6.730 -2.8821 -1.2825 -0.0624
   80SLPC    C3 7378   6.270   4.698   6.356  0.2772 -0.3952 -0.0731
   80SLPC    HX 7379   6.294   4.798   6.316 -0.7006  0.0789  0.5079
   80SLPC    HY 7380   6.253   4.634   6.267 -0.8926  0.6764 -0.6280
   80SLPC   O31 7381   6.385   4.641   6.430  0.4273  0.6138  0.5926
   80SLPC   C31 7382   6.459   4.728   6.489 -0.4907 -0.2143  0.3429
   80SLPC   O32 7383   6.443   4.850   6.491  0.2140 -0.2764  0.4234
   80SLPC   C32 7384   6.570   4.665   6.572 -0.3584 -0.2018 -0.0172
   80SLPC   H2X 7385   6.642   4.745   6.600 -0.5077 -0.5043  1.3030
   80SLPC   H2Y 7386   6.618   4.588   6.508 -3.4175 -2.2178 -0.0982
   80SLPC   C23 7387   6.082   4.842   6.898 -0.3153 -0.2291 -0.8076
   80SLPC   H3R 7388   5.975   4.817   6.916 -0.0195  0.2718  2.0819
   80SLPC   H3S 7389   6.097   4.935   6.956 -0.0645 -1.5677  1.4275
   80SLPC   C24 7390   6.157   4.727   6.953  0.3048  0.2799  0.8081
   80SLPC   H4R 7391   6.264   4.739   6.928 -0.4741  2.8310 -1.8470
   80SLPC   H4S 7392   6.119   4.630   6.915  0.3009  0.7398 -0.3952
   80SLPC   C25 7393   6.152   4.719   7.111  0.1457 -0.3961 -0.0930
   80SLPC   H5R 7394   6.061   4.669   7.150 -0.4415 -0.1439 -1.0870
   80SLPC   H5S 7395   6.140   4.820   7.155  0.3356 -1.1880  1.8628
   80SLPC   C26 7396   6.278   4.664   7.180  0.3864 -0.2321 -0.2107
   80SLPC   H6R 7397   6.370   4.706   7.133  1.6873 -1.5025  1.0714
   80SLPC   H6S 7398   6.283   4.554   7.161  0.7724 -0.0394 -1.2879
   80SLPC   C27 7399   6.280   4.697   7.332  0.4530 -0.1451 -0.0029
   80SLPC   H7R 7400   6.180   4.688   7.381  0.9354 -2.2855  0.6925
   80SLPC   H7S 7401   6.312   4.802   7.348 -2.6760  0.6652  2.0164
   80SLPC   C28 7402   6.385   4.619   7.412 -0.0396  0.4305 -1.0457
   80SLPC   H8R 7403   6.421   4.672   7.502 -1.7386 -1.8780  1.1574
   80SLPC   H8S 7404   6.472   4.610   7.344  1.4444  1.6866  0.6008
   80SLPC   C29 7405   6.325   4.483   7.436 -0.0989 -1.2519  0.0460
   80SLPC   H9R 7406   6.252   4.448   7.361 -0.6721 -0.4080  0.1972
   80SLPC  C210 7407   6.345   4.408   7.541 -0.1630  0.8506  0.0776
   80SLPC  H10R 7408   6.286   4.316   7.551 -0.4149  1.0114  0.0597
   80SLPC  C211 7409   6.447   4.431   7.647 -0.0009  0.5832 -0.1852
   80SLPC  H11R 7410   6.504   4.524   7.627 -0.1562  0.1499 -3.2178
   80SLPC  H11S 7411   6.514   4.343   7.640 -1.7615 -0.7852 -0.6164
   80SLPC  C212 7412   6.369   4.439   7.782 -0.2018  0.1795 -0.4484
   80SLPC  H12R 7413   6.272   4.490   7.774 -0.4830 -0.6004 -2.8962
   80SLPC  C213 7414   6.421   4.394   7.902  0.3771 -0.0351  0.8098
   80SLPC  H13R 7415   6.366   4.413   7.995 -0.0770 -1.0106  0.7567
   80SLPC  C214 7416   6.560   4.327   7.921  0.2447 -0.1649 -0.2768
   80SLPC  H14R 7417   6.627   4.404   7.964  0.8254 -0.4211 -0.7246
   80SLPC  H14S 7418   6.602   4.299   7.823 -0.8680  0.0820 -0.8459
   80SLPC  C215 7419   6.555   4.208   8.023  0.0790  0.7573  0.4567
   80SLPC  H15R 7420   6.468   4.228   8.088 -2.0718  0.1719 -2.0661
   80SLPC  H15S 7421   6.639   4.198   8.096  0.4527 -1.7723 -0.1978
   80SLPC  C216 7422   6.501   4.080   7.951  0.0602 -0.6009 -0.0557
   80SLPC  H16R 7423   6.574   4.061   7.870  0.3724  0.0011  0.0883
   80SLPC  H16S 7424   6.401   4.098   7.906 -0.3135 -2.9116 -0.2931
   80SLPC  C217 7425   6.486   3.950   8.024 -0.4606 -0.2261 -0.1817
   80SLPC  H17R 7426   6.399   3.957   8.093 -0.4088 -1.2863  0.0015
   80SLPC  H17S 7427   6.573   3.940   8.093 -1.8476 -0.2460  1.6339
   80SLPC  C218 7428   6.477   3.828   7.937 -0.4340  0.7524 -0.5573
   80SLPC  H18R 7429   6.381   3.838   7.882 -0.4002 -1.0401 -1.0157
   80SLPC  H18S 7430   6.476   3.739   8.004 -1.9239 -1.0396 -2.7632
   80SLPC  H18T 7431   6.562   3.815   7.867  0.1028  1.7167 -0.0861
   80SLPC   C33 7432   6.520   4.587   6.698  0.0951 -0.2123  1.3707
   80SLPC   H3X 7433   6.512   4.482   6.660  1.1578  0.7043 -1.7158
   80SLPC   H3Y 7434   6.419   4.610   6.738 -0.4114 -1.0524  0.6381
   80SLPC   C34 7435   6.620   4.606   6.816 -0.3226 -0.0222 -0.2995
   80SLPC   H4X 7436   6.615   4.706   6.865  0.1407  0.4055 -1.1070
   80SLPC   H4Y 7437   6.721   4.591   6.772  0.8023  0.7295  1.8426
   80SLPC   C35 7438   6.605   4.497   6.930 -0.5988 -0.4827 -0.3117
   80SLPC   H5X 7439   6.577   4.399   6.887  2.6543 -1.7175  0.1302
   80SLPC   H5Y 7440   6.515   4.523   6.989 -0.3484  1.0363 -0.5546
   80SLPC   C36 7441   6.710   4.477   7.025 -0.6746 -0.4110 -0.8496
   80SLPC   H6X 7442   6.763   4.570   7.055  1.5192 -1.6647 -0.6293
   80SLPC   H6Y 7443   6.788   4.410   6.983  0.7843  1.2214 -0.8806
   80SLPC   C37 7444   6.646   4.406   7.147 -0.2412 -0.3969  0.3113
   80SLPC   H7X 7445   6.598   4.320   7.097 -0.2386  0.9965 -2.2838
   80SLPC   H7Y 7446   6.573   4.466   7.206 -0.3837 -0.8035  0.5472
   80SLPC   C38 7447   6.756   4.360   7.246 -0.8768  0.2542  0.6830
   80SLPC   H8X 7448   6.786   4.452   7.301  1.0791 -1.1619  2.1120
   80SLPC   H8Y 7449   6.834   4.320   7.179 -1.0510  3.4248 -1.6647
   80SLPC   C39 7450   6.697   4.266   7.360  0.1633 -0.1352 -0.3688
   80SLPC   H9X 7451   6.661   4.171   7.317 -0.7252 -0.4400  1.0040
   80SLPC   H9Y 7452   6.613   4.314   7.414 -1.1167 -0.8916 -1.6192
   80SLPC  C310 7453   6.811   4.227   7.463 -0.0126  0.1169  0.3601
   80SLPC  H10X 7454   6.901   4.179   7.419  0.6715  0.2947  1.5252
   80SLPC  H10Y 7455   6.771   4.152   7.535  1.7997 -1.2304  0.0450
   80SLPC  C311 7456   6.853   4.337   7.562  0.2140 -0.9096 -0.0542
   80SLPC  H11X 7457   6.766   4.387   7.611  0.3585 -3.9367  3.8222
   80SLPC  H11Y 7458   6.898   4.410   7.492 -2.3551 -1.3704 -2.4060
   80SLPC  C312 7459   6.950   4.302   7.666 -0.3972  0.2774  0.4706
   80SLPC  H12X 7460   7.009   4.390   7.698  0.2078  0.0517 -0.0018
   80SLPC  H12Y 7461   7.023   4.247   7.603 -1.7608 -0.5320 -0.4680
   80SLPC  C313 7462   6.898   4.220   7.786  0.0068  0.4775 -0.4647
   80SLPC  H13X 7463   6.874   4.112   7.778 -0.0797  0.4571  0.0425
   80SLPC  H13Y 7464   6.808   4.272   7.824 -1.7946 -2.6438 -0.1314
   80SLPC  C314 7465   6.997   4.240   7.904 -0.5353 -0.3045  0.0682
   80SLPC  H14X 7466   7.007   4.350   7.912  0.4661 -0.3009 -1.0722
   80SLPC  H14Y 7467   7.098   4.200   7.880  0.4853  1.0318  1.8375
   80SLPC  C315 7468   6.950   4.182   8.036 -0.5343 -0.4272  0.4155
   80SLPC  H15X 7469   6.860   4.240   8.065 -1.2112 -1.8379  1.2594
   80SLPC  H15Y 7470   7.028   4.201   8.112  0.6663  2.6486 -1.3965
   80SLPC  C316 7471   6.917   4.034   8.038 -0.0251 -0.0465  0.1281
   80SLPC  H16X 7472   6.823   4.019   7.981  0.5164  0.2219 -0.8649
   80SLPC  H16Y 7473   6.887   4.013   8.143 -2.0391 -0.6981 -0.5282
   80SLPC  C317 7474   7.023   3.937   7.992  0.3548 -0.6070 -0.2758
   80SLPC  H17X 7475   7.120   3.964   8.037  0.7277 -0.4004 -1.1784
   80SLPC  H17Y 7476   7.025   3.949   7.881 -1.6321  0.6387 -0.2193
   80SLPC  C318 7477   6.971   3.799   8.026 -0.7153  0.7077 -0.3129
   80SLPC  H18X 7478   6.959   3.790   8.136  1.3847 -0.3564 -0.1117
   80SLPC  H18Y 7479   7.037   3.714   7.995  0.3759  1.2962  0.3246
   80SLPC  H18Z 7480   6.870   3.789   7.981 -0.5229 -1.4171 -0.3885
   81SAPS     N 7481   1.115   0.297  11.118 -0.0790 -0.6784 -0.1528
   81SAPS   HN1 7482   1.056   0.296  11.033  0.9235 -0.7203 -0.8566
   81SAPS   HN2 7483   1.078   0.224  11.183  1.1933  0.1436  1.6006
   81SAPS   HN3 7484   1.103   0.391  11.162  1.8108  0.6444 -2.2798
   81SAPS   C12 7485   1.265   0.250  11.104  0.3345  0.0234 -0.4753
   81SAPS  H12A 7486   1.317   0.283  11.193 -0.4012  1.1290 -0.4273
   81SAPS   C13 7487   1.275   0.093  11.094  0.1836 -0.5083  0.0554
   81SAPS  O13A 7488   1.171   0.026  11.115  0.1201  0.0992 -0.2575
   81SAPS  O13B 7489   1.386   0.043  11.058 -0.1149 -0.3223 -0.0314
   81SAPS   C11 7490   1.325   0.328  10.983  0.2799 -0.7084 -0.2789
   81SAPS  H11A 7491   1.271   0.319  10.886 -1.1971 -2.6107  0.6638
   81SAPS  H11B 7492   1.425   0.283  10.969  1.7197  1.0806  2.9640
   81SAPS     P 7493   1.424   0.564  10.925  0.2351 -0.2523  0.0093
   81SAPS   O13 7494   1.379   0.703  10.945 -0.1870  0.0056 -0.4161
   81SAPS   O14 7495   1.572   0.541  10.948  0.0643 -0.3783  0.2404
   81SAPS   O12 7496   1.341   0.468  11.013  0.1363 -0.0242  0.2223
   81SAPS   O11 7497   1.385   0.524  10.777 -0.2770 -0.2321  0.4838
   81SAPS    C1 7498   1.256   0.552  10.725 -0.1348 -0.0307 -0.3648
   81SAPS    HA 7499   1.174   0.487  10.763 -1.4721  2.2513  0.8129
   81SAPS    HB 7500   1.219   0.654  10.744 -0.2814 -0.3515  1.1846
   81SAPS    C2 7501   1.262   0.542  10.565  0.2224  1.3501  0.2866
   81SAPS    HS 7502   1.159   0.552  10.525  0.5221  0.1839 -0.8725
   81SAPS   O21 7503   1.307   0.406  10.524  0.1771 -0.4868  0.3166
   81SAPS   C21 7504   1.221   0.310  10.546 -0.8225  0.1620  0.5459
   81SAPS   O22 7505   1.112   0.314  10.600  0.4409 -0.2384  0.3500
   81SAPS   C22 7506   1.295   0.193  10.479  0.1317  0.6160 -0.6268
   81SAPS   H2R 7507   1.324   0.217  10.374 -1.0168  0.3777 -1.0118
   81SAPS   H2S 7508   1.384   0.176  10.543 -1.9630 -0.2390  2.3007
   81SAPS    C3 7509   1.347   0.644  10.496  1.4035 -0.0639  0.5005
   81SAPS    HX 7510   1.430   0.678  10.561  1.5001  4.4759 -1.5740
   81SAPS    HY 7511   1.289   0.739  10.486  2.0281  0.2581 -0.2162
   81SAPS   O31 7512   1.397   0.602  10.365  0.4770  0.3302  0.1671
   81SAPS   C31 7513   1.304   0.599  10.273  0.1550 -0.2690 -0.0809
   81SAPS   O32 7514   1.186   0.624  10.281  0.2892 -0.8152  0.0548
   81SAPS   C32 7515   1.373   0.574  10.139 -0.0772 -0.5770 -0.3037
   81SAPS   H2X 7516   1.484   0.569  10.141  0.0273  1.3490  0.2011
   81SAPS   H2Y 7517   1.349   0.665  10.081  0.2076 -0.7902 -0.7626
   81SAPS   C23 7518   1.218   0.058  10.482  0.0388 -0.2837  0.1051
   81SAPS   H3R 7519   1.131   0.075  10.415  0.7752  3.5817 -0.0556
   81SAPS   H3S 7520   1.191   0.039  10.589  2.4675  1.1591  1.0566
   81SAPS   C24 7521   1.308  -0.067  10.450 -0.2288 -0.3155 -0.3138
   81SAPS   H4R 7522   1.237  -0.153  10.444 -0.3714 -0.1687 -0.7969
   81SAPS   H4S 7523   1.373  -0.075  10.540  0.7449 -0.3115 -1.0095
   81SAPS   C25 7524   1.391  -0.073  10.329 -0.2133  0.2106  0.2703
   81SAPS   H5R 7525   1.497  -0.065  10.359  0.5187  1.7336 -2.3460
   81SAPS   C26 7526   1.359  -0.090  10.199  0.0631 -0.1717  0.5172
   81SAPS   H6R 7527   1.447  -0.100  10.135  0.5802 -0.6242  1.2804
   81SAPS   C27 7528   1.219  -0.103  10.138 -0.4856  0.1285 -0.5265
   81SAPS   H7R 7529   1.202  -0.056  10.039  0.3969  1.8703  0.1107
   81SAPS   H7S 7530   1.154  -0.040  10.202  1.6234  0.3230  1.5839
   81SAPS   C28 7531   1.167  -0.246  10.140 -0.4799  0.4303  0.4351
   81SAPS   H8R 7532   1.159  -0.286  10.242 -0.4475 -0.4111  0.1121
   81SAPS   C29 7533   1.121  -0.325  10.039  0.1903 -0.8160  0.1780
   81SAPS   H9R 7534   1.079  -0.423  10.066 -2.9111  0.5601  0.7149
   81SAPS  C210 7535   1.107  -0.281   9.899  0.1116  0.3552  0.3642
   81SAPS  H10R 7536   1.179  -0.341   9.840 -1.2442 -1.2741  0.2921
   81SAPS  H10S 7537   1.127  -0.172   9.885  0.3828  0.2312 -0.2333
   81SAPS  C211 7538   0.965  -0.304   9.858 -0.0431 -1.1005  0.0578
   81SAPS  H11R 7539   0.884  -0.313   9.931  1.0405 -2.8385  1.1369
   81SAPS  C212 7540   0.931  -0.315   9.731 -0.2133 -0.1668  0.3074
   81SAPS  H12R 7541   0.823  -0.331   9.717 -0.1755  0.3632 -0.6740
   81SAPS  C213 7542   1.021  -0.306   9.609  0.1313 -0.4753  0.2726
   81SAPS  H13R 7543   1.128  -0.313   9.641  0.4948 -2.4104 -1.2217
   81SAPS  H13S 7544   1.004  -0.206   9.563  2.7810  0.2062  0.5590
   81SAPS  C214 7545   0.992  -0.420   9.513 -0.3460 -0.6320 -1.3768
   81SAPS  H14R 7546   0.979  -0.521   9.555 -1.6020  0.2197  0.3835
   81SAPS  C215 7547   0.976  -0.409   9.380  0.0142  0.5382 -0.2304
   81SAPS  H15R 7548   0.950  -0.501   9.326 -1.1072 -1.0055  2.6596
   81SAPS  C216 7549   0.987  -0.289   9.297  0.4715 -0.0563 -0.8396
   81SAPS  H16R 7550   1.035  -0.210   9.359  0.8527 -2.7148  2.5990
   81SAPS  H16S 7551   0.886  -0.256   9.267 -0.7800 -1.7315  1.2333
   81SAPS  C217 7552   1.050  -0.297   9.158 -0.8316  0.0191  0.1924
   81SAPS  H17R 7553   1.159  -0.289   9.180 -0.2329  0.3119 -2.5141
   81SAPS  H17S 7554   1.041  -0.203   9.100 -0.8547 -0.7317 -1.0761
   81SAPS  C218 7555   1.029  -0.425   9.075 -0.0355 -0.6311  0.4294
   81SAPS  H18R 7556   0.921  -0.441   9.056 -0.2009 -1.1182  1.6907
   81SAPS  H18S 7557   1.060  -0.502   9.149  0.7074  0.2909  1.1156
   81SAPS  C219 7558   1.107  -0.431   8.949  0.6264  0.0118  0.1144
   81SAPS  H19R 7559   1.090  -0.528   8.898  0.7890 -2.0132  3.5745
   81SAPS  H19S 7560   1.215  -0.431   8.976  1.2747  3.1876 -1.9774
   81SAPS  C220 7561   1.087  -0.321   8.851  0.2804 -0.4089 -0.2957
   81SAPS  H20R 7562   0.985  -0.279   8.843  0.9857  1.1312 -2.0247
   81SAPS  H20S 7563   1.119  -0.353   8.749 -2.8244 -3.5412 -0.4686
   81SAPS  H20T 7564   1.147  -0.232   8.879 -0.8967  1.2912 -2.8257
   81SAPS   C33 7565   1.329   0.445  10.072  0.7569  0.3256 -0.1245
   81SAPS   H3X 7566   1.227   0.412  10.104  0.4532 -0.5209 -1.8434
   81SAPS   H3Y 7567   1.387   0.351  10.083  1.7441  0.7654 -1.3473
   81SAPS   C34 7568   1.317   0.474   9.922 -0.6133 -0.6730 -0.1928
   81SAPS   H4X 7569   1.414   0.495   9.872 -0.8457 -0.3012 -0.4906
   81SAPS   H4Y 7570   1.271   0.574   9.907  1.3142  0.2919 -0.0197
   81SAPS   C35 7571   1.239   0.367   9.848 -0.7312  0.5993 -0.0989
   81SAPS   H5X 7572   1.150   0.340   9.908  0.9964  0.4230  2.5639
   81SAPS   H5Y 7573   1.303   0.277   9.841 -1.1337  0.3644 -0.7609
   81SAPS   C36 7574   1.193   0.415   9.711  0.5741  0.7772 -1.0987
   81SAPS   H6X 7575   1.113   0.488   9.734  0.2986  0.6919 -1.7470
   81SAPS   H6Y 7576   1.146   0.329   9.659  1.7915  1.1338 -2.8715
   81SAPS   C37 7577   1.302   0.461   9.614 -0.5328  0.2140  0.5153
   81SAPS   H7X 7578   1.386   0.388   9.610  2.0433  2.9914 -0.0279
   81SAPS   H7Y 7579   1.353   0.557   9.639 -0.4762  0.7853 -1.6094
   81SAPS   C38 7580   1.248   0.475   9.475  0.2525 -0.4333 -0.1571
   81SAPS   H8X 7581   1.197   0.573   9.462  0.9222  0.2459  2.0143
   81SAPS   H8Y 7582   1.172   0.395   9.464 -0.4116  0.2117 -0.2989
   81SAPS   C39 7583   1.365   0.445   9.374 -0.2336 -0.3497  0.4352
   81SAPS   H9X 7584   1.359   0.334   9.369 -2.7551 -0.2095 -1.5116
   81SAPS   H9Y 7585   1.465   0.484   9.403  0.0534 -1.5266  1.0874
   81SAPS  C310 7586   1.338   0.505   9.231 -0.4314  0.0443  0.9522
   81SAPS  H10X 7587   1.365   0.613   9.235 -0.2555  0.0411  0.0522
   81SAPS  H10Y 7588   1.230   0.487   9.216 -0.2344 -0.2694 -0.1571
   81SAPS  C311 7589   1.418   0.423   9.124  0.3756 -0.4173  0.6842
   81SAPS  H11X 7590   1.416   0.482   9.030  0.5479  0.2774  1.1038
   81SAPS  H11Y 7591   1.378   0.320   9.118  1.4473 -1.0579  3.1284
   81SAPS  C312 7592   1.569   0.412   9.150  0.2180 -0.0005  0.8310
   81SAPS  H12X 7593   1.582   0.348   9.239  0.4780 -4.0115 -1.8315
   81SAPS  H12Y 7594   1.607   0.516   9.164 -0.9083  0.8807 -1.9001
   81SAPS  C313 7595   1.631   0.344   9.030 -0.8421  0.5598 -0.4156
   81SAPS  H13X 7596   1.607   0.394   8.934  0.0324  0.6308 -0.6016
   81SAPS  H13Y 7597   1.600   0.238   9.025  0.0500  0.3519 -1.9145
   81SAPS  C314 7598   1.784   0.344   9.033 -0.5152  0.3860  0.0692
   81SAPS  H14X 7599   1.822   0.291   9.122  1.2720 -0.0422 -0.8976
   81SAPS  H14Y 7600   1.816   0.450   9.037 -2.6323  1.0544  0.8975
   81SAPS  C315 7601   1.853   0.269   8.914 -0.5484 -0.3933 -0.4058
   81SAPS  H15X 7602   1.848   0.315   8.813 -0.2742  0.1388 -0.1779
   81SAPS  H15Y 7603   1.806   0.169   8.909  0.3683 -0.8452 -0.2326
   81SAPS  C316 7604   2.005   0.256   8.952  0.5032  0.5881  0.2248
   81SAPS  H16X 7605   2.063   0.179   8.896  0.0508 -0.1539  0.7471
   81SAPS  H16Y 7606   2.012   0.208   9.052  5.5766 -4.2800 -1.8914
   81SAPS  C317 7607   2.075   0.392   8.949  0.1234  0.5738  0.6007
   81SAPS  H17X 7608   2.143   0.397   9.036 -0.1118  0.4270  0.7936
   81SAPS  H17Y 7609   1.994   0.467   8.946  0.1260  0.5550 -0.9845
   81SAPS  C318 7610   2.164   0.423   8.822 -0.0728  0.8565  0.4408
   81SAPS  H18X 7611   2.097   0.411   8.735  2.6944 -0.4478 -1.6845
   81SAPS  H18Y 7612   2.260   0.367   8.822  1.0806  2.7461  0.8025
   81SAPS  H18Z 7613   2.187   0.531   8.832 -2.6767  1.2940  2.4795
   82SAPS     N 7614   0.042   6.534  10.752  0.7643  0.6773 -0.4981
   82SAPS   HN1 7615  -0.038   6.484  10.708  0.6884 -0.7633  1.1444
   82SAPS   HN2 7616   0.024   6.636  10.748  0.2734  0.6856  1.1038
   82SAPS   HN3 7617   0.123   6.502  10.696  0.7214 -0.9604  0.2907
   82SAPS   C12 7618   0.045   6.473  10.887 -0.5857 -0.0493  0.6051
   82SAPS  H12A 7619   0.123   6.523  10.943  0.7475  0.1861 -1.3886
   82SAPS   C13 7620  -0.078   6.481  10.975  0.1223 -0.3738  0.0401
   82SAPS  O13A 7621  -0.168   6.560  10.941 -0.2364 -0.4603  0.9749
   82SAPS  O13B 7622  -0.076   6.443  11.096 -0.2742  0.1380 -0.2841
   82SAPS   C11 7623   0.086   6.323  10.867 -0.6333  0.2820 -0.6508
   82SAPS  H11A 7624   0.009   6.270  10.807 -0.3825 -2.4305  1.2156
   82SAPS  H11B 7625   0.097   6.270  10.964  1.2169 -1.4598 -1.7210
   82SAPS     P 7626   0.272   6.187  10.731 -0.1666 -0.3851 -0.3274
   82SAPS   O13 7627   0.362   6.113  10.820 -0.3516  0.0877  0.0337
   82SAPS   O14 7628   0.164   6.102  10.671  0.0899  0.9281  0.5645
   82SAPS   O12 7629   0.213   6.310  10.802  0.4842  0.2811 -0.3591
   82SAPS   O11 7630   0.358   6.241  10.611 -0.1034  0.0031 -0.0704
   82SAPS    C1 7631   0.408   6.373  10.595 -0.0436  0.9105  0.0815
   82SAPS    HA 7632   0.349   6.447  10.653  0.8244  0.7458  1.1879
   82SAPS    HB 7633   0.516   6.374  10.621 -0.3591 -1.3294  1.7184
   82SAPS    C2 7634   0.389   6.429  10.447 -0.8313  0.4357  0.8510
   82SAPS    HS 7635   0.385   6.537  10.468 -0.9182  0.1671  2.3000
   82SAPS   O21 7636   0.278   6.364  10.378 -1.1198 -0.5816  0.0651
   82SAPS   C21 7637   0.162   6.389  10.415  0.1031 -0.7038  0.2484
   82SAPS   O22 7638   0.134   6.471  10.508 -0.4627  0.5366  0.4811
   82SAPS   C22 7639   0.065   6.332  10.313 -0.2028 -0.3041  0.3564
   82SAPS   H2R 7640   0.116   6.252  10.254 -0.5720 -1.5465  1.6881
   82SAPS   H2S 7641  -0.020   6.288  10.368 -0.6465 -0.7010 -0.6202
   82SAPS    C3 7642   0.516   6.398  10.358  0.1827 -0.4637 -0.6311
   82SAPS    HX 7643   0.533   6.288  10.359 -1.3375 -0.7185  0.7990
   82SAPS    HY 7644   0.605   6.444  10.406  0.2021  1.4065 -2.3416
   82SAPS   O31 7645   0.499   6.442  10.225 -0.3886  0.5222  0.1938
   82SAPS   C31 7646   0.533   6.567  10.197 -0.0806  0.1382  0.0959
   82SAPS   O32 7647   0.587   6.641  10.275  0.7534 -0.2279 -0.4333
   82SAPS   C32 7648   0.518   6.587  10.046 -0.6206  0.2799 -0.4275
   82SAPS   H2X 7649   0.441   6.527   9.994  0.7730 -0.3842 -1.8073
   82SAPS   H2Y 7650   0.614   6.545  10.010  1.1588  1.7121  2.3009
   82SAPS   C23 7651   0.021   6.435  10.202  0.2139 -0.3630  0.1594
   82SAPS   H3R 7652  -0.033   6.516  10.255 -0.7223 -1.2894  0.6501
   82SAPS   H3S 7653  -0.050   6.385  10.133 -0.2901 -0.9127  1.0618
   82SAPS   C24 7654   0.141   6.492  10.116 -0.3696  0.3392 -0.1204
   82SAPS   H4R 7655   0.188   6.410  10.058 -2.6927 -0.6391 -0.7595
   82SAPS   H4S 7656   0.229   6.533  10.170  0.1740  0.8008 -1.3322
   82SAPS   C25 7657   0.091   6.589  10.011  0.3444 -0.4947  0.3935
   82SAPS   H5R 7658   0.099   6.695  10.041 -3.4640 -0.3202  1.1859
   82SAPS   C26 7659   0.036   6.568   9.887  0.1986 -0.4960 -0.2816
   82SAPS   H6R 7660   0.014   6.656   9.825  0.4773 -0.6888 -0.6570
   82SAPS   C27 7661   0.019   6.433   9.829  0.5133  0.5199  0.0001
   82SAPS   H7R 7662   0.023   6.351   9.904  1.1372  0.6853  0.1512
   82SAPS   H7S 7663   0.117   6.420   9.778  0.4810  1.1707 -0.2361
   82SAPS   C28 7664  -0.106   6.428   9.749  0.1443 -0.3486  0.3568
   82SAPS   H8R 7665  -0.191   6.393   9.810  0.5717  1.8354  2.3243
   82SAPS   C29 7666  -0.122   6.434   9.612  0.0997 -0.8153  0.2449
   82SAPS   H9R 7667  -0.221   6.423   9.564  0.7721 -0.0206 -1.3995
   82SAPS  C210 7668  -0.007   6.447   9.513 -0.4028  0.3521  0.2604
   82SAPS  H10R 7669   0.080   6.384   9.539 -1.4749 -0.3368  2.3833
   82SAPS  H10S 7670   0.023   6.554   9.504  0.1568  0.1829  0.0858
   82SAPS  C211 7671  -0.042   6.415   9.369 -0.1074  0.2252  0.3828
   82SAPS  H11R 7672  -0.147   6.441   9.350 -0.1342 -1.1878 -1.7387
   82SAPS  C212 7673   0.020   6.348   9.276  0.6035  0.3747 -0.1094
   82SAPS  H12R 7674  -0.014   6.332   9.173  2.8055  0.7514 -0.9560
   82SAPS  C213 7675   0.155   6.279   9.299 -0.4083 -0.2437 -0.3177
   82SAPS  H13R 7676   0.214   6.319   9.385  3.2440 -1.8203 -1.8654
   82SAPS  H13S 7677   0.231   6.305   9.222  0.7529 -0.4397  0.7136
   82SAPS  C214 7678   0.150   6.129   9.307 -0.1352 -0.6588  0.4013
   82SAPS  H14R 7679   0.148   6.084   9.407  0.2031 -0.3941  0.5296
   82SAPS  C215 7680   0.164   6.044   9.207 -0.1421  0.2893  0.5676
   82SAPS  H15R 7681   0.140   5.938   9.222 -2.5086  0.5147 -1.1035
   82SAPS  C216 7682   0.180   6.101   9.067 -0.5441  1.2865 -0.1088
   82SAPS  H16R 7683   0.281   6.088   9.024 -0.0724  1.8212  0.8073
   82SAPS  H16S 7684   0.160   6.210   9.056 -1.2886  0.9985 -2.0189
   82SAPS  C217 7685   0.079   6.038   8.971 -0.0023 -0.0339 -0.2483
   82SAPS  H17R 7686  -0.023   6.046   9.014  0.6910 -0.3188  1.5396
   82SAPS  H17S 7687   0.103   5.930   8.955 -0.5074 -0.1198 -0.4450
   82SAPS  C218 7688   0.088   6.108   8.839 -1.0543  0.2123  0.0781
   82SAPS  H18R 7689   0.192   6.098   8.801 -1.3563 -0.9346 -0.5067
   82SAPS  H18S 7690   0.043   6.209   8.832  0.6851  1.0516  0.5582
   82SAPS  C219 7691   0.009   6.035   8.731  0.2843 -0.3747 -0.6996
   82SAPS  H19R 7692  -0.086   6.002   8.777  1.3025 -0.5275  1.4186
   82SAPS  H19S 7693   0.071   5.946   8.705  0.5010 -0.4210 -0.0449
   82SAPS  C220 7694  -0.008   6.124   8.609  0.3763  0.0183 -0.0666
   82SAPS  H20R 7695  -0.061   6.068   8.529 -3.4280  0.8416  1.6743
   82SAPS  H20S 7696   0.087   6.172   8.575 -1.0169  1.8782 -1.6135
   82SAPS  H20T 7697  -0.072   6.213   8.627 -0.5347 -0.3030 -1.5176
   82SAPS   C33 7698   0.501   6.737  10.019  0.1838 -0.3396  0.7738
   82SAPS   H3X 7699   0.578   6.796  10.073 -0.7869  1.2606  0.4778
   82SAPS   H3Y 7700   0.407   6.785  10.055  0.6244  0.8898  0.3557
   82SAPS   C34 7701   0.516   6.776   9.871 -0.1607  0.7122 -0.0634
   82SAPS   H4X 7702   0.606   6.732   9.822 -2.1490 -2.7543 -0.9596
   82SAPS   H4Y 7703   0.524   6.887   9.859  2.1528  0.7580  1.3329
   82SAPS   C35 7704   0.402   6.727   9.784  0.0606  0.5529 -0.4084
   82SAPS   H5X 7705   0.304   6.771   9.813 -0.4425  0.1061 -1.3944
   82SAPS   H5Y 7706   0.394   6.617   9.795 -1.2062  0.8232  2.0686
   82SAPS   C36 7707   0.416   6.763   9.639  0.1884 -0.1019 -0.3754
   82SAPS   H6X 7708   0.508   6.718   9.597  1.5020 -0.3826  2.5495
   82SAPS   H6Y 7709   0.418   6.873   9.624 -1.6674 -0.4876 -5.1194
   82SAPS   C37 7710   0.306   6.707   9.544 -0.2150 -0.9806  0.5339
   82SAPS   H7X 7711   0.212   6.759   9.569 -0.3441 -1.5116  1.1720
   82SAPS   H7Y 7712   0.297   6.597   9.555 -2.0585 -1.1246 -1.6622
   82SAPS   C38 7713   0.343   6.736   9.395  0.6407  0.3441  0.1171
   82SAPS   H8X 7714   0.441   6.687   9.375 -0.0465 -1.5752  1.1260
   82SAPS   H8Y 7715   0.344   6.845   9.379 -1.7341  0.4467  0.3225
   82SAPS   C39 7716   0.232   6.667   9.293 -0.6834 -0.5947  0.6406
   82SAPS   H9X 7717   0.136   6.712   9.325  0.6103  3.7321 -0.9701
   82SAPS   H9Y 7718   0.239   6.556   9.302 -2.4519 -0.7980 -0.1219
   82SAPS  C310 7719   0.239   6.702   9.144 -0.7273 -0.4496 -0.4824
   82SAPS  H10X 7720   0.146   6.657   9.103 -0.3409 -1.3552 -0.3785
   82SAPS  H10Y 7721   0.327   6.658   9.093 -0.5204 -0.4736 -0.1050
   82SAPS  C311 7722   0.247   6.849   9.112  0.0825 -0.3688 -0.3969
   82SAPS  H11X 7723   0.338   6.901   9.149 -0.5586  1.5184 -1.3384
   82SAPS  H11Y 7724   0.168   6.907   9.164 -0.7650 -1.9795  0.2102
   82SAPS  C312 7725   0.234   6.877   8.965 -0.3171  0.3624 -0.0521
   82SAPS  H12X 7726   0.131   6.850   8.932  0.3252 -3.0455  0.3835
   82SAPS  H12Y 7727   0.290   6.806   8.900  0.1229  2.0944 -1.6358
   82SAPS  C313 7728   0.257   7.022   8.923 -0.5394 -1.3382  0.2888
   82SAPS  H13X 7729   0.361   7.044   8.955  0.0315 -2.3232 -0.7903
   82SAPS  H13Y 7730   0.190   7.098   8.968  0.0634  0.3815 -1.5140
   82SAPS  C314 7731   0.264   7.046   8.770 -0.3813 -0.3410 -0.2889
   82SAPS  H14X 7732   0.334   6.975   8.721 -0.5540  0.6353 -2.0433
   82SAPS  H14Y 7733   0.298   7.152   8.766 -0.5104 -0.2573  0.5775
   82SAPS  C315 7734   0.125   7.023   8.700 -0.5198 -0.1966 -0.0257
   82SAPS  H15X 7735   0.055   7.106   8.726  0.5418  0.8371 -0.3769
   82SAPS  H15Y 7736   0.072   6.927   8.718 -1.2658  0.1839 -0.1097
   82SAPS  C316 7737   0.137   7.035   8.541  0.6104 -0.4485  0.3129
   82SAPS  H16X 7738   0.177   6.938   8.503 -0.3994 -0.5786 -0.4814
   82SAPS  H16Y 7739   0.200   7.116   8.499  2.4320 -0.8041  2.2138
   82SAPS  C317 7740  -0.008   7.056   8.487 -0.3220 -0.1551  1.0924
   82SAPS  H17X 7741  -0.046   7.155   8.521 -1.5376 -0.0722 -0.4449
   82SAPS  H17Y 7742  -0.067   6.966   8.514  1.0022 -0.6799  2.3891
   82SAPS  C318 7743  -0.013   7.085   8.326  0.0010  0.3958 -0.4941
   82SAPS  H18X 7744   0.038   6.993   8.291 -2.5699 -1.3664  0.0265
   82SAPS  H18Y 7745   0.045   7.177   8.306 -0.6388  1.3510  1.7197
   82SAPS  H18Z 7746  -0.119   7.089   8.291 -0.7047  0.6347  1.5277
   83SAPS     N 7747   1.686   1.537  11.135  0.1783 -0.2198 -0.4593
   83SAPS   HN1 7748   1.741   1.529  11.223  0.0094  0.3287 -0.3043
   83SAPS   HN2 7749   1.679   1.637  11.111 -3.8058 -0.0007  0.9527
   83SAPS   HN3 7750   1.590   1.499  11.146 -0.6152  2.1995  1.8680
   83SAPS   C12 7751   1.766   1.477  11.020 -0.6481  0.1673  0.1510
   83SAPS  H12A 7752   1.804   1.558  10.959  1.3816 -0.9694 -0.1484
   83SAPS   C13 7753   1.873   1.391  11.077 -0.5975  0.3277 -0.4901
   83SAPS  O13A 7754   1.888   1.371  11.199 -0.5948 -0.2777 -0.3429
   83SAPS  O13B 7755   1.943   1.324  10.994 -0.6543 -0.4540  0.2716
   83SAPS   C11 7756   1.676   1.388  10.934  0.2865 -0.3697 -0.4806
   83SAPS  H11A 7757   1.632   1.312  11.002 -0.3384  1.0627  0.7814
   83SAPS  H11B 7758   1.717   1.342  10.842 -2.4745  2.9256 -3.6538
   83SAPS     P 7759   1.426   1.437  10.918 -0.5413 -0.5203  0.2363
   83SAPS   O13 7760   1.396   1.294  10.887 -1.0299  0.1204  0.1757
   83SAPS   O14 7761   1.404   1.491  11.053  0.2068 -0.6224  0.1870
   83SAPS   O12 7762   1.573   1.475  10.888  0.1231  0.5466 -0.1560
   83SAPS   O11 7763   1.355   1.531  10.813  0.2654  0.1398 -0.0633
   83SAPS    C1 7764   1.401   1.637  10.735 -0.2885  0.0415 -0.1986
   83SAPS    HA 7765   1.329   1.722  10.745 -1.4146 -0.4153 -3.1779
   83SAPS    HB 7766   1.497   1.675  10.777  1.3795 -0.2084 -3.4235
   83SAPS    C2 7767   1.417   1.604  10.584 -0.2132 -0.7420  0.8558
   83SAPS    HS 7768   1.485   1.673  10.530 -0.6290 -0.5141  0.6304
   83SAPS   O21 7769   1.284   1.607  10.529  0.0905  0.4203 -0.6702
   83SAPS   C21 7770   1.236   1.719  10.487 -1.0185  0.5259  0.5032
   83SAPS   O22 7771   1.295   1.829  10.489  0.8344  0.1634 -0.4349
   83SAPS   C22 7772   1.107   1.706  10.426  0.9602 -0.1575  0.2512
   83SAPS   H2R 7773   1.053   1.629  10.485  1.8460 -1.1739 -0.2437
   83SAPS   H2S 7774   1.045   1.799  10.431 -1.7900 -1.9360  1.5868
   83SAPS    C3 7775   1.486   1.469  10.551 -0.4266  0.5051  0.1002
   83SAPS    HX 7776   1.414   1.388  10.572  0.5441 -0.3851  0.0709
   83SAPS    HY 7777   1.575   1.480  10.618 -2.0011  3.9854  1.9231
   83SAPS   O31 7778   1.534   1.471  10.417  0.6402  0.2527  0.3442
   83SAPS   C31 7779   1.616   1.365  10.379  0.0253  0.0494  0.2399
   83SAPS   O32 7780   1.650   1.273  10.453 -0.0889 -0.1311 -0.0983
   83SAPS   C32 7781   1.654   1.385  10.226  0.5259 -0.1293 -0.4734
   83SAPS   H2X 7782   1.580   1.459  10.189  0.3043 -0.6457 -1.0738
   83SAPS   H2Y 7783   1.620   1.293  10.173 -0.4156  0.4626 -0.9240
   83SAPS   C23 7784   1.105   1.647  10.279 -0.1021  0.4709 -0.4280
   83SAPS   H3R 7785   1.020   1.588  10.239  3.3073 -4.2530 -1.5122
   83SAPS   H3S 7786   1.189   1.576  10.273  1.0321  1.8796 -2.0045
   83SAPS   C24 7787   1.132   1.757  10.176  0.9055  0.0091 -0.0761
   83SAPS   H4R 7788   1.212   1.829  10.207  0.6475  0.7088 -0.9938
   83SAPS   H4S 7789   1.042   1.822  10.173  1.3438  0.6667  0.5141
   83SAPS   C25 7790   1.172   1.707  10.044  0.4199 -0.3132  0.1620
   83SAPS   H5R 7791   1.277   1.688  10.021 -0.1198 -2.3733 -0.8713
   83SAPS   C26 7792   1.089   1.682   9.940  0.1188 -0.3460 -0.2414
   83SAPS   H6R 7793   1.131   1.648   9.844  1.4656 -4.0159  1.4706
   83SAPS   C27 7794   0.940   1.701   9.935 -0.0743  0.0606  0.3702
   83SAPS   H7R 7795   0.927   1.789   9.870  0.9684  0.9351  1.2912
   83SAPS   H7S 7796   0.904   1.723  10.038 -1.7789  1.7292 -0.5479
   83SAPS   C28 7797   0.873   1.584   9.880  0.9097  0.1729 -0.2148
   83SAPS   H8R 7798   0.816   1.524   9.953  2.0452  1.7663  2.1132
   83SAPS   C29 7799   0.872   1.545   9.747  0.0336  0.4044  0.0893
   83SAPS   H9R 7800   0.825   1.446   9.737  0.5091  0.0070  1.5846
   83SAPS  C210 7801   0.948   1.611   9.635  0.6694 -0.8895 -0.0642
   83SAPS  H10R 7802   1.055   1.591   9.659  0.2155 -0.7904  2.2443
   83SAPS  H10S 7803   0.947   1.722   9.644 -2.2768 -0.7487 -1.0634
   83SAPS  C211 7804   0.915   1.578   9.492  0.1561  0.0305 -0.0531
   83SAPS  H11R 7805   0.840   1.639   9.438  1.2875  1.0419 -0.5245
   83SAPS  C212 7806   0.952   1.466   9.426 -0.7223 -0.9563 -0.3176
   83SAPS  H12R 7807   0.912   1.447   9.325  1.2220  1.7641 -1.7214
   83SAPS  C213 7808   1.033   1.359   9.497  0.3337  0.0746 -0.1195
   83SAPS  H13R 7809   1.035   1.373   9.607  0.2557  0.3733 -0.1547
   83SAPS  H13S 7810   1.141   1.368   9.473  0.2173 -0.8974 -1.0888
   83SAPS  C214 7811   0.985   1.221   9.460 -0.0790 -0.8096  0.9158
   83SAPS  H14R 7812   0.985   1.204   9.351 -0.4816 -0.7255  0.9013
   83SAPS  C215 7813   0.942   1.124   9.552 -0.1817 -0.8745  0.0818
   83SAPS  H15R 7814   0.909   1.025   9.520  1.8937 -1.2053 -1.1833
   83SAPS  C216 7815   0.940   1.128   9.705 -0.2332 -0.2144  0.2460
   83SAPS  H16R 7816   1.016   1.206   9.724 -2.0382  1.4433  1.0733
   83SAPS  H16S 7817   0.984   1.037   9.749  2.8336  1.2722  0.4862
   83SAPS  C217 7818   0.809   1.160   9.776  0.4465  0.2246  0.5618
   83SAPS  H17R 7819   0.742   1.072   9.771 -0.5073  0.9625 -3.2199
   83SAPS  H17S 7820   0.751   1.235   9.719 -1.8845 -1.9624 -0.1510
   83SAPS  C218 7821   0.841   1.213   9.916 -0.0500 -0.0393 -0.7436
   83SAPS  H18R 7822   0.905   1.303   9.902  1.0869 -0.4860  1.1525
   83SAPS  H18S 7823   0.903   1.143   9.976 -0.6737  0.5919  0.7149
   83SAPS  C219 7824   0.719   1.239  10.011  0.0656  0.2054  0.8235
   83SAPS  H19R 7825   0.658   1.146  10.012  0.2146  0.0410 -1.1421
   83SAPS  H19S 7826   0.657   1.318   9.963 -1.8907 -0.7955  1.5984
   83SAPS  C220 7827   0.764   1.281  10.143  0.2178 -0.0315 -0.3657
   83SAPS  H20R 7828   0.829   1.370  10.134  3.5816 -2.0593  1.6975
   83SAPS  H20S 7829   0.829   1.205  10.192  0.0637 -0.0141 -0.1308
   83SAPS  H20T 7830   0.675   1.302  10.207  1.0616 -0.3796  0.9691
   83SAPS   C33 7831   1.807   1.422  10.200 -0.0396  0.5118  0.3420
   83SAPS   H3X 7832   1.866   1.327  10.199 -0.5963  0.1477 -1.3978
   83SAPS   H3Y 7833   1.849   1.497  10.270  1.9389  1.3492 -1.6029
   83SAPS   C34 7834   1.811   1.491  10.059 -0.3711 -0.2286  0.4968
   83SAPS   H4X 7835   1.914   1.530  10.040  0.4177 -0.4176  3.7819
   83SAPS   H4Y 7836   1.733   1.570  10.072 -0.4017 -0.3306  0.9224
   83SAPS   C35 7837   1.760   1.404   9.946  0.0448 -0.1228  0.1271
   83SAPS   H5X 7838   1.649   1.409   9.943  0.0709  1.2322  0.7351
   83SAPS   H5Y 7839   1.791   1.299   9.968  2.2650  0.5226  0.3046
   83SAPS   C36 7840   1.804   1.457   9.810 -0.4519  0.0379 -0.5677
   83SAPS   H6X 7841   1.816   1.567   9.824 -2.1527  0.1810  0.0610
   83SAPS   H6Y 7842   1.727   1.455   9.730 -0.0695 -0.2179 -0.9293
   83SAPS   C37 7843   1.946   1.399   9.766  0.8813  0.7517  0.3824
   83SAPS   H7X 7844   2.009   1.394   9.858 -0.4727 -2.3561  1.3045
   83SAPS   H7Y 7845   1.981   1.473   9.691  2.2228 -0.1782  0.0567
   83SAPS   C38 7846   1.939   1.255   9.708  0.3782  0.4666 -0.4818
   83SAPS   H8X 7847   1.836   1.213   9.699  0.1140  1.0437 -0.1650
   83SAPS   H8Y 7848   1.989   1.191   9.785 -0.4332 -0.6728 -0.8741
   83SAPS   C39 7849   2.013   1.252   9.573 -0.1444 -0.3607  0.2867
   83SAPS   H9X 7850   2.121   1.263   9.598 -0.2751  0.9984  0.3729
   83SAPS   H9Y 7851   1.987   1.341   9.511 -1.3257 -1.1629 -0.4084
   83SAPS  C310 7852   1.991   1.123   9.499  0.8428  0.1677 -0.1383
   83SAPS  H10X 7853   1.886   1.129   9.465  0.9451  2.0752 -0.2671
   83SAPS  H10Y 7854   2.012   1.040   9.569  0.0473 -1.0729 -1.3362
   83SAPS  C311 7855   2.081   1.107   9.381 -0.0676 -0.6964  0.0842
   83SAPS  H11X 7856   2.059   1.012   9.327 -0.3222  0.5538 -2.1085
   83SAPS  H11Y 7857   2.176   1.090   9.436 -0.8388 -0.4380  1.5642
   83SAPS  C312 7858   2.080   1.225   9.282  0.0981 -0.0702  0.4612
   83SAPS  H12X 7859   2.181   1.271   9.285  0.5707 -1.0640  0.1538
   83SAPS  H12Y 7860   2.004   1.305   9.297 -0.5778 -1.2991  5.0682
   83SAPS  C313 7861   2.076   1.176   9.134  0.3922  0.2673 -0.2377
   83SAPS  H13X 7862   1.988   1.109   9.119 -0.7979  1.0915  2.3570
   83SAPS  H13Y 7863   2.169   1.123   9.107  1.0480  0.9604  0.6087
   83SAPS  C314 7864   2.063   1.284   9.034 -0.7516 -0.0608  0.1069
   83SAPS  H14X 7865   2.143   1.358   9.056 -1.7838  0.7998  1.1328
   83SAPS  H14Y 7866   1.974   1.349   9.049 -0.0909  0.5229  1.8324
   83SAPS  C315 7867   2.069   1.240   8.888 -0.4234 -0.2183 -0.2673
   83SAPS  H15X 7868   2.135   1.155   8.857  1.3595  1.2994 -0.8112
   83SAPS  H15Y 7869   2.096   1.328   8.826  1.0067  0.0450  0.6890
   83SAPS  C316 7870   1.928   1.194   8.844  0.4512 -0.8836 -0.0684
   83SAPS  H16X 7871   1.863   1.280   8.866 -1.7558 -2.4582 -0.0703
   83SAPS  H16Y 7872   1.890   1.112   8.909  1.2022  0.0024  1.5562
   83SAPS  C317 7873   1.910   1.161   8.694  0.2856  0.1345  0.0764
   83SAPS  H17X 7874   1.996   1.095   8.670 -0.4086 -0.8904  0.3514
   83SAPS  H17Y 7875   1.906   1.255   8.634 -0.5814  0.5317  0.7239
   83SAPS  C318 7876   1.769   1.091   8.674 -0.0653  1.1767 -0.0601
   83SAPS  H18X 7877   1.691   1.146   8.731  0.2237  0.5683  0.9648
   83SAPS  H18Y 7878   1.783   0.994   8.728  1.9477  0.0568 -2.3849
   83SAPS  H18Z 7879   1.738   1.065   8.571 -0.9710  2.1898 -0.0495
   84SAPS     N 7880   1.741   0.111  11.420  0.3541  0.4420  0.3464
   84SAPS   HN1 7881   1.642   0.111  11.387  0.3251  1.4373  0.3945
   84SAPS   HN2 7882   1.746   0.129  11.522 -0.6972  1.7640  0.1956
   84SAPS   HN3 7883   1.784   0.188  11.364  1.1634 -0.6245 -0.5462
   84SAPS   C12 7884   1.815  -0.027  11.403  0.1723 -0.4564 -0.8973
   84SAPS  H12A 7885   1.912  -0.012  11.359  0.2540  1.0168 -0.2757
   84SAPS   C13 7886   1.839  -0.102  11.532  0.1988 -0.0570 -0.1958
   84SAPS  O13A 7887   1.808  -0.050  11.644 -0.2577 -0.3939  0.4216
   84SAPS  O13B 7888   1.895  -0.213  11.532 -0.2512  0.2976  0.4440
   84SAPS   C11 7889   1.737  -0.123  11.310  0.4368 -0.0963 -0.4773
   84SAPS  H11A 7890   1.634  -0.145  11.346  0.4832  1.0612  0.4110
   84SAPS  H11B 7891   1.782  -0.224  11.323  0.0878  0.0512  2.6249
   84SAPS     P 7892   1.761  -0.144  11.048 -0.1584  0.2847 -0.1837
   84SAPS   O13 7893   1.902  -0.186  11.062 -0.5476  0.5971 -0.2797
   84SAPS   O14 7894   1.670  -0.259  11.017  0.0989 -0.2948  0.1319
   84SAPS   O12 7895   1.717  -0.070  11.178  0.0479  0.0851 -0.1073
   84SAPS   O11 7896   1.752  -0.030  10.935  0.3025  0.1558 -0.4646
   84SAPS    C1 7897   1.718  -0.066  10.797  0.5735 -0.0240 -0.1463
   84SAPS    HA 7898   1.784  -0.144  10.751  0.1227 -0.9818  0.7912
   84SAPS    HB 7899   1.620  -0.119  10.797 -0.0007  0.9889 -1.3949
   84SAPS    C2 7900   1.708   0.064  10.711  0.3917  0.0479 -0.2175
   84SAPS    HS 7901   1.608   0.059  10.662  0.4364 -1.0054 -0.2261
   84SAPS   O21 7902   1.820   0.074  10.621 -0.4666 -0.2002 -0.4693
   84SAPS   C21 7903   1.812  -0.013  10.525  0.5072  0.5426  0.2688
   84SAPS   O22 7904   1.709  -0.065  10.485 -0.1606  0.4052  0.5827
   84SAPS   C22 7905   1.948  -0.027  10.460  0.2276  0.2726  0.1068
   84SAPS   H2R 7906   1.958   0.046  10.377  1.1337  0.3061  0.2384
   84SAPS   H2S 7907   2.025  -0.010  10.538 -1.2123 -0.2182  1.7087
   84SAPS    C3 7908   1.687   0.182  10.808  0.1691  0.1536 -0.8728
   84SAPS    HX 7909   1.774   0.197  10.876 -0.0347 -1.9386 -0.0624
   84SAPS    HY 7910   1.607   0.143  10.875 -0.1434  0.7152 -0.9202
   84SAPS   O31 7911   1.639   0.295  10.736 -0.1845 -0.0638 -0.6295
   84SAPS   C31 7912   1.730   0.373  10.678  0.0401  0.5874  0.7211
   84SAPS   O32 7913   1.851   0.368  10.699  0.1254  0.4582 -0.1052
   84SAPS   C32 7914   1.658   0.465  10.581 -0.3186 -0.5783 -0.4985
   84SAPS   H2X 7915   1.672   0.561  10.635  0.9745 -0.7722 -0.4436
   84SAPS   H2Y 7916   1.550   0.439  10.582 -0.9735  1.8918  0.6592
   84SAPS   C23 7917   1.961  -0.166  10.399 -0.1761 -0.0195  0.1088
   84SAPS   H3R 7918   1.887  -0.171  10.317  2.2064 -1.5448 -2.1014
   84SAPS   H3S 7919   1.937  -0.251  10.466  0.1357  1.8039  2.6839
   84SAPS   C24 7920   2.104  -0.199  10.334  0.5815 -0.1512 -1.0840
   84SAPS   H4R 7921   2.104  -0.291  10.272  1.5808 -0.1715 -1.0604
   84SAPS   H4S 7922   2.173  -0.205  10.421 -1.4285  0.6765  0.6662
   84SAPS   C25 7923   2.147  -0.088  10.243 -0.6190  0.2185  0.5302
   84SAPS   H5R 7924   2.151   0.008  10.296  0.1749  0.3537  0.2355
   84SAPS   C26 7925   2.191  -0.089  10.112  1.0234  0.2721 -0.3653
   84SAPS   H6R 7926   2.228   0.003  10.064  2.3958 -0.4069 -0.6488
   84SAPS   C27 7927   2.206  -0.200  10.014  0.5507 -0.3715  0.7770
   84SAPS   H7R 7928   2.128  -0.193   9.936  1.5693  3.2096 -0.1018
   84SAPS   H7S 7929   2.188  -0.293  10.072 -3.2506 -1.6099 -2.0328
   84SAPS   C28 7930   2.344  -0.203   9.956  0.2651 -0.0760 -0.6860
   84SAPS   H8R 7931   2.404  -0.260  10.028 -2.7814 -0.4994  1.7465
   84SAPS   C29 7932   2.389  -0.178   9.837 -0.4225 -0.3361  0.0336
   84SAPS   H9R 7933   2.499  -0.180   9.835 -0.4156 -1.9094  1.1111
   84SAPS  C210 7934   2.318  -0.131   9.713  0.0254  0.0275 -0.0993
   84SAPS  H10R 7935   2.273  -0.032   9.736 -0.1391  0.2209 -1.1930
   84SAPS  H10S 7936   2.227  -0.191   9.692  0.0778  0.1777 -0.7711
   84SAPS  C211 7937   2.412  -0.106   9.598  0.1473  0.2922 -0.3050
   84SAPS  H11R 7938   2.518  -0.087   9.620 -0.4465  0.5473  2.6560
   84SAPS  C212 7939   2.368  -0.091   9.468  0.3587 -0.4362  0.3074
   84SAPS  H12R 7940   2.442  -0.089   9.386 -0.6508 -1.0104 -0.6442
   84SAPS  C213 7941   2.227  -0.107   9.424 -0.0473  0.8199 -0.6121
   84SAPS  H13R 7942   2.203  -0.039   9.340  1.6135  2.2674  0.0255
   84SAPS  H13S 7943   2.153  -0.074   9.501  0.5792  0.2126  0.2792
   84SAPS  C214 7944   2.208  -0.252   9.372 -0.4479 -0.5895  0.2555
   84SAPS  H14R 7945   2.245  -0.328   9.442 -0.7216  0.5946  1.7247
   84SAPS  C215 7946   2.167  -0.293   9.255 -0.1415  0.4006  0.0139
   84SAPS  H15R 7947   2.147  -0.400   9.238 -2.1218  0.9936 -1.9121
   84SAPS  C216 7948   2.108  -0.211   9.143  0.7167 -0.2161 -0.9236
   84SAPS  H16R 7949   2.134  -0.103   9.152  1.2698 -0.3598 -0.8051
   84SAPS  H16S 7950   1.997  -0.222   9.141  0.8038 -2.1888  1.4177
   84SAPS  C217 7951   2.170  -0.250   9.011  0.2332  0.0895  0.0167
   84SAPS  H17R 7952   2.147  -0.357   8.995  1.1696 -0.4770  2.1697
   84SAPS  H17S 7953   2.279  -0.234   8.997  0.2582 -1.3350 -1.8606
   84SAPS  C218 7954   2.101  -0.178   8.885 -0.3638  0.2352  0.0532
   84SAPS  H18R 7955   2.160  -0.083   8.881 -1.1727  0.7441  0.0095
   84SAPS  H18S 7956   1.995  -0.147   8.898 -0.0381  2.7675 -2.2864
   84SAPS  C219 7957   2.121  -0.257   8.755  0.3768  0.1491 -0.3841
   84SAPS  H19R 7958   2.103  -0.191   8.667 -0.6799  2.6655  1.6083
   84SAPS  H19S 7959   2.053  -0.345   8.752  0.9297 -0.3326  0.6557
   84SAPS  C220 7960   2.265  -0.310   8.740  0.2006  1.0110 -0.4482
   84SAPS  H20R 7961   2.292  -0.355   8.642 -0.3381  0.8923 -0.5465
   84SAPS  H20S 7962   2.295  -0.388   8.814  0.1189 -0.3336 -1.7741
   84SAPS  H20T 7963   2.337  -0.227   8.755 -0.2889  1.8634 -2.4657
   84SAPS   C33 7964   1.728   0.473  10.449  0.5854 -0.9194 -0.6122
   84SAPS   H3X 7965   1.833   0.500  10.470  0.4125 -0.8722  0.2133
   84SAPS   H3Y 7966   1.674   0.546  10.384  1.2034 -0.2663 -0.4129
   84SAPS   C34 7967   1.728   0.340  10.379  0.3295 -0.1625  0.0385
   84SAPS   H4X 7968   1.633   0.284  10.395 -0.2668  0.0615 -2.2581
   84SAPS   H4Y 7969   1.806   0.268  10.410  1.0666  1.5258  2.3746
   84SAPS   C35 7970   1.742   0.342  10.224 -0.4562 -0.7967 -0.4719
   84SAPS   H5X 7971   1.831   0.397  10.187 -0.9623 -0.2904 -0.9581
   84SAPS   H5Y 7972   1.660   0.406  10.185  1.7427  2.1244 -0.6026
   84SAPS   C36 7973   1.747   0.205  10.164 -0.1253 -0.5464  0.7932
   84SAPS   H6X 7974   1.658   0.145  10.193 -0.1739 -0.5752  0.5885
   84SAPS   H6Y 7975   1.838   0.159  10.209 -1.1448 -1.7248  1.7163
   84SAPS   C37 7976   1.754   0.209  10.005  0.4320 -0.2260  0.0727
   84SAPS   H7X 7977   1.847   0.259   9.974 -0.0848  0.6970 -0.0326
   84SAPS   H7Y 7978   1.669   0.274   9.975  0.4926 -0.6564 -1.0667
   84SAPS   C38 7979   1.743   0.073   9.943  0.3344 -0.3970  0.1887
   84SAPS   H8X 7980   1.734  -0.004  10.021  3.1501 -0.9954  0.0298
   84SAPS   H8Y 7981   1.833   0.046   9.883 -1.2295 -3.5765 -0.9349
   84SAPS   C39 7982   1.620   0.059   9.844 -0.0857 -0.3671 -0.4159
   84SAPS   H9X 7983   1.644   0.128   9.760  0.1420  1.5447  1.1388
   84SAPS   H9Y 7984   1.526   0.099   9.888  0.4534 -1.1556  1.5470
   84SAPS  C310 7985   1.611  -0.088   9.804 -0.2077 -0.2606  1.0440
   84SAPS  H10X 7986   1.639  -0.161   9.884  3.0778  0.5797  0.7981
   84SAPS  H10Y 7987   1.680  -0.106   9.719  0.8920  0.9259  1.6542
   84SAPS  C311 7988   1.465  -0.123   9.761  0.0785 -0.3653 -0.0424
   84SAPS  H11X 7989   1.383  -0.130   9.836 -2.0129  1.1766 -2.0710
   84SAPS  H11Y 7990   1.468  -0.226   9.720  0.4311 -0.4355  0.1477
   84SAPS  C312 7991   1.408  -0.029   9.646 -0.1614  0.0301  0.4045
   84SAPS  H12X 7992   1.490   0.002   9.578  0.0904 -0.5589  0.4325
   84SAPS  H12Y 7993   1.376   0.065   9.696 -1.9992  0.4945 -1.4659
   84SAPS  C313 7994   1.298  -0.085   9.550 -0.0694  0.3273  0.7295
   84SAPS  H13X 7995   1.203  -0.056   9.601 -0.5206 -0.0527  0.1274
   84SAPS  H13Y 7996   1.302  -0.194   9.527 -2.0390  0.9697 -3.5687
   84SAPS  C314 7997   1.289  -0.010   9.417 -0.4085  0.5198 -0.4341
   84SAPS  H14X 7998   1.342   0.086   9.433 -1.9431  0.8539  3.7040
   84SAPS  H14Y 7999   1.180  -0.003   9.395 -0.1813  0.1984 -1.7493
   84SAPS  C315 8000   1.358  -0.086   9.295 -0.2216  0.4321 -0.0993
   84SAPS  H15X 8001   1.297  -0.175   9.270 -2.2043  1.0800  2.0021
   84SAPS  H15Y 8002   1.464  -0.116   9.307 -0.8651 -1.8576  0.3751
   84SAPS  C316 8003   1.335   0.010   9.179 -0.1912 -0.7300 -0.5390
   84SAPS  H16X 8004   1.391   0.104   9.198 -0.2105 -0.7019 -0.6192
   84SAPS  H16Y 8005   1.229   0.043   9.176 -0.9420 -2.4393  2.5949
   84SAPS  C317 8006   1.353  -0.048   9.044 -0.1462 -0.0426  0.6222
   84SAPS  H17X 8007   1.302  -0.140   9.007 -0.4901  0.8326 -1.1770
   84SAPS  H17Y 8008   1.459  -0.082   9.031 -0.9493 -2.4757 -0.2208
   84SAPS  C318 8009   1.314   0.055   8.937 -0.1976 -0.2219 -0.3709
   84SAPS  H18X 8010   1.224   0.115   8.964  0.3370  0.8512 -0.9207
   84SAPS  H18Y 8011   1.290   0.003   8.842  1.9437  0.7318 -1.5101
   84SAPS  H18Z 8012   1.399   0.125   8.923 -1.0292  0.5532 -1.7641
   85SAPS     N 8013   6.704   2.224  10.936 -0.1550  0.0324 -0.3806
   85SAPS   HN1 8014   6.699   2.274  10.845 -1.3794 -3.0806 -2.1787
   85SAPS   HN2 8015   6.666   2.128  10.925  0.1900 -0.0736 -0.6511
   85SAPS   HN3 8016   6.648   2.258  11.016  1.0887 -0.3349  0.6886
   85SAPS   C12 8017   6.844   2.216  10.989 -0.4412  0.0904  0.0009
   85SAPS  H12A 8018   6.888   2.313  10.976 -0.3962  0.3351  1.7058
   85SAPS   C13 8019   6.855   2.182  11.140  0.7874  0.0990 -0.2709
   85SAPS  O13A 8020   6.749   2.175  11.200 -0.6971 -0.2515 -0.5541
   85SAPS  O13B 8021   6.963   2.196  11.201  0.0521 -0.5714 -0.1620
   85SAPS   C11 8022   6.910   2.092  10.914 -0.3870  0.0292  0.6922
   85SAPS  H11A 8023   6.996   2.074  10.982 -0.1094 -0.3770  0.2356
   85SAPS  H11B 8024   6.948   2.133  10.818 -0.1544 -0.0595  0.7450
   85SAPS     P 8025   6.836   1.878  10.762 -0.2996 -0.1738 -0.2223
   85SAPS   O13 8026   6.964   1.900  10.695  0.1617 -0.8579  0.4507
   85SAPS   O14 8027   6.802   1.736  10.794 -0.0048 -0.3638 -0.2133
   85SAPS   O12 8028   6.833   1.974  10.898 -0.2818  0.5720  0.3573
   85SAPS   O11 8029   6.714   1.938  10.683 -0.4792  0.1849  0.2659
   85SAPS    C1 8030   6.724   2.068  10.621  0.3438 -0.1113 -0.2362
   85SAPS    HA 8031   6.643   2.138  10.652 -0.7561 -1.5163  0.1643
   85SAPS    HB 8032   6.818   2.126  10.639 -0.3917  1.1638 -0.3671
   85SAPS    C2 8033   6.696   2.043  10.472  0.1069  0.2421 -0.2065
   85SAPS    HS 8034   6.688   2.145  10.428  0.4412  1.6250  2.6963
   85SAPS   O21 8035   6.584   1.955  10.452  0.5746  0.3380  0.4819
   85SAPS   C21 8036   6.467   2.012  10.459  0.1294  0.0444 -0.5039
   85SAPS   O22 8037   6.443   2.131  10.478 -0.1022 -0.3711 -0.0531
   85SAPS   C22 8038   6.355   1.918  10.423  0.4411  0.2759 -0.1655
   85SAPS   H2R 8039   6.395   1.847  10.347  1.2380 -1.8464  2.0717
   85SAPS   H2S 8040   6.318   1.859  10.510 -0.0148 -0.9642 -1.1505
   85SAPS    C3 8041   6.817   1.964  10.410 -0.7414 -0.2962  0.3292
   85SAPS    HX 8042   6.804   1.864  10.457 -2.6130 -0.2673 -0.0451
   85SAPS    HY 8043   6.898   2.027  10.450 -2.1608  1.4826  0.5346
   85SAPS   O31 8044   6.813   1.960  10.267 -0.8546  0.1008  0.0198
   85SAPS   C31 8045   6.902   2.032  10.198 -1.5932  1.3437 -0.3810
   85SAPS   O32 8046   6.962   2.125  10.244  0.1474 -0.2502  0.4970
   85SAPS   C32 8047   6.907   1.987  10.057 -0.1117 -0.3122  0.7022
   85SAPS   H2X 8048   6.814   1.937  10.019  0.8904 -0.3153 -1.9821
   85SAPS   H2Y 8049   6.995   1.920  10.046  3.1021  3.1851  2.9975
   85SAPS   C23 8050   6.225   1.986  10.361  0.8025  0.3911 -0.4849
   85SAPS   H3R 8051   6.186   2.045  10.447 -0.7024  0.0362 -0.9079
   85SAPS   H3S 8052   6.149   1.911  10.332 -1.0280  1.4900  1.2165
   85SAPS   C24 8053   6.261   2.077  10.246  0.3504 -0.4344 -0.0123
   85SAPS   H4R 8054   6.314   2.019  10.167 -2.1662  0.3128 -2.4263
   85SAPS   H4S 8055   6.332   2.158  10.274 -0.9691  0.6672  0.2590
   85SAPS   C25 8056   6.142   2.141  10.178  0.0522  0.6219 -0.2876
   85SAPS   H5R 8057   6.057   2.170  10.241 -2.1532 -1.5985 -2.0408
   85SAPS   C26 8058   6.124   2.160  10.052  0.0692  0.3301  0.1996
   85SAPS   H6R 8059   6.024   2.196  10.022 -1.5571 -2.4131  1.9726
   85SAPS   C27 8060   6.207   2.121   9.935  0.3403  0.5606 -0.0964
   85SAPS   H7R 8061   6.314   2.146   9.954 -0.0312  0.7233  1.9361
   85SAPS   H7S 8062   6.179   2.186   9.849  2.8739  2.1344  0.1607
   85SAPS   C28 8063   6.217   1.977   9.895 -0.0669  0.2841 -0.1918
   85SAPS   H8R 8064   6.178   1.902   9.966  0.9827 -1.2174 -1.1332
   85SAPS   C29 8065   6.259   1.927   9.773 -1.2015  0.5166  0.3814
   85SAPS   H9R 8066   6.274   1.821   9.748  1.5780  0.7967  0.5597
   85SAPS  C210 8067   6.302   2.010   9.658 -0.3299  0.1727  0.5817
   85SAPS  H10R 8068   6.411   2.031   9.670 -0.3456  0.0633  0.9246
   85SAPS  H10S 8069   6.260   2.113   9.650 -1.6253 -0.3804  0.0830
   85SAPS  C211 8070   6.270   1.943   9.526  0.3244 -0.1213  0.5109
   85SAPS  H11R 8071   6.210   1.851   9.533 -1.6857  0.9361 -1.4768
   85SAPS  C212 8072   6.315   1.971   9.402 -0.4966  0.2410  0.3830
   85SAPS  H12R 8073   6.276   1.913   9.317  1.3994 -0.2344 -0.2081
   85SAPS  C213 8074   6.411   2.077   9.348 -0.3002 -0.7716 -0.2117
   85SAPS  H13R 8075   6.377   2.180   9.372 -0.7884 -0.5816 -1.6068
   85SAPS  H13S 8076   6.401   2.078   9.237  0.2608 -0.0227 -0.2622
   85SAPS  C214 8077   6.553   2.058   9.386  0.1220  0.8962  0.4197
   85SAPS  H14R 8078   6.566   2.048   9.495 -2.2137 -0.5948  0.6235
   85SAPS  C215 8079   6.658   2.029   9.306 -0.2849 -0.7510  0.5889
   85SAPS  H15R 8080   6.756   2.012   9.354  0.6379 -1.6016 -1.4871
   85SAPS  C216 8081   6.661   2.020   9.152 -0.2001  0.1833  0.2798
   85SAPS  H16R 8082   6.611   2.110   9.111  2.1456  0.7465 -1.5748
   85SAPS  H16S 8083   6.597   1.937   9.117 -2.7502  2.1043  0.1572
   85SAPS  C217 8084   6.807   2.016   9.104 -0.0668  0.1029  0.2310
   85SAPS  H17R 8085   6.875   1.961   9.173 -2.5834 -0.5407  2.3307
   85SAPS  H17S 8086   6.838   2.121   9.084 -1.9012  0.5682 -0.3972
   85SAPS  C218 8087   6.821   1.933   8.977  0.2242 -0.2182  0.7100
   85SAPS  H18R 8088   6.749   1.972   8.902  1.0108 -0.9645 -0.4645
   85SAPS  H18S 8089   6.789   1.830   9.003 -1.5990 -0.0431 -0.5736
   85SAPS  C219 8090   6.967   1.931   8.934 -0.3847 -0.2352 -0.4732
   85SAPS  H19R 8091   7.001   1.825   8.927  0.3017  0.0241 -1.1271
   85SAPS  H19S 8092   7.028   1.960   9.023 -2.2592  0.2342  0.7182
   85SAPS  C220 8093   7.000   2.008   8.816  1.2660  0.5836  0.0544
   85SAPS  H20R 8094   6.923   1.971   8.745 -0.2736 -0.7420  2.3011
   85SAPS  H20S 8095   7.102   1.995   8.773  1.4869 -0.1199  0.7595
   85SAPS  H20T 8096   6.985   2.116   8.837 -1.0849  0.0550  1.4112
   85SAPS   C33 8097   6.934   2.115   9.971 -0.1878 -0.1252  0.1688
   85SAPS   H3X 8098   7.023   2.167  10.012 -0.9429  0.7947  0.6834
   85SAPS   H3Y 8099   6.853   2.189   9.984 -0.0684  0.3018 -1.3816
   85SAPS   C34 8100   6.942   2.075   9.825  0.1658  0.3152 -0.1031
   85SAPS   H4X 8101   6.844   2.034   9.794  0.1080 -1.1480  1.8529
   85SAPS   H4Y 8102   7.010   1.990   9.804  1.2449  1.1805 -0.2204
   85SAPS   C35 8103   6.983   2.186   9.727 -0.1099 -0.6357  0.9312
   85SAPS   H5X 8104   7.087   2.216   9.751 -0.2258  2.0952 -1.5163
   85SAPS   H5Y 8105   6.921   2.277   9.734 -2.5418 -1.9924 -1.1033
   85SAPS   C36 8106   6.973   2.151   9.578  0.7068  0.0316 -0.2718
   85SAPS   H6X 8107   6.868   2.125   9.555  0.3655  0.7965  0.3944
   85SAPS   H6Y 8108   7.027   2.055   9.559  1.9916  0.8002 -0.6251
   85SAPS   C37 8109   7.028   2.258   9.485  0.6268 -0.0087  0.6202
   85SAPS   H7X 8110   7.100   2.319   9.544  1.0973  1.1582 -1.0871
   85SAPS   H7Y 8111   6.941   2.318   9.452  1.4793  0.7446 -0.3402
   85SAPS   C38 8112   7.088   2.205   9.355 -0.0884  0.1189 -0.1528
   85SAPS   H8X 8113   7.045   2.108   9.320  0.2766  0.4406 -1.5897
   85SAPS   H8Y 8114   7.194   2.175   9.369  0.5384  2.2028 -0.1128
   85SAPS   C39 8115   7.070   2.312   9.243 -0.7266  0.0447  0.2729
   85SAPS   H9X 8116   7.109   2.405   9.288  0.8389 -0.3851 -0.1262
   85SAPS   H9Y 8117   6.964   2.325   9.211 -1.3430  2.9209  2.9833
   85SAPS  C310 8118   7.142   2.274   9.111 -0.0257 -0.8027  0.3460
   85SAPS  H10X 8119   7.080   2.201   9.054 -1.7913  2.2708 -1.9488
   85SAPS  H10Y 8120   7.244   2.237   9.135 -0.6604 -1.2916  2.5494
   85SAPS  C311 8121   7.140   2.392   9.013  0.1867  0.4317  0.5823
   85SAPS  H11X 8122   7.127   2.485   9.072 -1.3663  1.6315 -1.5174
   85SAPS  H11Y 8123   7.044   2.389   8.956  0.2312 -0.0885  0.5297
   85SAPS  C312 8124   7.263   2.404   8.927  0.1324  0.3562 -0.4180
   85SAPS  H12X 8125   7.351   2.407   8.995  0.6737 -0.7975 -1.0261
   85SAPS  H12Y 8126   7.254   2.500   8.871  1.9477  1.7178  1.4531
   85SAPS  C313 8127   7.257   2.295   8.823 -1.3666  0.8754 -0.3044
   85SAPS  H13X 8128   7.150   2.290   8.795 -1.9625 -0.5689  1.9498
   85SAPS  H13Y 8129   7.282   2.197   8.869  0.1088  1.4682  0.2095
   85SAPS  C314 8130   7.356   2.323   8.707  0.2026 -0.1559 -0.2783
   85SAPS  H14X 8131   7.425   2.405   8.738  0.1492  0.4020 -1.5697
   85SAPS  H14Y 8132   7.307   2.373   8.621  3.5167  1.2549 -1.5377
   85SAPS  C315 8133   7.438   2.196   8.672  0.2761 -0.2034 -0.0455
   85SAPS  H15X 8134   7.470   2.160   8.773  1.3300 -1.1602 -0.7005
   85SAPS  H15Y 8135   7.529   2.231   8.619  1.5406 -1.5515  1.1361
   85SAPS  C316 8136   7.364   2.078   8.605 -0.2104 -1.0255 -0.3449
   85SAPS  H16X 8137   7.386   2.086   8.496  1.6776 -0.0209  0.0677
   85SAPS  H16Y 8138   7.258   2.099   8.630  0.1032  0.5769 -0.2420
   85SAPS  C317 8139   7.407   1.938   8.651 -0.0289 -0.2810 -0.4099
   85SAPS  H17X 8140   7.388   1.939   8.760 -1.6093 -1.5821 -0.6428
   85SAPS  H17Y 8141   7.517   1.925   8.637  0.5402  2.6687  0.6686
   85SAPS  C318 8142   7.337   1.827   8.581  1.0279 -0.1005  0.3041
   85SAPS  H18X 8143   7.414   1.751   8.560  0.1912 -0.3372 -2.4042
   85SAPS  H18Y 8144   7.287   1.857   8.486 -1.9152 -1.0511  1.4521
   85SAPS  H18Z 8145   7.257   1.780   8.642  0.7230  0.0430  0.0238
   86SAPS     N 8146   2.294   2.007  10.961  0.0005  0.3056 -0.0583
   86SAPS   HN1 8147   2.350   1.931  10.916 -2.9793 -1.6077 -0.7589
   86SAPS   HN2 8148   2.278   1.990  11.062 -0.0105 -0.6864 -0.2105
   86SAPS   HN3 8149   2.196   2.007  10.928 -0.2079  0.7112  0.5487
   86SAPS   C12 8150   2.356   2.136  10.952 -0.3390 -0.5202 -0.3895
   86SAPS  H12A 8151   2.379   2.161  10.849  1.5402  0.4216  0.2014
   86SAPS   C13 8152   2.262   2.251  10.996  0.3812  0.3206 -0.1998
   86SAPS  O13A 8153   2.137   2.228  11.012 -0.3587  0.7970 -0.1098
   86SAPS  O13B 8154   2.311   2.368  10.994 -0.2284  0.2990  0.4960
   86SAPS   C11 8155   2.490   2.143  11.035 -0.4922  0.2328  0.1526
   86SAPS  H11A 8156   2.478   2.107  11.139 -1.0821  0.4409  0.1648
   86SAPS  H11B 8157   2.522   2.249  11.043 -0.4652  0.3275 -1.0053
   86SAPS     P 8158   2.733   2.123  10.932  0.0129 -0.2105 -0.0800
   86SAPS   O13 8159   2.774   2.186  11.059  0.1475  0.7745 -0.3037
   86SAPS   O14 8160   2.821   2.015  10.879  0.1855 -0.5502 -0.2381
   86SAPS   O12 8161   2.584   2.062  10.963  0.8047 -0.4707 -0.0489
   86SAPS   O11 8162   2.725   2.236  10.828  0.3580 -0.5126  0.2198
   86SAPS    C1 8163   2.645   2.226  10.711  0.1771  1.0148  0.7095
   86SAPS    HA 8164   2.623   2.118  10.696  2.0691  0.7106 -0.1734
   86SAPS    HB 8165   2.551   2.283  10.728  0.7872  2.6446 -1.0833
   86SAPS    C2 8166   2.735   2.265  10.591 -0.5479 -0.1332 -0.8622
   86SAPS    HS 8167   2.790   2.359  10.615  0.5111 -0.9879  0.1516
   86SAPS   O21 8168   2.641   2.293  10.484 -0.1059  0.4885  0.5818
   86SAPS   C21 8169   2.690   2.357  10.381 -0.4642  0.2755 -0.4711
   86SAPS   O22 8170   2.808   2.386  10.372 -0.2407  0.3770 -0.5401
   86SAPS   C22 8171   2.591   2.380  10.269 -0.7121  0.6415  0.0473
   86SAPS   H2R 8172   2.501   2.315  10.277  0.3475 -0.9826 -0.9477
   86SAPS   H2S 8173   2.549   2.483  10.277 -1.6512  0.3384 -0.7419
   86SAPS    C3 8174   2.841   2.151  10.561 -0.8937 -0.5076 -0.2761
   86SAPS    HX 8175   2.909   2.158  10.649 -0.4653 -0.2055 -0.6264
   86SAPS    HY 8176   2.911   2.180  10.480  0.8015 -0.5089  1.1096
   86SAPS   O31 8177   2.769   2.020  10.555  0.1942 -0.8762  1.5017
   86SAPS   C31 8178   2.821   1.930  10.473 -0.6031 -0.6969 -0.1128
   86SAPS   O32 8179   2.932   1.951  10.417  0.2157  0.5759 -0.3004
   86SAPS   C32 8180   2.739   1.809  10.468 -0.4799  0.1868 -0.6576
   86SAPS   H2X 8181   2.652   1.811  10.537  0.3104  0.2870  0.3582
   86SAPS   H2Y 8182   2.790   1.723  10.517 -2.2301 -0.5200  0.0310
   86SAPS   C23 8183   2.642   2.359  10.123  0.3370  1.3795  0.4092
   86SAPS   H3R 8184   2.723   2.432  10.106  1.0988  0.4711  0.0030
   86SAPS   H3S 8185   2.560   2.375  10.050 -1.7342 -6.5020 -0.0074
   86SAPS   C24 8186   2.685   2.212  10.090  0.1833  0.5518 -0.1020
   86SAPS   H4R 8187   2.751   2.181  10.174 -2.3320  0.2428  1.8680
   86SAPS   H4S 8188   2.738   2.226   9.993 -0.8666 -1.4198 -1.0091
   86SAPS   C25 8189   2.576   2.105  10.087 -0.5519 -0.4169  0.1380
   86SAPS   H5R 8190   2.552   2.063  10.185  1.2531 -1.8973 -0.0047
   86SAPS   C26 8191   2.527   2.055   9.977 -0.1302 -0.8611  0.4383
   86SAPS   H6R 8192   2.468   1.962   9.978 -0.4057 -0.8813 -3.2663
   86SAPS   C27 8193   2.569   2.100   9.835 -0.4043  0.2035  0.6057
   86SAPS   H7R 8194   2.574   2.211   9.833  0.9826  0.1769  1.0659
   86SAPS   H7S 8195   2.478   2.069   9.779  0.2649  0.3902 -0.6277
   86SAPS   C28 8196   2.694   2.034   9.792  0.9644  0.0494 -0.0949
   86SAPS   H8R 8197   2.763   2.004   9.872  1.1266 -0.7679 -0.5326
   86SAPS   C29 8198   2.716   2.004   9.662 -0.2729  0.7737 -0.8576
   86SAPS   H9R 8199   2.804   1.940   9.642  0.1487 -0.4517  3.6934
   86SAPS  C210 8200   2.630   2.028   9.542 -0.4118  0.9135 -0.1213
   86SAPS  H10R 8201   2.696   2.073   9.464  0.1943 -0.8471 -0.6652
   86SAPS  H10S 8202   2.567   2.117   9.565 -0.9316  0.4110  0.4156
   86SAPS  C211 8203   2.539   1.918   9.488 -0.3284 -0.4278  0.1787
   86SAPS  H11R 8204   2.447   1.890   9.542 -0.0329 -0.3210  0.7495
   86SAPS  C212 8205   2.557   1.877   9.356  0.3906  1.4379 -0.1788
   86SAPS  H12R 8206   2.473   1.815   9.320 -0.8147  1.6461  2.0797
   86SAPS  C213 8207   2.664   1.929   9.259 -0.5043  0.2172  0.0849
   86SAPS  H13R 8208   2.754   1.970   9.309  0.7130 -2.3392  0.1354
   86SAPS  H13S 8209   2.621   2.010   9.195 -0.7567  1.4072  1.7024
   86SAPS  C214 8210   2.711   1.802   9.190  0.6246  0.4633  0.4003
   86SAPS  H14R 8211   2.757   1.733   9.263  1.6265  0.6832 -0.0078
   86SAPS  C215 8212   2.716   1.782   9.057  0.7211 -0.4630 -0.5547
   86SAPS  H15R 8213   2.747   1.686   9.013 -0.1130 -0.7923 -0.4411
   86SAPS  C216 8214   2.678   1.875   8.945  0.2914  0.3353 -0.2147
   86SAPS  H16R 8215   2.762   1.926   8.892 -0.6151  1.4939 -0.5848
   86SAPS  H16S 8216   2.621   1.960   8.988  1.3648  0.6822  0.5730
   86SAPS  C217 8217   2.594   1.800   8.841  0.4783 -0.0993 -0.1847
   86SAPS  H17R 8218   2.498   1.760   8.879  0.3600 -1.1418 -1.5266
   86SAPS  H17S 8219   2.654   1.715   8.802  3.1326  0.8002  1.6035
   86SAPS  C218 8220   2.557   1.878   8.711 -0.6558  0.1687  0.1662
   86SAPS  H18R 8221   2.532   1.814   8.624 -0.0128  0.4997 -0.2660
   86SAPS  H18S 8222   2.649   1.934   8.685 -0.8203  0.6535  0.6166
   86SAPS  C219 8223   2.448   1.983   8.727 -0.4560  0.4715  0.5220
   86SAPS  H19R 8224   2.476   2.066   8.796 -0.2928  0.8663 -0.0180
   86SAPS  H19S 8225   2.345   1.954   8.756 -0.8644  0.2532 -1.0830
   86SAPS  C220 8226   2.428   2.050   8.596 -0.7383 -0.1943  0.5378
   86SAPS  H20R 8227   2.410   1.988   8.506 -0.6070  1.5940 -0.7683
   86SAPS  H20S 8228   2.528   2.094   8.574 -1.4003  0.8141 -0.5827
   86SAPS  H20T 8229   2.343   2.120   8.610 -1.4621 -1.1353  0.9905
   86SAPS   C33 8230   2.698   1.777  10.324 -0.2348  0.5050  0.4146
   86SAPS   H3X 8231   2.661   1.868  10.271 -0.2040  1.9047  2.6331
   86SAPS   H3Y 8232   2.615   1.705  10.336 -1.0417  0.8503 -2.4422
   86SAPS   C34 8233   2.811   1.722  10.228  0.2433 -0.3620  0.6522
   86SAPS   H4X 8234   2.838   1.623  10.271 -1.1639 -2.0401 -1.9994
   86SAPS   H4Y 8235   2.905   1.781  10.230 -2.1061  3.9626 -1.9593
   86SAPS   C35 8236   2.765   1.714  10.077  0.0813  0.9367 -0.6748
   86SAPS   H5X 8237   2.749   1.818  10.042  0.3944  1.9581  2.0175
   86SAPS   H5Y 8238   2.673   1.652  10.072  0.7686 -0.4749  2.1824
   86SAPS   C36 8239   2.873   1.640  10.000 -0.1164  0.0114 -0.1356
   86SAPS   H6X 8240   2.905   1.551  10.057 -1.9364 -0.7998 -0.3273
   86SAPS   H6Y 8241   2.954   1.716   9.993 -1.2350  1.4634  1.6978
   86SAPS   C37 8242   2.832   1.609   9.856  0.4303  0.1450 -0.4165
   86SAPS   H7X 8243   2.809   1.702   9.799  0.6292  0.0569 -0.6372
   86SAPS   H7Y 8244   2.741   1.545   9.856  0.0179  0.7176 -1.0459
   86SAPS   C38 8245   2.948   1.545   9.776 -0.0239  0.2217 -0.0398
   86SAPS   H8X 8246   2.982   1.453   9.828  0.3192  0.9159  0.9860
   86SAPS   H8Y 8247   3.032   1.616   9.790 -0.8323  0.6809  2.9312
   86SAPS   C39 8248   2.925   1.514   9.628  1.0789 -0.5668 -0.7647
   86SAPS   H9X 8249   2.836   1.565   9.587  1.3357 -0.9181 -1.7868
   86SAPS   H9Y 8250   2.919   1.405   9.605  1.6852 -0.2891 -2.3479
   86SAPS  C310 8251   3.041   1.536   9.532 -0.2002 -0.0763  0.0807
   86SAPS  H10X 8252   3.124   1.477   9.578 -0.7430 -0.5251  0.4891
   86SAPS  H10Y 8253   3.075   1.641   9.538  0.7087 -0.3232 -0.4600
   86SAPS  C311 8254   3.023   1.478   9.389 -0.3187  1.2260  0.4478
   86SAPS  H11X 8255   2.933   1.529   9.348 -0.9522  0.1861  0.5131
   86SAPS  H11Y 8256   3.000   1.370   9.393  0.4260  0.8237 -2.9631
   86SAPS  C312 8257   3.158   1.473   9.309  0.2438  0.2783 -0.5630
   86SAPS  H12X 8258   3.222   1.405   9.368 -1.4762 -1.6563 -0.8353
   86SAPS  H12Y 8259   3.205   1.574   9.302  2.3946 -0.6838 -0.5147
   86SAPS  C313 8260   3.142   1.417   9.165  0.1954 -0.6112 -0.2211
   86SAPS  H13X 8261   3.079   1.325   9.168  1.0571 -1.1840  1.2943
   86SAPS  H13Y 8262   3.244   1.396   9.126  1.0643  0.4568  1.3966
   86SAPS  C314 8263   3.067   1.512   9.079  0.6226 -0.2740  0.2023
   86SAPS  H14X 8264   3.122   1.608   9.070 -0.8189  0.3968 -2.5073
   86SAPS  H14Y 8265   2.974   1.539   9.134  2.3972  1.5887  2.4684
   86SAPS  C315 8266   3.046   1.456   8.943 -0.6364  0.3584 -0.3133
   86SAPS  H15X 8267   2.981   1.366   8.939  0.6853 -0.7636  1.7488
   86SAPS  H15Y 8268   3.147   1.434   8.900 -0.2896  1.0629  0.1255
   86SAPS  C316 8269   2.963   1.558   8.849 -0.5568 -0.6031 -0.5501
   86SAPS  H16X 8270   2.996   1.664   8.848 -1.2095 -0.3754  0.7086
   86SAPS  H16Y 8271   2.866   1.560   8.904  0.7918  0.9199  1.9016
   86SAPS  C317 8272   2.950   1.498   8.708  0.5159  0.1561  0.2936
   86SAPS  H17X 8273   2.902   1.398   8.709  0.3925  0.2123  1.8811
   86SAPS  H17Y 8274   3.055   1.486   8.674  0.7430  0.6507  0.8052
   86SAPS  C318 8275   2.870   1.593   8.622 -0.5031 -0.6026 -0.2239
   86SAPS  H18X 8276   2.926   1.689   8.613 -0.1803 -0.6865  0.7482
   86SAPS  H18Y 8277   2.776   1.623   8.672 -0.1001 -1.7361  1.2669
   86SAPS  H18Z 8278   2.861   1.567   8.514  1.6929 -0.5269 -0.4763
   87SAPS     N 8279   2.519   2.946  10.892 -0.1314 -0.1057  0.2216
   87SAPS   HN1 8280   2.584   2.913  10.818  1.2556  1.2530  0.7599
   87SAPS   HN2 8281   2.533   2.884  10.974  2.7897  0.1642  0.0406
   87SAPS   HN3 8282   2.424   2.943  10.851 -0.9302  0.2590  1.9570
   87SAPS   C12 8283   2.561   3.084  10.913  0.1716 -0.6681 -0.4912
   87SAPS  H12A 8284   2.513   3.102  11.008 -0.2718 -2.6993 -0.2964
   87SAPS   C13 8285   2.714   3.112  10.921  0.1485 -0.6347  0.3276
   87SAPS  O13A 8286   2.795   3.021  10.884  0.5183  0.1176  0.7461
   87SAPS  O13B 8287   2.751   3.226  10.953 -0.5447 -0.4991  0.7498
   87SAPS   C11 8288   2.500   3.180  10.806 -0.0616  0.2693  0.0894
   87SAPS  H11A 8289   2.556   3.151  10.714 -0.8795  0.4866 -0.4912
   87SAPS  H11B 8290   2.517   3.286  10.836 -0.2950  0.8331 -1.6337
   87SAPS     P 8291   2.273   3.282  10.736  0.0592 -0.1087  0.0391
   87SAPS   O13 8292   2.130   3.269  10.752  0.1979  0.1060  0.2420
   87SAPS   O14 8293   2.328   3.411  10.785  0.2576  0.3476  0.1638
   87SAPS   O12 8294   2.355   3.161  10.794  0.3882 -0.1089  0.4739
   87SAPS   O11 8295   2.297   3.281  10.577 -0.5190 -0.1362  0.1303
   87SAPS    C1 8296   2.376   3.187  10.504 -0.0927 -0.2353 -0.3880
   87SAPS    HA 8297   2.472   3.234  10.472 -0.0911 -1.2345 -1.9585
   87SAPS    HB 8298   2.398   3.092  10.558  0.7387  0.6358  0.8503
   87SAPS    C2 8299   2.300   3.154  10.374 -0.6098  0.0222 -0.3910
   87SAPS    HS 8300   2.216   3.084  10.397 -0.0233 -0.7086 -0.4383
   87SAPS   O21 8301   2.400   3.098  10.281 -0.0114 -0.0567  0.1623
   87SAPS   C21 8302   2.437   2.975  10.315 -0.6457 -0.1781  0.3127
   87SAPS   O22 8303   2.396   2.911  10.408 -0.2218  0.1602 -0.5158
   87SAPS   C22 8304   2.544   2.923  10.218  0.2510 -0.1579  0.2134
   87SAPS   H2R 8305   2.525   2.982  10.126  0.6796 -1.1724 -0.5428
   87SAPS   H2S 8306   2.638   2.958  10.266  0.1961  2.0941 -1.1501
   87SAPS    C3 8307   2.229   3.282  10.310  0.4359  0.2933  0.6840
   87SAPS    HX 8308   2.299   3.368  10.302  2.0355 -0.7566  2.4782
   87SAPS    HY 8309   2.151   3.317  10.382  0.1919  2.5092 -0.5734
   87SAPS   O31 8310   2.166   3.247  10.190  0.1731 -0.2863 -0.0435
   87SAPS   C31 8311   2.233   3.266  10.073 -0.1962  0.4576  0.1287
   87SAPS   O32 8312   2.346   3.308  10.064  0.0816 -0.3912 -0.1100
   87SAPS   C32 8313   2.142   3.234   9.955 -0.1211  0.0026  0.4638
   87SAPS   H2X 8314   2.085   3.328   9.942 -0.0346  0.0077  0.1232
   87SAPS   H2Y 8315   2.070   3.151   9.977 -0.2737  0.0703  0.2213
   87SAPS   C23 8316   2.540   2.773  10.186 -0.0110 -0.4323  0.3566
   87SAPS   H3R 8317   2.562   2.713  10.277 -2.3550 -2.9031 -0.5761
   87SAPS   H3S 8318   2.615   2.763  10.105 -0.3357  0.5451 -0.0933
   87SAPS   C24 8319   2.400   2.718  10.155  0.4031 -0.5167  0.2047
   87SAPS   H4R 8320   2.337   2.717  10.247 -2.0977  1.1805 -1.3647
   87SAPS   H4S 8321   2.409   2.610  10.132 -1.4593 -0.1656 -2.6273
   87SAPS   C25 8322   2.324   2.783  10.039  0.5122  1.4453 -0.2335
   87SAPS   H5R 8323   2.286   2.885  10.055  1.4962  1.8566 -0.4322
   87SAPS   C26 8324   2.303   2.724   9.915 -0.2939  0.0361 -0.2020
   87SAPS   H6R 8325   2.248   2.779   9.837  1.4577  0.6721 -1.0328
   87SAPS   C27 8326   2.366   2.597   9.867  0.2071  0.2722  0.8380
   87SAPS   H7R 8327   2.435   2.546   9.938 -1.0456 -1.9711  0.5531
   87SAPS   H7S 8328   2.422   2.615   9.773 -1.5994  1.4996 -0.0633
   87SAPS   C28 8329   2.261   2.502   9.835 -0.3586  0.5753  0.3386
   87SAPS   H8R 8330   2.196   2.476   9.920 -1.0909  1.6859  0.1389
   87SAPS   C29 8331   2.220   2.462   9.704 -0.6410 -0.2335 -0.1641
   87SAPS   H9R 8332   2.134   2.394   9.701 -0.6260 -0.3740  1.5000
   87SAPS  C210 8333   2.293   2.490   9.573  0.5776  0.0332 -0.3863
   87SAPS  H10R 8334   2.370   2.570   9.576  0.6196 -0.0254  0.2032
   87SAPS  H10S 8335   2.222   2.524   9.494  0.6410 -0.8165 -0.8195
   87SAPS  C211 8336   2.363   2.363   9.519 -0.4046  0.2630 -0.0645
   87SAPS  H11R 8337   2.435   2.315   9.587  3.1986  1.4612 -2.7487
   87SAPS  C212 8338   2.348   2.296   9.405 -0.0269 -0.1610  0.1065
   87SAPS  H12R 8339   2.417   2.213   9.387  0.6594  0.5462 -0.6169
   87SAPS  C213 8340   2.248   2.331   9.300  0.3972 -0.7015 -0.5442
   87SAPS  H13R 8341   2.293   2.338   9.198 -0.2834  2.1616 -0.7326
   87SAPS  H13S 8342   2.216   2.437   9.315  2.0223 -0.5560  2.8108
   87SAPS  C214 8343   2.131   2.239   9.290 -0.0273  0.9031 -0.0811
   87SAPS  H14R 8344   2.048   2.274   9.354 -0.0145 -0.9253  1.0108
   87SAPS  C215 8345   2.124   2.123   9.214  0.4811 -0.2578  0.4895
   87SAPS  H15R 8346   2.025   2.075   9.205 -0.3697  1.7466 -2.0902
   87SAPS  C216 8347   2.226   2.084   9.114 -0.2578  0.4420 -0.0573
   87SAPS  H16R 8348   2.310   2.038   9.170 -0.8607 -1.0310 -0.3275
   87SAPS  H16S 8349   2.265   2.165   9.047  2.0418  0.2759  0.9634
   87SAPS  C217 8350   2.162   1.965   9.037  0.6102 -0.2558 -0.3078
   87SAPS  H17R 8351   2.242   1.921   8.974 -0.2870 -0.4399 -1.3386
   87SAPS  H17S 8352   2.072   1.997   8.982  0.3740  1.5388  1.0300
   87SAPS  C218 8353   2.130   1.840   9.131 -0.1951 -0.2034  0.4878
   87SAPS  H18R 8354   2.031   1.862   9.175 -0.5647  2.4857 -1.4429
   87SAPS  H18S 8355   2.215   1.837   9.203  0.2288  0.9621  0.0632
   87SAPS  C219 8356   2.128   1.710   9.052 -0.6861 -0.2994 -0.2191
   87SAPS  H19R 8357   2.125   1.634   9.133 -0.8063 -0.1451 -0.0781
   87SAPS  H19S 8358   2.223   1.698   8.997 -0.9824  0.3900 -0.9062
   87SAPS  C220 8359   2.017   1.703   8.953 -0.9758 -0.1810 -0.8945
   87SAPS  H20R 8360   1.915   1.697   8.996  0.0005 -0.8746  1.4588
   87SAPS  H20S 8361   2.030   1.612   8.890 -0.8021  0.1862 -1.3924
   87SAPS  H20T 8362   2.032   1.787   8.882  2.7936  0.7712  0.7892
   87SAPS   C33 8363   2.212   3.185   9.827 -0.4286 -0.1754 -0.2364
   87SAPS   H3X 8364   2.248   3.081   9.840  1.5908  0.4206 -0.7056
   87SAPS   H3Y 8365   2.295   3.250   9.790 -1.3983  2.3353  1.6704
   87SAPS   C34 8366   2.116   3.189   9.707 -0.1245 -0.7143 -0.6696
   87SAPS   H4X 8367   2.089   3.294   9.681 -3.7408 -1.3843 -0.1909
   87SAPS   H4Y 8368   2.017   3.149   9.739  0.5478 -0.6878  1.6110
   87SAPS   C35 8369   2.163   3.137   9.565  0.4776  0.0826 -0.0559
   87SAPS   H5X 8370   2.157   3.027   9.555 -1.2492  0.0827  0.5540
   87SAPS   H5Y 8371   2.267   3.168   9.545  1.2304 -1.5576  1.1246
   87SAPS   C36 8372   2.070   3.196   9.460 -0.2030  0.3934 -0.2051
   87SAPS   H6X 8373   2.092   3.305   9.461  1.0873  0.1455  0.0650
   87SAPS   H6Y 8374   1.965   3.182   9.495 -0.2314  2.4954  0.6745
   87SAPS   C37 8375   2.107   3.131   9.324  0.4447 -0.1840  0.4007
   87SAPS   H7X 8376   2.144   3.026   9.328  2.1801  0.3115 -1.1711
   87SAPS   H7Y 8377   2.199   3.183   9.288  0.2659 -0.5514 -0.6094
   87SAPS   C38 8378   1.994   3.157   9.223 -0.2359 -0.1531 -0.2033
   87SAPS   H8X 8379   1.960   3.263   9.219  1.9682  0.5896 -0.4585
   87SAPS   H8Y 8380   1.907   3.094   9.252  0.1005 -1.1013 -1.1780
   87SAPS   C39 8381   2.027   3.104   9.084  0.0726  0.2089  0.2244
   87SAPS   H9X 8382   2.050   2.995   9.083  2.4378  0.6454 -0.7647
   87SAPS   H9Y 8383   2.125   3.147   9.056  0.8410 -2.0691 -0.9010
   87SAPS  C310 8384   1.923   3.152   8.988  0.7946 -0.2065  0.3002
   87SAPS  H10X 8385   1.927   3.263   8.983  0.1588 -0.2434 -2.2975
   87SAPS  H10Y 8386   1.818   3.126   9.017  0.5364 -0.9458 -1.2092
   87SAPS  C311 8387   1.944   3.108   8.847 -0.1556 -0.0532 -0.1046
   87SAPS  H11X 8388   1.963   2.999   8.840 -1.3621 -0.6079  3.3962
   87SAPS  H11Y 8389   2.034   3.165   8.814  0.7425  1.7264  4.6195
   87SAPS  C312 8390   1.826   3.147   8.749 -0.9680 -0.2594  0.9870
   87SAPS  H12X 8391   1.812   3.255   8.769  3.1328  0.1207  2.7312
   87SAPS  H12Y 8392   1.732   3.096   8.778 -0.7605 -0.4025  1.4089
   87SAPS  C313 8393   1.871   3.122   8.600 -0.0579  0.5605 -0.2127
   87SAPS  H13X 8394   1.873   3.012   8.583  0.1310  0.2327  1.6658
   87SAPS  H13Y 8395   1.973   3.167   8.605  0.1428 -0.0123  1.5352
   87SAPS  C314 8396   1.794   3.208   8.500  0.0847 -0.1041  0.0587
   87SAPS  H14X 8397   1.845   3.205   8.401  0.1271  0.4489  0.0628
   87SAPS  H14Y 8398   1.800   3.314   8.533  0.8566  0.1939 -0.9901
   87SAPS  C315 8399   1.652   3.158   8.482  0.6820  0.1187 -0.0150
   87SAPS  H15X 8400   1.598   3.136   8.577 -1.7411 -2.0090 -1.7170
   87SAPS  H15Y 8401   1.665   3.065   8.421  0.6562 -0.5582  0.9936
   87SAPS  C316 8402   1.562   3.258   8.417  0.5949  0.0236 -0.0615
   87SAPS  H16X 8403   1.598   3.277   8.313  4.6275 -1.0856  0.9533
   87SAPS  H16Y 8404   1.566   3.351   8.477 -1.5320  0.6027 -0.7004
   87SAPS  C317 8405   1.412   3.218   8.411  0.3603 -0.7241 -0.2283
   87SAPS  H17X 8406   1.414   3.107   8.413  1.3980 -0.7063  1.5165
   87SAPS  H17Y 8407   1.347   3.250   8.326 -1.9130 -1.5395  1.1229
   87SAPS  C318 8408   1.322   3.273   8.530  0.0008  0.1443  0.3008
   87SAPS  H18X 8409   1.316   3.383   8.520 -0.3877  0.1443  0.4963
   87SAPS  H18Y 8410   1.367   3.242   8.627 -0.5762 -0.8963  0.2479
   87SAPS  H18Z 8411   1.223   3.223   8.521 -0.2787  0.9289 -1.1506
   88SAPS     N 8412   4.653   1.394  10.808 -0.5160  0.0829 -0.3960
   88SAPS   HN1 8413   4.580   1.384  10.734 -1.0233  1.2850 -0.0683
   88SAPS   HN2 8414   4.636   1.479  10.865 -0.0637 -1.5856  2.4309
   88SAPS   HN3 8415   4.752   1.389  10.776  0.8775  1.9268  3.1559
   88SAPS   C12 8416   4.630   1.280  10.905 -0.1412 -0.4803  1.0275
   88SAPS  H12A 8417   4.648   1.195  10.841  0.4315  1.1721 -1.1295
   88SAPS   C13 8418   4.735   1.279  11.016 -0.1370  0.2677  0.0186
   88SAPS  O13A 8419   4.844   1.333  10.996 -0.0844 -0.2489  0.7265
   88SAPS  O13B 8420   4.725   1.190  11.111 -0.6307 -0.4665  0.1222
   88SAPS   C11 8421   4.488   1.291  10.966  0.3295 -0.4664  0.2016
   88SAPS  H11A 8422   4.488   1.381  11.031  1.0194 -0.1973 -0.1638
   88SAPS  H11B 8423   4.459   1.208  11.033  1.4560 -1.1932 -0.1819
   88SAPS     P 8424   4.273   1.215  10.856 -0.0474 -0.4807  0.0584
   88SAPS   O13 8425   4.310   1.101  10.774  0.3759  0.1570  0.9324
   88SAPS   O14 8426   4.212   1.200  10.989 -0.3149  0.4104 -0.3389
   88SAPS   O12 8427   4.395   1.315  10.865  0.4678  0.2116 -0.4741
   88SAPS   O11 8428   4.171   1.307  10.772 -0.2941  0.1895  0.5462
   88SAPS    C1 8429   4.205   1.321  10.630 -0.2908 -0.0148 -0.1993
   88SAPS    HA 8430   4.152   1.414  10.599  0.0980  0.1654 -0.3216
   88SAPS    HB 8431   4.311   1.338  10.602 -0.2128  1.4237  0.8559
   88SAPS    C2 8432   4.143   1.204  10.546  0.1268 -0.5447 -0.3089
   88SAPS    HS 8433   4.195   1.107  10.554 -0.6575 -0.8725  1.3043
   88SAPS   O21 8434   4.135   1.255  10.408 -0.0924  0.3012  1.0202
   88SAPS   C21 8435   4.254   1.264  10.349 -0.0967 -0.3871 -0.4601
   88SAPS   O22 8436   4.361   1.227  10.390  0.5007 -0.0492  0.6896
   88SAPS   C22 8437   4.230   1.325  10.208  0.1483 -0.1200 -0.3562
   88SAPS   H2R 8438   4.169   1.252  10.151  0.9852 -1.2259  0.1231
   88SAPS   H2S 8439   4.174   1.421  10.221  1.8511  0.8031  0.4824
   88SAPS    C3 8440   3.981   1.186  10.582 -0.5970 -0.1858 -0.8326
   88SAPS    HX 8441   3.943   1.290  10.593 -1.3314 -0.6808  2.0691
   88SAPS    HY 8442   3.976   1.149  10.686 -2.1924  2.5695  0.1771
   88SAPS   O31 8443   3.900   1.112  10.482 -0.6068  0.3011 -0.2032
   88SAPS   C31 8444   3.914   0.981  10.479  0.9093 -0.0505 -0.2967
   88SAPS   O32 8445   3.990   0.913  10.549 -0.2276 -0.1571  0.0548
   88SAPS   C32 8446   3.820   0.920  10.382 -0.6639 -0.7723  0.0098
   88SAPS   H2X 8447   3.727   0.895  10.438 -0.6393 -1.0572 -0.0733
   88SAPS   H2Y 8448   3.868   0.828  10.342  0.9830 -1.0469  2.4119
   88SAPS   C23 8449   4.360   1.365  10.139 -0.6344 -0.1210 -0.5384
   88SAPS   H3R 8450   4.445   1.315  10.189 -0.3280 -0.0587 -0.9971
   88SAPS   H3S 8451   4.383   1.472  10.156  2.2229 -0.9835  1.9284
   88SAPS   C24 8452   4.363   1.341   9.995  0.3765 -0.3178  0.4538
   88SAPS   H4R 8453   4.350   1.231   9.988  2.3121 -0.5957  0.5532
   88SAPS   H4S 8454   4.464   1.361   9.953  0.3516 -1.7507 -0.3649
   88SAPS   C25 8455   4.262   1.438   9.934  0.0007  0.6246 -0.1243
   88SAPS   H5R 8456   4.294   1.543   9.939 -0.2212  0.6712  0.3113
   88SAPS   C26 8457   4.156   1.408   9.856 -0.4279 -0.1480 -0.3347
   88SAPS   H6R 8458   4.090   1.494   9.836  0.2325  0.9139  1.7700
   88SAPS   C27 8459   4.108   1.270   9.824 -0.0844  0.1368  0.2130
   88SAPS   H7R 8460   4.155   1.203   9.898 -3.0380  1.2007  3.2989
   88SAPS   H7S 8461   4.142   1.233   9.725 -0.6804 -1.1035  0.4542
   88SAPS   C28 8462   3.959   1.272   9.834 -0.1836 -0.8197  0.0220
   88SAPS   H8R 8463   3.908   1.271   9.932 -2.0395 -3.1205 -0.8844
   88SAPS   C29 8464   3.882   1.259   9.725  0.0700  0.7092 -0.1955
   88SAPS   H9R 8465   3.774   1.263   9.744  0.2656 -1.4757  1.8235
   88SAPS  C210 8466   3.932   1.241   9.581  0.1622 -0.0593 -0.3099
   88SAPS  H10R 8467   3.867   1.163   9.534 -4.2920  2.1939  1.5406
   88SAPS  H10S 8468   4.033   1.193   9.585  0.3178  0.3505  1.4199
   88SAPS  C211 8469   3.929   1.363   9.493  0.9059  0.5570  0.4989
   88SAPS  H11R 8470   3.891   1.456   9.537  1.0205  0.5260  0.6649
   88SAPS  C212 8471   3.958   1.368   9.359 -0.4413  0.0892 -0.3853
   88SAPS  H12R 8472   3.950   1.460   9.299 -1.0436  1.3363  1.5291
   88SAPS  C213 8473   4.009   1.256   9.278 -0.4703 -0.0119  0.1721
   88SAPS  H13R 8474   3.920   1.228   9.217 -1.0866  0.2232  0.9463
   88SAPS  H13S 8475   4.023   1.162   9.335 -1.4264 -0.7829 -0.8154
   88SAPS  C214 8476   4.132   1.289   9.189  0.7648  0.9872  0.2407
   88SAPS  H14R 8477   4.103   1.312   9.086 -0.3202 -1.5971 -0.0916
   88SAPS  C215 8478   4.264   1.280   9.220 -0.6162  0.2763 -0.1855
   88SAPS  H15R 8479   4.345   1.303   9.150 -0.7506  0.0507 -0.4175
   88SAPS  C216 8480   4.305   1.236   9.357 -0.4787  0.1479  0.0277
   88SAPS  H16R 8481   4.337   1.130   9.361 -3.3593 -0.7948  0.6835
   88SAPS  H16S 8482   4.220   1.257   9.427  0.9033  0.7267  1.6058
   88SAPS  C217 8483   4.425   1.327   9.403  0.0444 -0.2248 -0.5438
   88SAPS  H17R 8484   4.518   1.326   9.342  0.9170  2.1523  0.6486
   88SAPS  H17S 8485   4.446   1.283   9.503 -0.4904 -0.6230 -0.5965
   88SAPS  C218 8486   4.384   1.464   9.446  0.0948 -0.3517  1.0281
   88SAPS  H18R 8487   4.296   1.456   9.514 -2.2821  3.0592 -1.2702
   88SAPS  H18S 8488   4.337   1.529   9.369 -1.2384 -2.1172  0.2867
   88SAPS  C219 8489   4.492   1.546   9.515  0.7658  0.3780  0.4547
   88SAPS  H19R 8490   4.581   1.550   9.448  1.4082  0.4917  1.2980
   88SAPS  H19S 8491   4.529   1.495   9.605  1.6404  0.3819  0.1083
   88SAPS  C220 8492   4.439   1.681   9.552 -0.3375  0.3214  0.3185
   88SAPS  H20R 8493   4.351   1.674   9.620 -0.6220 -0.1722 -0.0945
   88SAPS  H20S 8494   4.412   1.733   9.458 -0.6765 -1.1942 -0.4512
   88SAPS  H20T 8495   4.510   1.745   9.608 -0.4082 -0.4044  1.2602
   88SAPS   C33 8496   3.784   1.026  10.278 -0.1782  0.2996  0.0684
   88SAPS   H3X 8497   3.875   1.072  10.234  0.9126 -0.9040  0.9742
   88SAPS   H3Y 8498   3.716   1.100  10.325 -2.6784 -2.2885  0.7878
   88SAPS   C34 8499   3.720   0.946  10.159  0.4960  0.0554 -0.3852
   88SAPS   H4X 8500   3.619   0.918  10.197  0.4448  0.6262 -0.0884
   88SAPS   H4Y 8501   3.783   0.857  10.137  0.0752 -0.5651  0.7969
   88SAPS   C35 8502   3.712   1.048  10.051 -0.2767 -0.9213  0.5955
   88SAPS   H5X 8503   3.812   1.086  10.022  0.1260 -0.9396  1.9105
   88SAPS   H5Y 8504   3.667   1.143  10.087  1.7697  0.4679 -0.3133
   88SAPS   C36 8505   3.637   0.983   9.933  0.0440 -0.0470 -0.8424
   88SAPS   H6X 8506   3.615   1.059   9.855 -0.6647  0.5901 -0.0512
   88SAPS   H6Y 8507   3.538   0.950   9.972  1.4935 -2.1248  1.3653
   88SAPS   C37 8508   3.711   0.874   9.857 -0.2110  0.3536  0.1112
   88SAPS   H7X 8509   3.695   0.781   9.916 -1.4967  0.9759  0.7704
   88SAPS   H7Y 8510   3.821   0.886   9.862 -0.1810 -0.2296  1.0425
   88SAPS   C38 8511   3.691   0.856   9.705  0.5751  0.0075  0.3644
   88SAPS   H8X 8512   3.752   0.774   9.661  1.9786 -0.1064  2.3599
   88SAPS   H8Y 8513   3.739   0.946   9.662 -0.9668  0.0410 -1.3838
   88SAPS   C39 8514   3.547   0.832   9.658  0.2361 -0.3580 -0.2110
   88SAPS   H9X 8515   3.483   0.920   9.678  0.9147 -0.1889  1.3365
   88SAPS   H9Y 8516   3.506   0.737   9.698 -0.8354  1.0366  2.2121
   88SAPS  C310 8517   3.541   0.812   9.507  0.0922  0.0174 -0.3419
   88SAPS  H10X 8518   3.614   0.735   9.473 -1.0133 -1.2390  0.0681
   88SAPS  H10Y 8519   3.579   0.905   9.460  1.1467 -0.8634 -1.2869
   88SAPS  C311 8520   3.396   0.774   9.466 -0.1412  0.2970  0.8722
   88SAPS  H11X 8521   3.319   0.829   9.525 -0.5532  0.8747 -0.1717
   88SAPS  H11Y 8522   3.374   0.666   9.470 -0.6047  0.4184  1.9849
   88SAPS  C312 8523   3.368   0.813   9.326 -0.1804 -0.1352  0.0434
   88SAPS  H12X 8524   3.390   0.917   9.296  2.3919 -0.8185 -0.6970
   88SAPS  H12Y 8525   3.258   0.804   9.310 -0.1445  2.1701 -2.0819
   88SAPS  C313 8526   3.441   0.718   9.218 -0.3825  0.0706 -0.0920
   88SAPS  H13X 8527   3.415   0.610   9.227  1.9365 -0.9432 -3.5873
   88SAPS  H13Y 8528   3.549   0.718   9.243 -0.5077 -2.4919  0.7393
   88SAPS  C314 8529   3.410   0.764   9.071  0.1488 -0.0207 -0.4735
   88SAPS  H14X 8530   3.444   0.869   9.078 -0.2924  0.2578 -1.9955
   88SAPS  H14Y 8531   3.301   0.758   9.050 -0.1704  1.9417  0.4655
   88SAPS  C315 8532   3.495   0.688   8.973  0.1887  0.1634 -0.5411
   88SAPS  H15X 8533   3.455   0.585   8.980  0.3169  0.0951 -0.7924
   88SAPS  H15Y 8534   3.599   0.676   9.010 -0.8397 -1.1969  2.1067
   88SAPS  C316 8535   3.492   0.752   8.831  0.1146 -0.0159 -0.6933
   88SAPS  H16X 8536   3.563   0.836   8.846  1.3913 -1.0989 -0.4534
   88SAPS  H16Y 8537   3.387   0.787   8.819 -2.3910 -5.2577  2.1316
   88SAPS  C317 8538   3.550   0.664   8.715  0.4533  0.3164  0.2889
   88SAPS  H17X 8539   3.485   0.575   8.699 -0.1024  0.6210  0.7742
   88SAPS  H17Y 8540   3.648   0.616   8.734  0.4940  0.0652 -0.5364
   88SAPS  C318 8541   3.564   0.749   8.594 -0.3722  0.5527 -0.0866
   88SAPS  H18X 8542   3.588   0.680   8.510 -0.1107 -1.2406  1.3819
   88SAPS  H18Y 8543   3.647   0.822   8.600  1.1004 -0.7412 -3.0781
   88SAPS  H18Z 8544   3.462   0.790   8.576 -0.4065  1.3098  1.6391
   89SAPS     N 8545   4.959   3.625  10.969  0.9283  0.8103  0.0070
   89SAPS   HN1 8546   4.956   3.726  10.944 -3.1985  1.1286  1.0109
   89SAPS   HN2 8547   4.880   3.610  11.035 -0.2971  0.3034 -1.4962
   89SAPS   HN3 8548   5.045   3.612  11.025  2.0251  2.6130 -1.1603
   89SAPS   C12 8549   4.953   3.524  10.849 -0.7385 -0.0839 -0.0199
   89SAPS  H12A 8550   5.035   3.550  10.783 -1.6139  1.8686 -0.4349
   89SAPS   C13 8551   4.967   3.371  10.878 -0.0070 -0.5762 -0.2865
   89SAPS  O13A 8552   4.954   3.330  10.996 -0.5437  0.4391  0.4943
   89SAPS  O13B 8553   4.957   3.293  10.780 -0.0090 -0.2223 -0.6154
   89SAPS   C11 8554   4.813   3.540  10.779 -0.9166 -0.4013  0.5760
   89SAPS  H11A 8555   4.726   3.514  10.842 -0.9015 -0.7989  0.4367
   89SAPS  H11B 8556   4.803   3.474  10.689 -2.7023  1.9880 -1.1013
   89SAPS     P 8557   4.853   3.762  10.623  0.4652 -0.1706  0.2529
   89SAPS   O13 8558   4.757   3.880  10.609  0.0798  0.5039  0.1889
   89SAPS   O14 8559   4.989   3.792  10.662  0.1598 -0.3612  0.2951
   89SAPS   O12 8560   4.785   3.678  10.731  0.2625  0.0724  0.2647
   89SAPS   O11 8561   4.845   3.665  10.499  0.4582  0.4545  0.6057
   89SAPS    C1 8562   4.723   3.650  10.422 -0.0746 -0.2136  0.3413
   89SAPS    HA 8563   4.658   3.572  10.468 -0.6812  0.6458  0.9754
   89SAPS    HB 8564   4.658   3.740  10.417 -0.2090 -0.3270 -0.0046
   89SAPS    C2 8565   4.753   3.589  10.280  0.6048  0.2572 -0.2879
   89SAPS    HS 8566   4.825   3.505  10.285 -0.6123 -1.0730 -3.0282
   89SAPS   O21 8567   4.807   3.703  10.206 -0.2763  0.7489  0.2131
   89SAPS   C21 8568   4.916   3.670  10.144 -0.2633 -0.2504 -0.5934
   89SAPS   O22 8569   4.952   3.555  10.117  0.3890 -0.0621  0.4470
   89SAPS   C22 8570   4.990   3.792  10.086  0.1771 -0.0417 -0.5357
   89SAPS   H2R 8571   4.914   3.847  10.027  0.5514 -0.4481 -1.4073
   89SAPS   H2S 8572   5.039   3.861  10.159 -1.9355  2.0399 -0.9550
   89SAPS    C3 8573   4.631   3.526  10.205 -0.2432 -0.4193  1.4259
   89SAPS    HX 8574   4.549   3.600  10.202 -0.4126 -0.6002 -2.2552
   89SAPS    HY 8575   4.593   3.443  10.268 -1.2788 -0.0802  1.2673
   89SAPS   O31 8576   4.652   3.489  10.069 -0.1823  0.4557 -0.3896
   89SAPS   C31 8577   4.724   3.378  10.047 -0.3855  0.1334 -0.0717
   89SAPS   O32 8578   4.747   3.295  10.133 -0.0070 -0.2728 -0.7667
   89SAPS   C32 8579   4.759   3.373   9.899  0.0089  0.4761 -0.1320
   89SAPS   H2X 8580   4.810   3.466   9.865  1.2470  0.6066  1.9338
   89SAPS   H2Y 8581   4.667   3.354   9.840  0.1014 -0.8363  0.1266
   89SAPS   C23 8582   5.111   3.744  10.001 -0.6458  0.0211 -0.3013
   89SAPS   H3R 8583   5.083   3.704   9.902  0.2045  2.4443 -1.6179
   89SAPS   H3S 8584   5.177   3.672  10.054  0.5401 -0.5684 -2.4699
   89SAPS   C24 8585   5.195   3.868   9.953 -0.1195 -0.2885  0.1169
   89SAPS   H4R 8586   5.273   3.828   9.885  0.0065 -1.1536  0.7428
   89SAPS   H4S 8587   5.242   3.916  10.041  0.1572 -1.1431  0.4492
   89SAPS   C25 8588   5.115   3.977   9.878 -0.2099  0.6291  0.0391
   89SAPS   H5R 8589   5.092   4.069   9.934  0.1969  0.3584  0.6649
   89SAPS   C26 8590   5.085   3.981   9.748  0.3682  0.3862  0.7275
   89SAPS   H6R 8591   5.017   4.060   9.713  0.5983 -0.9631 -3.3757
   89SAPS   C27 8592   5.117   3.864   9.655 -0.0821 -0.4684  0.6097
   89SAPS   H7R 8593   5.038   3.796   9.617  1.6058 -2.4772  0.5379
   89SAPS   H7S 8594   5.191   3.794   9.698  1.3882 -0.7401 -2.1459
   89SAPS   C28 8595   5.182   3.929   9.533  0.4421 -0.0987  0.2552
   89SAPS   H8R 8596   5.270   3.986   9.565  1.5187 -0.5021 -1.8178
   89SAPS   C29 8597   5.142   3.937   9.409 -0.1772  0.6881  0.7335
   89SAPS   H9R 8598   5.211   3.982   9.336  1.9851  0.3382  2.4750
   89SAPS  C210 8599   5.011   3.876   9.358  0.5373 -1.1014 -0.1990
   89SAPS  H10R 8600   4.924   3.906   9.421 -0.0951 -0.4471 -1.3457
   89SAPS  H10S 8601   5.006   3.766   9.346 -3.2676 -1.0745 -0.2918
   89SAPS  C211 8602   4.976   3.920   9.220  0.2840 -0.1390 -1.2335
   89SAPS  H11R 8603   4.875   3.963   9.216  0.5921  1.5846  3.3599
   89SAPS  C212 8604   5.047   3.916   9.103  0.4948 -0.2323  0.1157
   89SAPS  H12R 8605   4.998   3.953   9.012  0.0306 -2.8810 -0.7842
   89SAPS  C213 8606   5.188   3.858   9.096 -0.4431  0.4257 -0.3832
   89SAPS  H13R 8607   5.212   3.797   9.186 -3.0502 -0.4283 -0.1533
   89SAPS  H13S 8608   5.256   3.945   9.083 -0.6041  0.3391 -1.9157
   89SAPS  C214 8609   5.201   3.764   8.978 -0.6375  0.8121 -0.3809
   89SAPS  H14R 8610   5.110   3.703   8.969 -0.7807  0.8202  0.8103
   89SAPS  C215 8611   5.305   3.756   8.890  0.1905  0.1241 -0.4241
   89SAPS  H15R 8612   5.292   3.679   8.813 -0.2127 -0.0435 -0.1901
   89SAPS  C216 8613   5.434   3.832   8.902 -0.3073  0.2166  0.2172
   89SAPS  H16R 8614   5.517   3.760   8.918  0.3067  0.9478  0.3881
   89SAPS  H16S 8615   5.431   3.905   8.986 -0.0041 -0.4386  0.8010
   89SAPS  C217 8616   5.460   3.913   8.770  0.3716  0.0837  0.6812
   89SAPS  H17R 8617   5.550   3.979   8.778 -0.7621  1.6840  0.8035
   89SAPS  H17S 8618   5.376   3.985   8.774  1.5842  1.5129  3.6884
   89SAPS  C218 8619   5.468   3.830   8.646 -0.5421 -0.0891 -0.1166
   89SAPS  H18R 8620   5.378   3.766   8.635 -1.2745  0.8801  0.1538
   89SAPS  H18S 8621   5.556   3.762   8.650  0.7820  1.4599 -1.7042
   89SAPS  C219 8622   5.484   3.920   8.532 -0.1003 -0.0351  0.0895
   89SAPS  H19R 8623   5.586   3.960   8.545 -0.2031  1.0891 -2.0723
   89SAPS  H19S 8624   5.419   4.010   8.538  0.3865  0.2764  0.8583
   89SAPS  C220 8625   5.479   3.844   8.400  0.1034  0.0224 -0.4547
   89SAPS  H20R 8626   5.560   3.772   8.379  1.0597  1.0261 -0.2912
   89SAPS  H20S 8627   5.477   3.922   8.321  1.3302  3.1549  2.3582
   89SAPS  H20T 8628   5.381   3.793   8.387 -0.0969  0.1130  0.6021
   89SAPS   C33 8629   4.858   3.263   9.867 -0.1180  0.4952  0.2339
   89SAPS   H3X 8630   4.949   3.284   9.927  0.3673  0.4398 -0.4770
   89SAPS   H3Y 8631   4.898   3.280   9.765  0.8618 -0.3429  0.4631
   89SAPS   C34 8632   4.785   3.129   9.871 -0.0430  0.0291  0.7819
   89SAPS   H4X 8633   4.683   3.150   9.911  0.0908  1.0264  0.6348
   89SAPS   H4Y 8634   4.813   3.063   9.956 -2.8439 -0.9143  1.0784
   89SAPS   C35 8635   4.769   3.061   9.732  0.0794  0.7371 -0.2406
   89SAPS   H5X 8636   4.737   2.955   9.737 -1.2744  0.9958 -2.1102
   89SAPS   H5Y 8637   4.865   3.062   9.676 -0.1192  1.1868 -0.5854
   89SAPS   C36 8638   4.666   3.131   9.648  0.0457  0.5695  0.2461
   89SAPS   H6X 8639   4.684   3.239   9.632  0.3463  0.6500  1.0968
   89SAPS   H6Y 8640   4.561   3.115   9.680  0.0598  0.1940  0.1163
   89SAPS   C37 8641   4.667   3.077   9.504  0.0328 -0.3350 -0.6180
   89SAPS   H7X 8642   4.630   2.972   9.502  0.1429 -0.3680 -0.9393
   89SAPS   H7Y 8643   4.770   3.088   9.463  0.6007  2.4151  1.2304
   89SAPS   C38 8644   4.575   3.153   9.399 -0.2049  0.2172  0.1916
   89SAPS   H8X 8645   4.598   3.260   9.417 -0.2867 -0.0933  2.4722
   89SAPS   H8Y 8646   4.469   3.123   9.417  0.3694 -3.4898 -1.5717
   89SAPS   C39 8647   4.602   3.118   9.258  0.1947  0.1320  0.2880
   89SAPS   H9X 8648   4.593   3.007   9.263  3.8323 -0.3267 -0.4595
   89SAPS   H9Y 8649   4.703   3.141   9.219  0.1388 -2.3505 -1.5528
   89SAPS  C310 8650   4.499   3.167   9.158 -0.4396  0.1327 -0.1381
   89SAPS  H10X 8651   4.520   3.275   9.144  3.1648 -0.5589 -0.9242
   89SAPS  H10Y 8652   4.392   3.167   9.190 -1.1420  2.9034 -2.1422
   89SAPS  C311 8653   4.516   3.093   9.029 -0.4542 -0.7229  0.2432
   89SAPS  H11X 8654   4.455   3.001   9.030  0.1567 -1.1345  1.5585
   89SAPS  H11Y 8655   4.624   3.075   9.009 -0.5273 -0.3014 -0.6138
   89SAPS  C312 8656   4.477   3.189   8.921 -0.0488  0.1706  0.0427
   89SAPS  H12X 8657   4.527   3.288   8.933 -0.6906  0.6302 -0.9329
   89SAPS  H12Y 8658   4.369   3.213   8.919  0.0858  0.7648 -0.5784
   89SAPS  C313 8659   4.498   3.125   8.783  0.1426  0.4061  0.3499
   89SAPS  H13X 8660   4.409   3.072   8.742  0.1062 -1.4071  2.5647
   89SAPS  H13Y 8661   4.573   3.043   8.794 -1.6387 -1.2385  0.8620
   89SAPS  C314 8662   4.536   3.227   8.680 -0.2346  0.0856 -0.9377
   89SAPS  H14X 8663   4.608   3.298   8.726  1.2341 -1.9140 -0.0184
   89SAPS  H14Y 8664   4.442   3.277   8.645 -0.6888 -0.5310 -0.6124
   89SAPS  C315 8665   4.604   3.159   8.555 -0.0698 -0.2771 -0.3051
   89SAPS  H15X 8666   4.522   3.103   8.506 -0.1760 -2.2952  1.9852
   89SAPS  H15Y 8667   4.694   3.099   8.581  0.2357  0.4815  0.4146
   89SAPS  C316 8668   4.646   3.265   8.455 -0.3186 -0.5489 -0.1721
   89SAPS  H16X 8669   4.728   3.322   8.504 -0.8732 -0.2293  0.3994
   89SAPS  H16Y 8670   4.562   3.334   8.433 -0.1081 -0.0889  0.4286
   89SAPS  C317 8671   4.692   3.203   8.330  0.4131  0.3608  0.5121
   89SAPS  H17X 8672   4.607   3.147   8.287 -0.7241  1.5877  1.1024
   89SAPS  H17Y 8673   4.771   3.128   8.354  0.0621 -0.1450  0.1086
   89SAPS  C318 8674   4.745   3.295   8.231 -0.1302  0.1181  0.3778
   89SAPS  H18X 8675   4.669   3.363   8.187  0.5468  0.7513  0.1634
   89SAPS  H18Y 8676   4.787   3.241   8.143 -0.3322  2.0439 -0.9596
   89SAPS  H18Z 8677   4.831   3.347   8.279 -1.2816  2.5413 -0.0632
   90SAPS     N 8678   0.332   2.971  10.573 -0.1734 -0.1110 -0.0415
   90SAPS   HN1 8679   0.255   2.912  10.537  1.7606 -1.1615 -2.8643
   90SAPS   HN2 8680   0.349   3.046  10.503  1.4327 -1.2027 -0.9015
   90SAPS   HN3 8681   0.408   2.899  10.569 -0.2237 -0.1525 -3.6950
   90SAPS   C12 8682   0.314   3.026  10.708 -0.1937  0.5599  0.5704
   90SAPS  H12A 8683   0.215   3.067  10.724 -0.3929  1.4687 -2.4038
   90SAPS   C13 8684   0.319   2.914  10.814 -0.0846 -0.4453 -0.9808
   90SAPS  O13A 8685   0.294   2.797  10.780 -0.1267 -0.1916 -0.1595
   90SAPS  O13B 8686   0.307   2.948  10.940  0.2234  0.0934  0.1739
   90SAPS   C11 8687   0.414   3.143  10.735 -0.5698 -0.8776  0.4160
   90SAPS  H11A 8688   0.519   3.120  10.763 -0.2353 -1.1466 -1.0297
   90SAPS  H11B 8689   0.385   3.168  10.840 -2.2260  0.2196 -0.2562
   90SAPS     P 8690   0.452   3.301  10.526  0.0450 -0.1184  0.5062
   90SAPS   O13 8691   0.360   3.399  10.461 -0.3497  0.1319 -0.0626
   90SAPS   O14 8692   0.593   3.336  10.551 -0.0909 -0.1475  0.3740
   90SAPS   O12 8693   0.383   3.264  10.666 -0.4400  0.0587 -0.0234
   90SAPS   O11 8694   0.442   3.164  10.446  0.8286  0.1214 -0.2673
   90SAPS    C1 8695   0.539   3.120  10.351 -0.1546 -0.1343 -1.0858
   90SAPS    HA 8696   0.641   3.123  10.395  0.0484 -1.2902 -1.4510
   90SAPS    HB 8697   0.512   3.013  10.340 -0.8344 -0.0816 -0.0555
   90SAPS    C2 8698   0.552   3.186  10.211  0.4166 -0.7853  0.0385
   90SAPS    HS 8699   0.613   3.116  10.149  3.0337  2.1171 -0.9643
   90SAPS   O21 8700   0.604   3.319  10.225  0.1759  0.4459 -0.0886
   90SAPS   C21 8701   0.734   3.334  10.217 -0.1519 -0.7069  0.1375
   90SAPS   O22 8702   0.817   3.244  10.195 -0.6362  0.6737  0.5117
   90SAPS   C22 8703   0.765   3.477  10.247 -0.9476  0.0530  0.0460
   90SAPS   H2R 8704   0.709   3.500  10.340  0.6355  1.7201  0.6558
   90SAPS   H2S 8705   0.873   3.482  10.274 -0.7201 -2.1186 -0.2843
   90SAPS    C3 8706   0.412   3.204  10.142  0.1561 -0.4950 -0.1943
   90SAPS    HX 8707   0.356   3.273  10.209 -0.0133 -0.2597 -0.5783
   90SAPS    HY 8708   0.356   3.109  10.155 -0.9787 -0.0994 -1.8781
   90SAPS   O31 8709   0.416   3.243  10.003  0.8026 -0.1270  0.3488
   90SAPS   C31 8710   0.316   3.334   9.960 -0.1274 -0.1577 -0.7341
   90SAPS   O32 8711   0.235   3.388  10.034  0.3148  0.1811  0.1548
   90SAPS   C32 8712   0.334   3.367   9.812  0.1139 -0.0335 -0.4398
   90SAPS   H2X 8713   0.444   3.379   9.799  0.1766 -0.6473 -0.5320
   90SAPS   H2Y 8714   0.282   3.463   9.796 -0.4365 -0.2155  0.2340
   90SAPS   C23 8715   0.699   3.572  10.140  0.2327  0.3210 -0.0904
   90SAPS   H3R 8716   0.707   3.677  10.177  2.6240  0.6478 -1.3656
   90SAPS   H3S 8717   0.591   3.548  10.128 -0.0819  2.0127 -1.0445
   90SAPS   C24 8718   0.767   3.565  10.004  0.3009 -0.3235  0.0444
   90SAPS   H4R 8719   0.772   3.456   9.985  3.6112 -0.4875  1.1143
   90SAPS   H4S 8720   0.874   3.590  10.022  1.2570 -4.5509  1.2525
   90SAPS   C25 8721   0.682   3.649   9.910 -0.3076 -0.7416 -0.1400
   90SAPS   H5R 8722   0.633   3.732   9.963 -1.7731 -0.1858 -2.2382
   90SAPS   C26 8723   0.646   3.630   9.780 -0.4458  0.0254 -0.0330
   90SAPS   H6R 8724   0.594   3.709   9.725 -0.6069 -0.9171 -1.2895
   90SAPS   C27 8725   0.688   3.520   9.693 -0.5052  0.3678 -0.1163
   90SAPS   H7R 8726   0.605   3.492   9.626 -1.2058 -2.5329  1.7809
   90SAPS   H7S 8727   0.719   3.432   9.754  0.0781  0.3785 -0.3932
   90SAPS   C28 8728   0.811   3.560   9.620 -0.3465 -0.4103 -0.2361
   90SAPS   H8R 8729   0.907   3.564   9.672 -0.2348 -4.1679  0.1524
   90SAPS   C29 8730   0.804   3.575   9.489  0.1628 -0.2250  0.6663
   90SAPS   H9R 8731   0.893   3.615   9.439  0.7037 -1.2294  0.8141
   90SAPS  C210 8732   0.682   3.549   9.393 -0.1960 -0.7544 -0.7066
   90SAPS  H10R 8733   0.594   3.612   9.416 -0.1203 -0.7691 -0.3754
   90SAPS  H10S 8734   0.646   3.445   9.412 -0.8580 -0.9002 -2.5602
   90SAPS  C211 8735   0.721   3.583   9.252  0.4789  0.3459  0.5457
   90SAPS  H11R 8736   0.780   3.674   9.230  0.2538  0.4713  0.4527
   90SAPS  C212 8737   0.704   3.508   9.140  0.3230  0.0934  0.5247
   90SAPS  H12R 8738   0.734   3.553   9.045 -0.3108  3.2853  1.6993
   90SAPS  C213 8739   0.634   3.372   9.143  0.7801 -0.5120  0.3221
   90SAPS  H13R 8740   0.643   3.314   9.238 -1.5128 -0.5787  0.5624
   90SAPS  H13S 8741   0.675   3.314   9.058 -0.4854 -0.5838 -0.2698
   90SAPS  C214 8742   0.481   3.384   9.127 -0.2893 -0.1579 -0.7120
   90SAPS  H14R 8743   0.441   3.444   9.210  1.0508 -0.5916  0.2759
   90SAPS  C215 8744   0.407   3.328   9.029  0.0384 -0.3772  0.3179
   90SAPS  H15R 8745   0.297   3.337   9.037 -0.5143 -3.4660 -1.9699
   90SAPS  C216 8746   0.464   3.253   8.913 -0.0842 -0.6687 -0.3061
   90SAPS  H16R 8747   0.397   3.168   8.891 -1.3255  0.2148 -0.0724
   90SAPS  H16S 8748   0.561   3.206   8.940  0.3974  1.2035  1.5239
   90SAPS  C217 8749   0.476   3.344   8.789 -0.5271  0.3427  0.1445
   90SAPS  H17R 8750   0.545   3.309   8.710  1.5526  0.4403  1.8092
   90SAPS  H17S 8751   0.513   3.444   8.821 -0.8500  1.2769 -2.2288
   90SAPS  C218 8752   0.335   3.364   8.722  0.1884 -0.0167  0.7629
   90SAPS  H18R 8753   0.263   3.401   8.798 -2.8800 -1.5091 -1.2164
   90SAPS  H18S 8754   0.310   3.257   8.702  0.3725  0.3527 -1.8057
   90SAPS  C219 8755   0.321   3.435   8.595 -0.8415  0.1637  0.1370
   90SAPS  H19R 8756   0.221   3.407   8.556 -1.7556  1.5827  1.3515
   90SAPS  H19S 8757   0.395   3.407   8.517  0.2910 -0.2092  1.3029
   90SAPS  C220 8758   0.329   3.582   8.625 -0.0715 -0.2637 -0.0148
   90SAPS  H20R 8759   0.373   3.603   8.725  0.2141 -1.8559  0.2197
   90SAPS  H20S 8760   0.225   3.618   8.640  0.1140 -0.3663  1.8458
   90SAPS  H20T 8761   0.383   3.633   8.543 -0.2789 -1.2157 -0.7573
   90SAPS   C33 8762   0.277   3.249   9.727  0.1029 -0.6492  0.4398
   90SAPS   H3X 8763   0.173   3.238   9.765 -0.6585 -0.4044 -1.4994
   90SAPS   H3Y 8764   0.342   3.160   9.736  0.5071 -0.5357 -1.1754
   90SAPS   C34 8765   0.264   3.281   9.571  0.4434  0.1260  0.6451
   90SAPS   H4X 8766   0.362   3.301   9.522 -0.3349  2.6277 -0.0288
   90SAPS   H4Y 8767   0.199   3.371   9.561  1.5942  0.8061 -1.3705
   90SAPS   C35 8768   0.183   3.165   9.496  0.1967  0.1824 -0.4534
   90SAPS   H5X 8769   0.092   3.140   9.554 -1.4831  0.2419 -2.8938
   90SAPS   H5Y 8770   0.251   3.077   9.490  1.4407  1.1305 -0.7372
   90SAPS   C36 8771   0.153   3.206   9.351 -0.4506  0.2464  0.7874
   90SAPS   H6X 8772   0.249   3.241   9.308  0.7846 -2.5154  1.0503
   90SAPS   H6Y 8773   0.081   3.290   9.346 -1.2375 -0.4175  0.7038
   90SAPS   C37 8774   0.093   3.094   9.274  0.2730  0.3379  0.3113
   90SAPS   H7X 8775   0.004   3.046   9.319 -0.6985  0.7817 -1.0591
   90SAPS   H7Y 8776   0.171   3.016   9.266 -0.7572 -0.6191 -0.6927
   90SAPS   C38 8777   0.056   3.137   9.129 -0.3272 -0.2292 -0.0688
   90SAPS   H8X 8778   0.131   3.214   9.100  0.7243 -0.4950  1.7862
   90SAPS   H8Y 8779  -0.048   3.178   9.128 -1.1900 -2.2641 -1.5937
   90SAPS   C39 8780   0.057   3.020   9.023 -0.8273 -0.9693  1.0242
   90SAPS   H9X 8781  -0.027   2.951   9.049 -0.9725 -0.4132  2.1068
   90SAPS   H9Y 8782   0.157   2.972   9.033  0.9409  2.6946  2.6030
   90SAPS  C310 8783   0.052   3.078   8.884  0.3324 -0.0821  0.1801
   90SAPS  H10X 8784   0.152   3.126   8.875 -0.3182  1.0137 -1.8475
   90SAPS  H10Y 8785  -0.028   3.153   8.870 -0.4691 -0.5072  2.2770
   90SAPS  C311 8786   0.022   2.968   8.772  1.2077  0.2841 -0.4057
   90SAPS  H11X 8787  -0.051   2.904   8.827  0.7260  0.3498 -0.9690
   90SAPS  H11Y 8788   0.122   2.921   8.761  0.7450 -0.4588 -1.5392
   90SAPS  C312 8789  -0.040   3.021   8.640  0.6402 -0.5149 -0.4893
   90SAPS  H12X 8790  -0.142   3.060   8.658  1.4074  1.6224 -0.5350
   90SAPS  H12Y 8791  -0.052   2.949   8.556  2.1084  2.9748 -3.9957
   90SAPS  C313 8792   0.033   3.140   8.570 -1.1704 -0.5627 -0.2559
   90SAPS  H13X 8793   0.120   3.097   8.517 -2.2866 -1.4968 -1.4088
   90SAPS  H13Y 8794   0.062   3.212   8.650  2.1418 -2.2212  0.2075
   90SAPS  C314 8795  -0.055   3.213   8.470 -1.1226  0.0369 -0.7243
   90SAPS  H14X 8796  -0.084   3.143   8.389  0.1004 -0.7288 -0.5297
   90SAPS  H14Y 8797   0.012   3.279   8.411 -1.0915 -0.3654 -1.1456
   90SAPS  C315 8798  -0.162   3.300   8.531 -0.0251  0.0497 -0.3426
   90SAPS  H15X 8799  -0.117   3.380   8.593 -2.1111 -1.1337  3.0141
   90SAPS  H15Y 8800  -0.223   3.238   8.601 -0.3578  0.6499 -0.0902
   90SAPS  C316 8801  -0.247   3.350   8.411  0.4040  0.5769  0.5325
   90SAPS  H16X 8802  -0.280   3.265   8.348  1.0971  2.5622 -2.8008
   90SAPS  H16Y 8803  -0.176   3.413   8.353 -0.2560  1.0055  0.1676
   90SAPS  C317 8804  -0.375   3.438   8.436 -0.5517 -0.2536 -0.4926
   90SAPS  H17X 8805  -0.339   3.520   8.501 -2.0006 -2.3959  3.3366
   90SAPS  H17Y 8806  -0.441   3.374   8.499  1.1865 -2.0507 -0.3902
   90SAPS  C318 8807  -0.442   3.481   8.308  0.0193 -0.1329 -0.3555
   90SAPS  H18X 8808  -0.537   3.539   8.314  0.0339 -0.2216  0.8549
   90SAPS  H18Y 8809  -0.473   3.381   8.271 -2.6383  0.6803 -0.5376
   90SAPS  H18Z 8810  -0.379   3.509   8.220 -1.7275 -1.7913 -2.2441
   91SAPS     N 8811   3.939   1.792   6.132  0.1801 -0.6320  0.0631
   91SAPS   HN1 8812   4.028   1.813   6.182 -1.3441  0.7498  2.3648
   91SAPS   HN2 8813   3.880   1.877   6.128 -1.9551 -2.0423  0.2370
   91SAPS   HN3 8814   3.884   1.722   6.186  0.5711 -0.5516  0.5717
   91SAPS   C12 8815   3.972   1.744   5.994 -0.0822 -0.1618 -0.1169
   91SAPS  H12A 8816   3.878   1.699   5.968  0.0737 -0.5561  0.0017
   91SAPS   C13 8817   4.007   1.849   5.882 -0.6009 -0.1702  0.3422
   91SAPS  O13A 8818   4.033   1.963   5.924 -0.3783 -0.4090  0.5241
   91SAPS  O13B 8819   4.035   1.817   5.760  0.0076 -0.2285 -0.4222
   91SAPS   C11 8820   4.090   1.642   6.007 -0.8122 -0.7565 -0.0544
   91SAPS  H11A 8821   4.178   1.701   6.039 -0.0835 -0.2606 -2.7230
   91SAPS  H11B 8822   4.116   1.603   5.907 -1.1869 -0.5658 -0.2285
   91SAPS     P 8823   4.120   1.403   6.084 -0.2030  0.3019  0.3130
   91SAPS   O13 8824   4.055   1.321   5.978 -0.4622 -0.0667  0.1807
   91SAPS   O14 8825   4.266   1.408   6.076 -0.1840  0.1561  0.5289
   91SAPS   O12 8826   4.062   1.549   6.103  0.0367 -0.0765 -0.0276
   91SAPS   O11 8827   4.090   1.329   6.222  0.5895  0.2778 -0.3457
   91SAPS    C1 8828   4.088   1.384   6.353  0.5310  0.2166  0.0522
   91SAPS    HA 8829   4.037   1.482   6.343 -0.1975 -0.2323 -0.8728
   91SAPS    HB 8830   4.019   1.327   6.419  0.5539 -0.5485 -0.5586
   91SAPS    C2 8831   4.230   1.399   6.426 -0.0867  0.1288  0.1470
   91SAPS    HS 8832   4.297   1.406   6.337  0.2307  0.3095  0.3979
   91SAPS   O21 8833   4.261   1.276   6.491  0.3889  0.1323 -0.2811
   91SAPS   C21 8834   4.387   1.252   6.497  0.2787  0.6507 -0.0423
   91SAPS   O22 8835   4.476   1.321   6.443  0.3249  0.5214 -0.1732
   91SAPS   C22 8836   4.409   1.118   6.571  0.3319  0.4014  0.1841
   91SAPS   H2R 8837   4.344   1.137   6.660  0.2577  2.8120 -0.3097
   91SAPS   H2S 8838   4.368   1.036   6.508  0.3302  1.3565 -1.0952
   91SAPS    C3 8839   4.243   1.521   6.528  0.3354  0.1523 -0.0630
   91SAPS    HX 8840   4.227   1.606   6.459 -0.3083  1.6684  1.8455
   91SAPS    HY 8841   4.346   1.535   6.566 -0.0767  4.6191 -0.1716
   91SAPS   O31 8842   4.142   1.539   6.632  0.6423  0.8307  0.4561
   91SAPS   C31 8843   4.166   1.474   6.746 -0.2216 -0.3128  0.2083
   91SAPS   O32 8844   4.273   1.428   6.778 -0.1330 -0.3240 -0.3431
   91SAPS   C32 8845   4.035   1.462   6.817 -0.4058 -0.9579 -0.0985
   91SAPS   H2X 8846   4.008   1.355   6.805 -0.0482 -0.8279 -2.6413
   91SAPS   H2Y 8847   3.957   1.527   6.772 -1.4054 -1.3474  1.0118
   91SAPS   C23 8848   4.553   1.096   6.623 -0.2147  0.7097  0.3173
   91SAPS   H3R 8849   4.603   1.190   6.656 -1.5963  1.0694  1.5071
   91SAPS   H3S 8850   4.615   1.053   6.541  0.8612  0.3926  1.2593
   91SAPS   C24 8851   4.556   0.996   6.742 -0.5054 -0.4342  0.0262
   91SAPS   H4R 8852   4.480   0.920   6.713 -0.5513 -0.1458 -0.6364
   91SAPS   H4S 8853   4.509   1.054   6.825 -1.8527 -0.6158 -0.5822
   91SAPS   C25 8854   4.698   0.955   6.772 -0.3528 -0.1467  0.0135
   91SAPS   H5R 8855   4.761   0.964   6.682 -0.0445 -2.3276 -0.0380
   91SAPS   C26 8856   4.745   0.933   6.898 -0.2083 -0.4182  0.5499
   91SAPS   H6R 8857   4.851   0.905   6.904  0.4753  1.8844  0.2744
   91SAPS   C27 8858   4.669   0.942   7.032  0.1464  0.1134 -0.7290
   91SAPS   H7R 8859   4.563   0.971   7.020 -0.6964 -2.3626  0.0332
   91SAPS   H7S 8860   4.710   1.016   7.105 -1.6010  1.4227 -1.0120
   91SAPS   C28 8861   4.669   0.809   7.089  0.5503  0.5490 -0.5563
   91SAPS   H8R 8862   4.629   0.726   7.031  0.3636  0.0482  0.2655
   91SAPS   C29 8863   4.708   0.778   7.219  0.3924 -0.0165  0.5310
   91SAPS   H9R 8864   4.693   0.673   7.250  1.2906 -0.4638 -0.4707
   91SAPS  C210 8865   4.768   0.874   7.316 -0.6554 -0.1555  0.6582
   91SAPS  H10R 8866   4.814   0.959   7.261  0.9422 -0.9395  0.7186
   91SAPS  H10S 8867   4.854   0.819   7.361  0.3503 -2.3264 -3.4465
   91SAPS  C211 8868   4.668   0.935   7.415  0.0603 -0.2170 -0.6380
   91SAPS  H11R 8869   4.587   0.984   7.359  1.1851  0.4897 -1.7339
   91SAPS  C212 8870   4.670   0.929   7.550 -0.1074  0.3362  0.2054
   91SAPS  H12R 8871   4.599   0.995   7.602  2.5191  3.3079  0.3098
   91SAPS  C213 8872   4.779   0.876   7.643 -0.2126 -0.1164  0.3398
   91SAPS  H13R 8873   4.861   0.950   7.635 -1.7807  1.6878  0.2393
   91SAPS  H13S 8874   4.807   0.781   7.592 -0.9437 -0.1653  0.0176
   91SAPS  C214 8875   4.735   0.834   7.783  1.1384  0.2765 -0.3386
   91SAPS  H14R 8876   4.727   0.725   7.796  1.6081  0.1257 -1.2210
   91SAPS  C215 8877   4.700   0.906   7.890  0.1014  0.1107  0.3788
   91SAPS  H15R 8878   4.680   0.857   7.987  2.9294 -1.2366  0.3847
   91SAPS  C216 8879   4.695   1.060   7.894  0.3671  0.2271  0.0761
   91SAPS  H16R 8880   4.590   1.093   7.882  0.2805 -0.6943 -2.1708
   91SAPS  H16S 8881   4.754   1.116   7.818 -1.4794  3.5053  0.8787
   91SAPS  C217 8882   4.741   1.119   8.028 -0.5055 -0.6172 -0.1267
   91SAPS  H17R 8883   4.679   1.078   8.110 -0.0092  0.8075  1.0008
   91SAPS  H17S 8884   4.704   1.223   8.034  2.5831  0.5387  0.9128
   91SAPS  C218 8885   4.890   1.114   8.056  0.5396  0.0869  0.2929
   91SAPS  H18R 8886   4.949   1.162   7.975 -1.8266  1.5693 -0.6614
   91SAPS  H18S 8887   4.929   1.011   8.043 -1.3075 -0.5719 -0.3535
   91SAPS  C219 8888   4.921   1.171   8.201 -0.1948 -0.3783  0.5604
   91SAPS  H19R 8889   5.018   1.131   8.237  0.9187  0.9058 -0.9285
   91SAPS  H19S 8890   4.850   1.128   8.275  0.5137  1.1293  2.1727
   91SAPS  C220 8891   4.917   1.323   8.204  0.8464 -0.3592  0.0149
   91SAPS  H20R 8892   4.944   1.361   8.305  1.9703 -0.1717 -0.3342
   91SAPS  H20S 8893   4.819   1.366   8.176 -0.7804 -2.7754  1.6652
   91SAPS  H20T 8894   4.990   1.353   8.125 -0.3497 -0.3013 -1.1009
   91SAPS   C33 8895   4.036   1.501   6.960 -0.6822  0.0503 -0.4548
   91SAPS   H3X 8896   4.067   1.607   6.975  0.1580 -0.0028 -1.6916
   91SAPS   H3Y 8897   4.110   1.437   7.011 -1.5242  0.3072  1.1475
   91SAPS   C34 8898   3.904   1.476   7.028 -0.9589  0.8312 -0.2249
   91SAPS   H4X 8899   3.876   1.368   7.025  1.7808 -0.2118  3.6674
   91SAPS   H4Y 8900   3.846   1.539   6.958  0.3774  1.9358 -0.3575
   91SAPS   C35 8901   3.895   1.532   7.169  0.2240  0.3693  0.0042
   91SAPS   H5X 8902   3.787   1.554   7.178  0.2740  1.9939 -2.3504
   91SAPS   H5Y 8903   3.944   1.631   7.179 -1.6513  2.0035 -4.3046
   91SAPS   C36 8904   3.934   1.430   7.277 -0.3076 -0.0250  0.1160
   91SAPS   H6X 8905   4.045   1.426   7.274 -0.1689  2.2132  0.1275
   91SAPS   H6Y 8906   3.900   1.326   7.258 -0.1570  0.1761 -1.3695
   91SAPS   C37 8907   3.897   1.486   7.415  1.0972 -0.2740 -0.3529
   91SAPS   H7X 8908   3.787   1.482   7.433  1.5393 -2.3645  2.7210
   91SAPS   H7Y 8909   3.937   1.589   7.409 -0.7650  0.4274 -2.0549
   91SAPS   C38 8910   3.967   1.408   7.531 -0.3756 -0.6492  0.3691
   91SAPS   H8X 8911   4.076   1.431   7.522 -0.6606  1.2474  1.2888
   91SAPS   H8Y 8912   3.949   1.299   7.523 -0.8698 -0.4714 -1.0294
   91SAPS   C39 8913   3.910   1.457   7.661  0.2278 -0.4539  0.2024
   91SAPS   H9X 8914   3.810   1.410   7.673  0.6905 -1.2559  1.0590
   91SAPS   H9Y 8915   3.898   1.567   7.649 -1.4217 -0.5430  0.7251
   91SAPS  C310 8916   3.991   1.414   7.779  0.1420  0.7350  0.4719
   91SAPS  H10X 8917   4.096   1.450   7.783  0.1091  0.7034  2.8840
   91SAPS  H10Y 8918   3.998   1.304   7.789 -2.0421  0.5167 -0.0140
   91SAPS  C311 8919   3.921   1.469   7.908 -0.1777  0.3807 -0.2859
   91SAPS  H11X 8920   3.827   1.413   7.928  0.6568 -1.6537 -1.7141
   91SAPS  H11Y 8921   3.895   1.576   7.893 -1.8551  0.0515  0.0416
   91SAPS  C312 8922   4.026   1.465   8.024  0.5551  0.0459  0.3045
   91SAPS  H12X 8923   4.084   1.372   8.006 -0.8988 -0.9382  0.6242
   91SAPS  H12Y 8924   3.969   1.451   8.118  0.5979  0.0010  0.3241
   91SAPS  C313 8925   4.103   1.600   8.020 -0.4428 -0.1403  0.1332
   91SAPS  H13X 8926   4.034   1.681   8.050 -0.3811 -0.6648  1.7924
   91SAPS  H13Y 8927   4.151   1.616   7.921 -1.1980 -0.8225 -0.3551
   91SAPS  C314 8928   4.206   1.612   8.143 -0.3523  0.1707  0.6818
   91SAPS  H14X 8929   4.268   1.702   8.126  1.5530 -0.9572  1.3822
   91SAPS  H14Y 8930   4.277   1.527   8.130  1.6561  1.6780  1.3740
   91SAPS  C315 8931   4.148   1.620   8.278  0.2076 -0.8822 -0.5030
   91SAPS  H15X 8932   4.091   1.527   8.298 -1.5643  0.0214 -1.1719
   91SAPS  H15Y 8933   4.086   1.711   8.288 -0.3174 -1.4033  1.2551
   91SAPS  C316 8934   4.257   1.626   8.387  0.7180  0.7253 -0.6788
   91SAPS  H16X 8935   4.323   1.537   8.380 -1.5497 -1.1041  0.1468
   91SAPS  H16Y 8936   4.204   1.610   8.483 -0.1599  0.0341 -1.2617
   91SAPS  C317 8937   4.330   1.761   8.396  0.3801 -0.2166  0.5771
   91SAPS  H17X 8938   4.250   1.833   8.425 -2.3429 -2.6106 -0.4974
   91SAPS  H17Y 8939   4.376   1.787   8.298 -0.1884  2.6959  0.9695
   91SAPS  C318 8940   4.450   1.763   8.493  0.2300  1.1101 -0.4633
   91SAPS  H18X 8941   4.536   1.694   8.479  1.3549  1.5310  3.1745
   91SAPS  H18Y 8942   4.411   1.722   8.589  2.7012 -0.7937 -0.1735
   91SAPS  H18Z 8943   4.491   1.862   8.524  1.4779 -0.1342  2.1959
   92SAPS     N 8944   1.920   5.219   6.207 -0.3108 -0.2469 -0.5927
   92SAPS   HN1 8945   1.958   5.133   6.251  0.9029 -0.3326 -1.7322
   92SAPS   HN2 8946   1.828   5.238   6.250  0.9964  1.1471  1.8043
   92SAPS   HN3 8947   1.913   5.206   6.104 -1.0647  0.4583 -0.6406
   92SAPS   C12 8948   2.024   5.324   6.232  0.0763 -0.2473 -0.4830
   92SAPS  H12A 8949   2.118   5.298   6.186 -2.1749 -2.7240 -4.2377
   92SAPS   C13 8950   1.988   5.465   6.169  0.2954  0.4065  0.2454
   92SAPS  O13A 8951   1.877   5.499   6.123 -0.1660  0.6920 -0.3427
   92SAPS  O13B 8952   2.080   5.549   6.174 -0.2669 -0.1994 -0.2752
   92SAPS   C11 8953   2.038   5.337   6.391 -0.0437 -0.1874 -0.1192
   92SAPS  H11A 8954   1.950   5.396   6.425 -0.2181 -0.4326 -0.1469
   92SAPS  H11B 8955   2.126   5.405   6.393 -0.4491  0.3575  1.8484
   92SAPS     P 8956   2.177   5.195   6.573 -0.1529 -0.0060  0.0679
   92SAPS   O13 8957   2.127   5.104   6.675 -0.2644 -0.2476  0.3191
   92SAPS   O14 8958   2.304   5.164   6.511 -0.4235  0.4188 -1.0450
   92SAPS   O12 8959   2.063   5.210   6.454  0.0519  0.2329 -0.1328
   92SAPS   O11 8960   2.182   5.345   6.634 -0.0552  0.5764  0.8238
   92SAPS    C1 8961   2.084   5.383   6.727 -0.3895  0.1940 -0.2543
   92SAPS    HA 8962   2.088   5.494   6.732 -0.7602  0.1999 -0.0489
   92SAPS    HB 8963   1.983   5.349   6.696 -0.9942  0.5589  1.2038
   92SAPS    C2 8964   2.118   5.335   6.872 -0.1995 -0.0112  0.5428
   92SAPS    HS 8965   2.140   5.226   6.879 -1.3735 -0.3922 -0.9903
   92SAPS   O21 8966   2.007   5.376   6.950 -0.1962 -0.5667  0.0301
   92SAPS   C21 8967   1.908   5.292   6.953 -0.1233  0.0967 -0.2373
   92SAPS   O22 8968   1.898   5.192   6.889 -0.1576 -0.1197  0.5413
   92SAPS   C22 8969   1.794   5.343   7.042  0.2625 -0.5624  0.0331
   92SAPS   H2R 8970   1.771   5.264   7.117 -0.4663 -0.2562  0.1419
   92SAPS   H2S 8971   1.838   5.427   7.100  0.9511 -1.3002  0.6036
   92SAPS    C3 8972   2.244   5.401   6.926  0.6545 -0.4188  0.5050
   92SAPS    HX 8973   2.235   5.511   6.907 -0.1430 -0.6056 -0.2681
   92SAPS    HY 8974   2.326   5.362   6.862  1.7824  1.4393  0.7217
   92SAPS   O31 8975   2.267   5.385   7.070 -0.5890 -0.3171 -0.7722
   92SAPS   C31 8976   2.270   5.484   7.154 -0.8060 -0.6330  0.0619
   92SAPS   O32 8977   2.255   5.604   7.129  0.5876 -0.0020  0.9141
   92SAPS   C32 8978   2.290   5.430   7.297 -0.2938  0.9481 -0.2145
   92SAPS   H2X 8979   2.380   5.364   7.297 -3.0993 -3.2987 -0.9877
   92SAPS   H2Y 8980   2.200   5.368   7.317 -0.8072  2.3146  2.0506
   92SAPS   C23 8981   1.664   5.399   6.970 -0.2650 -0.1627  0.9087
   92SAPS   H3R 8982   1.624   5.312   6.915  3.0899 -2.0324  1.1340
   92SAPS   H3S 8983   1.705   5.470   6.894 -0.7443 -1.1207 -0.2780
   92SAPS   C24 8984   1.559   5.457   7.071  0.0585 -0.3024  0.6024
   92SAPS   H4R 8985   1.477   5.489   7.004  1.7922 -0.9158 -1.9804
   92SAPS   H4S 8986   1.596   5.556   7.106 -2.3425  0.2887  1.6826
   92SAPS   C25 8987   1.510   5.377   7.189 -0.1450 -0.2868 -0.0529
   92SAPS   H5R 8988   1.481   5.278   7.151  2.2512 -0.6171 -1.1868
   92SAPS   C26 8989   1.514   5.400   7.323 -0.7112 -0.5119 -0.0449
   92SAPS   H6R 8990   1.480   5.314   7.382  1.7965  0.6242  3.4383
   92SAPS   C27 8991   1.554   5.518   7.418  0.2666  0.3850 -0.3272
   92SAPS   H7R 8992   1.461   5.544   7.473  0.6531  4.7996 -1.4116
   92SAPS   H7S 8993   1.575   5.615   7.368  0.8840  1.0833  1.2064
   92SAPS   C28 8994   1.673   5.469   7.499  0.0627 -0.1928  0.5386
   92SAPS   H8R 8995   1.762   5.447   7.439  0.0631  1.0210  0.0512
   92SAPS   C29 8996   1.658   5.419   7.626  0.5418  0.0099  0.1849
   92SAPS   H9R 8997   1.748   5.388   7.680  0.8669  2.3579  1.0994
   92SAPS  C210 8998   1.529   5.425   7.706  1.0635 -0.0555 -0.7594
   92SAPS  H10R 8999   1.530   5.354   7.792  1.0287 -0.5242 -1.1409
   92SAPS  H10S 9000   1.445   5.382   7.647  0.7808 -1.0891  0.3582
   92SAPS  C211 9001   1.506   5.572   7.739 -0.1789  0.3835  0.2960
   92SAPS  H11R 9002   1.566   5.643   7.680 -0.8279  0.0126 -0.8496
   92SAPS  C212 9003   1.429   5.631   7.831 -0.1629  0.6586 -0.1495
   92SAPS  H12R 9004   1.429   5.740   7.844 -1.0086  0.6570 -0.0838
   92SAPS  C213 9005   1.350   5.550   7.929 -0.3583 -0.1625 -0.6457
   92SAPS  H13R 9006   1.384   5.598   8.023  0.8768 -2.4933  0.1653
   92SAPS  H13S 9007   1.391   5.447   7.934 -1.9955 -0.8292 -0.4526
   92SAPS  C214 9008   1.199   5.560   7.939 -0.5681  0.1265 -0.1562
   92SAPS  H14R 9009   1.161   5.624   8.020 -1.7950  1.4532 -1.7103
   92SAPS  C215 9010   1.107   5.520   7.847 -0.1617 -0.4017  0.9043
   92SAPS  H15R 9011   0.999   5.516   7.869 -0.4138  0.2953 -0.1043
   92SAPS  C216 9012   1.137   5.442   7.719  0.7148 -0.3745 -0.8296
   92SAPS  H16R 9013   1.071   5.353   7.715 -0.0374  0.1759 -0.7965
   92SAPS  H16S 9014   1.234   5.387   7.722  1.1852  0.4574  2.2951
   92SAPS  C217 9015   1.131   5.514   7.584 -0.1986 -0.0487  0.5692
   92SAPS  H17R 9016   1.207   5.595   7.580  0.1936 -0.4386  0.0653
   92SAPS  H17S 9017   1.029   5.551   7.558  0.4052 -0.0154 -1.9941
   92SAPS  C218 9018   1.146   5.419   7.463 -0.0886  0.5872  0.4270
   92SAPS  H18R 9019   1.081   5.329   7.473 -1.9911  2.0627  2.4337
   92SAPS  H18S 9020   1.252   5.385   7.458 -0.3295 -0.0517 -1.0651
   92SAPS  C219 9021   1.111   5.493   7.335  0.1005  0.3287  0.0709
   92SAPS  H19R 9022   1.174   5.585   7.335 -1.6163  1.6113  2.1965
   92SAPS  H19S 9023   1.004   5.519   7.326  0.0908  0.0237 -0.7475
   92SAPS  C220 9024   1.153   5.409   7.203  0.6982 -0.0512 -0.6041
   92SAPS  H20R 9025   1.101   5.311   7.209  0.9517 -0.1010  1.7505
   92SAPS  H20S 9026   1.263   5.398   7.219  1.1590  1.4915 -2.4032
   92SAPS  H20T 9027   1.123   5.468   7.115  0.6956  2.3296  0.9026
   92SAPS   C33 9028   2.308   5.538   7.407 -0.4711  0.5192  0.8325
   92SAPS   H3X 9029   2.209   5.588   7.414 -0.0018  1.3923  1.3713
   92SAPS   H3Y 9030   2.387   5.615   7.388  0.5782 -0.8917 -0.8601
   92SAPS   C34 9031   2.323   5.496   7.556 -0.0767 -0.7195  0.6522
   92SAPS   H4X 9032   2.423   5.450   7.566  0.7099  0.6284 -0.5931
   92SAPS   H4Y 9033   2.256   5.410   7.577  1.4032 -1.3925  3.0509
   92SAPS   C35 9034   2.294   5.610   7.651  0.0867 -0.5263 -1.0021
   92SAPS   H5X 9035   2.209   5.675   7.622  0.8077  0.0454 -1.9057
   92SAPS   H5Y 9036   2.377   5.683   7.658  0.5697 -0.9929 -1.6981
   92SAPS   C36 9037   2.266   5.557   7.788 -0.2252 -0.5065 -0.1090
   92SAPS   H6X 9038   2.350   5.504   7.839  0.2497  1.2465  1.0327
   92SAPS   H6Y 9039   2.179   5.487   7.788  1.0814 -2.2524 -1.8828
   92SAPS   C37 9040   2.252   5.672   7.890  0.1050  0.5149 -0.1355
   92SAPS   H7X 9041   2.172   5.735   7.846  0.8606  0.5901 -1.4347
   92SAPS   H7Y 9042   2.346   5.732   7.882 -0.5101  1.5724  0.2900
   92SAPS   C38 9043   2.225   5.612   8.032  0.2092 -0.3061  0.6436
   92SAPS   H8X 9044   2.286   5.520   8.042  2.4758  1.1110  0.7558
   92SAPS   H8Y 9045   2.118   5.591   8.051 -1.1752  4.6429 -0.1542
   92SAPS   C39 9046   2.274   5.696   8.153 -0.3821 -0.4357  0.0158
   92SAPS   H9X 9047   2.202   5.775   8.185 -0.9266 -1.6134  1.8265
   92SAPS   H9Y 9048   2.373   5.740   8.127 -0.4903 -1.0437 -1.5402
   92SAPS  C310 9049   2.292   5.616   8.279  0.4026  0.5071 -1.0139
   92SAPS  H10X 9050   2.336   5.679   8.359  0.4686  0.8933 -1.3463
   92SAPS  H10Y 9051   2.362   5.531   8.265 -1.3260 -1.3060  0.7285
   92SAPS  C311 9052   2.160   5.559   8.336 -0.7679  0.1954  0.8890
   92SAPS  H11X 9053   2.133   5.480   8.263  0.2455  1.7892 -1.3153
   92SAPS  H11Y 9054   2.073   5.626   8.322  0.2427  1.2997 -0.2883
   92SAPS  C312 9055   2.173   5.474   8.462 -0.5292  0.7521 -0.6749
   92SAPS  H12X 9056   2.204   5.539   8.546  2.1873 -0.1417 -0.9032
   92SAPS  H12Y 9057   2.258   5.405   8.445 -0.6313 -0.1560  2.0320
   92SAPS  C313 9058   2.047   5.410   8.507  0.2085 -0.0726 -0.4335
   92SAPS  H13X 9059   2.064   5.344   8.595  1.3186  0.2811 -0.3704
   92SAPS  H13Y 9060   2.001   5.355   8.423 -0.1477  1.7479 -1.4856
   92SAPS  C314 9061   1.929   5.505   8.542 -0.2321 -0.2460 -0.1848
   92SAPS  H14X 9062   1.898   5.570   8.457 -0.4927  1.9758  1.4917
   92SAPS  H14Y 9063   1.973   5.565   8.625 -0.3745  0.8165 -0.8627
   92SAPS  C315 9064   1.797   5.438   8.601 -0.7916 -0.6616  0.9615
   92SAPS  H15X 9065   1.719   5.517   8.603 -1.6305 -1.4692  0.5586
   92SAPS  H15Y 9066   1.821   5.408   8.705 -0.8612 -0.7336  0.9569
   92SAPS  C316 9067   1.750   5.314   8.525  0.7265  0.1993  0.3543
   92SAPS  H16X 9068   1.665   5.286   8.591  1.1939  1.5034  1.5732
   92SAPS  H16Y 9069   1.830   5.236   8.524 -1.6166 -2.3904 -2.0737
   92SAPS  C317 9070   1.708   5.328   8.376 -0.1479 -0.4079  0.3397
   92SAPS  H17X 9071   1.792   5.372   8.317 -1.7233  2.5479  0.1226
   92SAPS  H17Y 9072   1.627   5.402   8.360  2.3772  2.8754  1.5650
   92SAPS  C318 9073   1.656   5.188   8.330  0.0170  0.5883 -0.0972
   92SAPS  H18X 9074   1.679   5.167   8.224 -2.9487 -2.7725 -0.2593
   92SAPS  H18Y 9075   1.546   5.175   8.339 -0.3598  1.7688 -2.3543
   92SAPS  H18Z 9076   1.713   5.111   8.387  0.8185  0.7286 -0.7011
   93SAPS     N 9077   2.703   5.051   6.435  0.5400 -0.0112  0.0024
   93SAPS   HN1 9078   2.683   5.147   6.399  2.0077  0.1916 -0.3525
   93SAPS   HN2 9079   2.662   4.967   6.391  1.1695 -0.9014  1.0674
   93SAPS   HN3 9080   2.657   5.055   6.528 -0.5430  1.2918 -0.5553
   93SAPS   C12 9081   2.844   5.037   6.444  0.5332  0.5431 -0.7060
   93SAPS  H12A 9082   2.846   4.948   6.506 -4.1287  1.5266  1.2863
   93SAPS   C13 9083   2.916   5.032   6.313  0.5877  0.5183  0.4435
   93SAPS  O13A 9084   2.864   5.080   6.206  0.5088  0.5942 -0.0878
   93SAPS  O13B 9085   3.036   4.992   6.309  0.5734  0.1637  0.0948
   93SAPS   C11 9086   2.899   5.146   6.535 -0.0232  0.9554 -0.4240
   93SAPS  H11A 9087   2.994   5.109   6.579 -1.5965 -2.9615  0.1397
   93SAPS  H11B 9088   2.825   5.155   6.617 -0.2794 -1.5354 -0.2974
   93SAPS     P 9089   2.826   5.382   6.438  0.0954  0.0767  0.1383
   93SAPS   O13 9090   2.880   5.463   6.324  0.1553  0.7031  0.1785
   93SAPS   O14 9091   2.698   5.321   6.402 -0.4358 -0.4022 -0.5939
   93SAPS   O12 9092   2.928   5.273   6.472 -0.0424  0.6303 -0.1239
   93SAPS   O11 9093   2.813   5.468   6.574 -0.2476 -0.2551 -0.6116
   93SAPS    C1 9094   2.723   5.427   6.680  0.6012  0.4291 -0.4689
   93SAPS    HA 9095   2.621   5.442   6.637  0.7559  0.0882 -0.9708
   93SAPS    HB 9096   2.734   5.317   6.688  1.6145  0.5250 -0.5098
   93SAPS    C2 9097   2.745   5.500   6.810  0.5965 -0.2524 -0.4263
   93SAPS    HS 9098   2.740   5.608   6.785 -0.2605 -0.5014 -1.4112
   93SAPS   O21 9099   2.861   5.454   6.877 -0.0953 -0.1911 -0.3302
   93SAPS   C21 9100   2.972   5.519   6.846  0.4294 -0.0217 -0.5948
   93SAPS   O22 9101   2.979   5.615   6.770  0.2737 -0.2062  0.0244
   93SAPS   C22 9102   3.086   5.439   6.900 -0.6882 -0.4054 -0.0166
   93SAPS   H2R 9103   3.067   5.338   6.859  2.7905 -0.9813 -0.5048
   93SAPS   H2S 9104   3.183   5.476   6.858  0.4447 -1.5063  1.5140
   93SAPS    C3 9105   2.620   5.480   6.910  0.2767  0.1775  0.2274
   93SAPS    HX 9106   2.531   5.497   6.844  1.2097 -0.6318 -1.2929
   93SAPS    HY 9107   2.637   5.568   6.976 -2.8449  1.6672 -0.7480
   93SAPS   O31 9108   2.610   5.367   6.999 -0.5056  0.0827 -0.3642
   93SAPS   C31 9109   2.571   5.254   6.946  0.1578  0.2611  0.0253
   93SAPS   O32 9110   2.536   5.231   6.834 -0.3910 -0.0450  0.2011
   93SAPS   C32 9111   2.582   5.146   7.057 -0.0604  0.1876  0.4363
   93SAPS   H2X 9112   2.583   5.049   7.004  1.1366  1.3009 -1.7333
   93SAPS   H2Y 9113   2.490   5.125   7.115  0.0738 -2.3873 -0.1984
   93SAPS   C23 9114   3.093   5.433   7.058 -0.0523  0.0062 -0.0124
   93SAPS   H3R 9115   3.183   5.373   7.086  1.4566  1.5693 -1.3360
   93SAPS   H3S 9116   2.999   5.386   7.095  0.8677 -1.4881  0.5376
   93SAPS   C24 9117   3.125   5.575   7.114 -0.6191  0.5120  0.4533
   93SAPS   H4R 9118   3.219   5.609   7.066 -1.3703 -0.1835 -1.6303
   93SAPS   H4S 9119   3.149   5.555   7.220 -0.2495 -0.7567  0.1520
   93SAPS   C25 9120   3.007   5.670   7.111 -0.8424 -0.4615 -0.1082
   93SAPS   H5R 9121   3.024   5.766   7.061 -1.4487  0.5617  1.5661
   93SAPS   C26 9122   2.885   5.663   7.180 -0.1899 -0.2082 -0.3849
   93SAPS   H6R 9123   2.810   5.742   7.165  1.4751  1.1601 -1.9902
   93SAPS   C27 9124   2.836   5.553   7.268 -0.4685 -0.1378 -0.2872
   93SAPS   H7R 9125   2.913   5.481   7.304 -1.9838 -1.6547  0.0202
   93SAPS   H7S 9126   2.773   5.485   7.207 -1.2382 -1.1661  1.5992
   93SAPS   C28 9127   2.760   5.598   7.389 -0.4830 -0.1081  0.0819
   93SAPS   H8R 9128   2.770   5.704   7.415 -0.5947 -0.0493 -0.1132
   93SAPS   C29 9129   2.690   5.521   7.473  0.1258 -0.1788  0.3513
   93SAPS   H9R 9130   2.644   5.577   7.555 -0.9840 -1.4353  0.6264
   93SAPS  C210 9131   2.670   5.367   7.472  0.0448  0.2103  0.5165
   93SAPS  H10R 9132   2.746   5.319   7.406  0.4702 -1.6916  2.2568
   93SAPS  H10S 9133   2.571   5.330   7.439  1.1517 -1.8153 -0.8146
   93SAPS  C211 9134   2.681   5.313   7.614 -1.0449  0.1413 -0.2529
   93SAPS  H11R 9135   2.777   5.351   7.653 -1.3039  1.5791 -0.9345
   93SAPS  C212 9136   2.605   5.231   7.679  1.3357  1.0805 -1.2164
   93SAPS  H12R 9137   2.626   5.211   7.785 -3.2423 -1.4880 -0.5619
   93SAPS  C213 9138   2.474   5.169   7.638 -0.4377 -0.1674 -0.1434
   93SAPS  H13R 9139   2.499   5.093   7.562  2.8590 -0.8983  1.4929
   93SAPS  H13S 9140   2.427   5.242   7.568  2.4437 -0.5146 -2.6028
   93SAPS  C214 9141   2.383   5.115   7.742  0.2935  0.7813 -0.0418
   93SAPS  H14R 9142   2.434   5.076   7.832 -0.5069 -0.3424 -0.0580
   93SAPS  C215 9143   2.248   5.109   7.730  0.0722  0.4629  0.3945
   93SAPS  H15R 9144   2.193   5.083   7.822 -1.5141  1.0916 -0.3589
   93SAPS  C216 9145   2.161   5.143   7.609  0.0005  0.3980 -0.1715
   93SAPS  H16R 9146   2.139   5.251   7.595 -3.3439 -0.0437  0.7978
   93SAPS  H16S 9147   2.058   5.104   7.623 -0.9457  2.8280  0.0834
   93SAPS  C217 9148   2.209   5.093   7.473 -0.0641 -0.0584  0.2221
   93SAPS  H17R 9149   2.309   5.133   7.446  0.7109  0.6063  3.6137
   93SAPS  H17S 9150   2.155   5.139   7.387  0.6443  2.2924  0.9577
   93SAPS  C218 9151   2.224   4.936   7.462  0.3107 -0.8855  0.0260
   93SAPS  H18R 9152   2.133   4.890   7.420 -1.0314  0.8652  0.8730
   93SAPS  H18S 9153   2.246   4.904   7.566 -0.7794  0.8239  0.8331
   93SAPS  C219 9154   2.333   4.895   7.353  0.5569  0.3571  0.1470
   93SAPS  H19R 9155   2.348   4.786   7.370  1.4152  0.3004 -0.8698
   93SAPS  H19S 9156   2.423   4.956   7.371 -0.9431  2.7342 -0.0435
   93SAPS  C220 9157   2.290   4.919   7.208  0.8021  0.2344  0.1071
   93SAPS  H20R 9158   2.218   4.837   7.189  0.1721 -0.0023  3.0715
   93SAPS  H20S 9159   2.373   4.902   7.137 -1.3588 -0.7729 -2.3512
   93SAPS  H20T 9160   2.230   5.008   7.178  0.8257  0.6362  1.2098
   93SAPS   C33 9161   2.708   5.159   7.149  0.3334  0.0460 -0.2055
   93SAPS   H3X 9162   2.696   5.087   7.233 -3.0183 -0.7088 -1.1894
   93SAPS   H3Y 9163   2.724   5.259   7.197 -0.5636  1.1428 -2.0876
   93SAPS   C34 9164   2.833   5.107   7.071  0.4237 -0.3062 -0.1733
   93SAPS   H4X 9165   2.863   5.188   7.001 -0.3150  0.5903  0.5215
   93SAPS   H4Y 9166   2.804   5.019   7.010  0.4772  1.1639 -2.4538
   93SAPS   C35 9167   2.955   5.066   7.154 -0.5845 -0.7038 -1.6288
   93SAPS   H5X 9168   3.042   5.092   7.090 -1.1204  2.6642 -1.1250
   93SAPS   H5Y 9169   2.948   4.956   7.171 -0.8779 -0.6561 -1.4441
   93SAPS   C36 9170   2.983   5.151   7.279  0.7200  0.1250  0.3156
   93SAPS   H6X 9171   2.895   5.147   7.347 -0.2817  2.2712 -0.7643
   93SAPS   H6Y 9172   2.981   5.260   7.257 -0.8575  0.3015  1.2055
   93SAPS   C37 9173   3.119   5.127   7.351  0.3110  0.4915  0.1983
   93SAPS   H7X 9174   3.205   5.166   7.293 -1.5105  1.3594 -2.0646
   93SAPS   H7Y 9175   3.143   5.020   7.366  0.8464  0.8299  2.0067
   93SAPS   C38 9176   3.099   5.180   7.496  0.2233  0.2617  0.6323
   93SAPS   H8X 9177   3.013   5.123   7.538  0.4607  0.5604  1.5268
   93SAPS   H8Y 9178   3.066   5.286   7.496  1.3941  0.7007 -1.6432
   93SAPS   C39 9179   3.224   5.164   7.588 -0.3958  0.1253 -0.1504
   93SAPS   H9X 9180   3.313   5.212   7.542 -0.4937  1.0631  0.6144
   93SAPS   H9Y 9181   3.256   5.061   7.617 -0.6643  0.2592  0.6439
   93SAPS  C310 9182   3.205   5.248   7.719 -0.1674 -0.1297 -0.5774
   93SAPS  H10X 9183   3.187   5.351   7.683  2.1308  0.3535 -0.4955
   93SAPS  H10Y 9184   3.296   5.242   7.782 -1.5645 -0.8382  1.5031
   93SAPS  C311 9185   3.077   5.201   7.801 -0.2253  0.4315  0.6077
   93SAPS  H11X 9186   3.089   5.099   7.843 -1.6953  1.4357  3.7071
   93SAPS  H11Y 9187   2.989   5.206   7.733 -1.0078  0.8939  1.6271
   93SAPS  C312 9188   3.065   5.297   7.925  0.8889  0.3092  1.2241
   93SAPS  H12X 9189   3.041   5.394   7.878  1.1340 -0.0772  0.2764
   93SAPS  H12Y 9190   3.162   5.298   7.980  0.4066 -0.1616  2.1058
   93SAPS  C313 9191   2.951   5.271   8.024 -0.0751  0.7147 -0.0082
   93SAPS  H13X 9192   2.980   5.196   8.101 -0.3516  0.3015 -0.3023
   93SAPS  H13Y 9193   2.870   5.231   7.959  1.3509 -2.1597 -0.1663
   93SAPS  C314 9194   2.890   5.399   8.083 -0.3178  0.3288 -0.3401
   93SAPS  H14X 9195   2.870   5.464   7.996  1.4392 -0.6321 -1.5366
   93SAPS  H14Y 9196   2.976   5.442   8.140  1.2252 -0.5931 -1.8680
   93SAPS  C315 9197   2.776   5.364   8.177 -0.1128 -0.7420 -0.3011
   93SAPS  H15X 9198   2.749   5.443   8.250  0.1881  0.2157 -1.1986
   93SAPS  H15Y 9199   2.808   5.285   8.248 -0.7108  1.8385  3.0621
   93SAPS  C316 9200   2.655   5.317   8.106 -0.0650  0.0506 -0.2110
   93SAPS  H16X 9201   2.685   5.229   8.044 -1.0102 -1.2343  1.0679
   93SAPS  H16Y 9202   2.612   5.400   8.047  1.4657  3.1056  2.6557
   93SAPS  C317 9203   2.543   5.266   8.199  0.0268 -0.0278  0.2721
   93SAPS  H17X 9204   2.499   5.352   8.254  0.5423  0.1480  0.4224
   93SAPS  H17Y 9205   2.588   5.203   8.279  2.0776  0.2066 -0.6323
   93SAPS  C318 9206   2.424   5.199   8.129  0.4673  0.1197  0.6092
   93SAPS  H18X 9207   2.438   5.089   8.123 -0.5957 -0.1197  1.8398
   93SAPS  H18Y 9208   2.413   5.229   8.023 -0.5391 -3.7365 -0.5523
   93SAPS  H18Z 9209   2.329   5.221   8.182 -1.6954 -2.4680 -1.8518
   94SAPS     N 9210   3.837   1.314   5.812 -0.4904  0.2397 -0.1642
   94SAPS   HN1 9211   3.831   1.415   5.789 -0.2156  0.6669  1.5051
   94SAPS   HN2 9212   3.911   1.310   5.885 -0.0421  1.3158 -0.5360
   94SAPS   HN3 9213   3.871   1.254   5.734  0.7975  0.6742  0.0384
   94SAPS   C12 9214   3.711   1.255   5.866 -0.4709 -0.4299  0.1389
   94SAPS  H12A 9215   3.627   1.269   5.799 -2.4329 -1.3217  2.2766
   94SAPS   C13 9216   3.714   1.100   5.892  0.4181  0.5120  0.5110
   94SAPS  O13A 9217   3.827   1.047   5.873 -0.5514 -0.1509 -0.4725
   94SAPS  O13B 9218   3.607   1.032   5.906  0.5253  0.3452 -0.2233
   94SAPS   C11 9219   3.671   1.324   5.999 -0.3749  0.3987  0.7777
   94SAPS  H11A 9220   3.745   1.287   6.074  2.4664  1.7942 -1.1188
   94SAPS  H11B 9221   3.572   1.296   6.040 -1.2985  4.2175  1.5218
   94SAPS     P 9222   3.555   1.549   5.928 -0.2669  0.3679  0.1863
   94SAPS   O13 9223   3.616   1.650   5.835  0.7304  0.1876 -1.0949
   94SAPS   O14 9224   3.459   1.459   5.865  0.0756  0.0808 -0.2507
   94SAPS   O12 9225   3.680   1.470   5.985  0.0481 -0.3853 -0.7289
   94SAPS   O11 9226   3.495   1.616   6.052 -0.3884  0.2079  0.1934
   94SAPS    C1 9227   3.558   1.727   6.121 -0.6615 -0.3252 -0.1367
   94SAPS    HA 9228   3.665   1.744   6.094  0.3218 -0.7370  3.0374
   94SAPS    HB 9229   3.508   1.820   6.088  1.8116  1.2206  0.1669
   94SAPS    C2 9230   3.551   1.716   6.278 -0.6687 -0.2068  0.1930
   94SAPS    HS 9231   3.625   1.791   6.315  2.0781 -2.9393  0.6925
   94SAPS   O21 9232   3.585   1.582   6.329 -0.2426 -0.4218  0.7173
   94SAPS   C21 9233   3.709   1.551   6.308 -0.0834  0.4292 -0.2499
   94SAPS   O22 9234   3.797   1.623   6.289  0.4043 -0.8928 -0.0445
   94SAPS   C22 9235   3.727   1.406   6.347  0.3895  0.0496  0.3072
   94SAPS   H2R 9236   3.642   1.350   6.302 -1.3067  2.3481  0.5075
   94SAPS   H2S 9237   3.825   1.371   6.307 -0.4178 -1.7176 -0.2066
   94SAPS    C3 9238   3.412   1.742   6.321 -0.5049 -1.0255 -0.2168
   94SAPS    HX 9239   3.340   1.677   6.267 -1.0929  0.9210 -1.9067
   94SAPS    HY 9240   3.394   1.850   6.305 -0.6750 -0.9557  0.4222
   94SAPS   O31 9241   3.408   1.725   6.472  0.6126  0.1084 -0.1416
   94SAPS   C31 9242   3.354   1.610   6.510  0.4828 -0.5267  0.7574
   94SAPS   O32 9243   3.306   1.524   6.439  0.2900 -0.3714 -0.2062
   94SAPS   C32 9244   3.334   1.612   6.661 -1.4017 -0.1775  0.6101
   94SAPS   H2X 9245   3.257   1.688   6.688 -0.8574  0.2201  1.0735
   94SAPS   H2Y 9246   3.425   1.660   6.703 -2.2146  0.2435  1.9975
   94SAPS   C23 9247   3.739   1.395   6.509 -0.1184 -0.1372 -0.2080
   94SAPS   H3R 9248   3.640   1.435   6.539 -0.2335  0.4820 -1.3595
   94SAPS   H3S 9249   3.821   1.460   6.548 -0.1643 -0.4824  0.4818
   94SAPS   C24 9250   3.760   1.247   6.559  0.1785 -0.3453  0.4530
   94SAPS   H4R 9251   3.792   1.272   6.663  0.8819  0.0557  0.1471
   94SAPS   H4S 9252   3.844   1.203   6.503  0.2887 -1.8229  1.7204
   94SAPS   C25 9253   3.638   1.177   6.538 -0.1201  1.3451 -0.4542
   94SAPS   H5R 9254   3.595   1.169   6.437  0.6046  1.4101 -0.7726
   94SAPS   C26 9255   3.575   1.112   6.642  0.0173  0.1730 -0.3452
   94SAPS   H6R 9256   3.483   1.053   6.628  1.8473 -2.6298 -1.4997
   94SAPS   C27 9257   3.618   1.106   6.786 -0.0755 -0.5712 -0.2728
   94SAPS   H7R 9258   3.588   1.209   6.816 -0.3556 -0.7780  0.1745
   94SAPS   H7S 9259   3.727   1.096   6.806 -0.4902  0.2372  3.0112
   94SAPS   C28 9260   3.547   1.000   6.871  0.2429  0.3926 -0.3445
   94SAPS   H8R 9261   3.541   0.901   6.823  1.7477  0.2308 -0.2522
   94SAPS   C29 9262   3.502   1.011   6.997 -0.4857 -0.1173 -0.1501
   94SAPS   H9R 9263   3.437   0.932   7.037  0.4408 -0.0689  1.5656
   94SAPS  C210 9264   3.518   1.144   7.074  0.0896 -0.2130  0.0456
   94SAPS  H10R 9265   3.438   1.133   7.151 -2.2914 -0.1146 -2.2647
   94SAPS  H10S 9266   3.492   1.232   7.012 -0.2271 -0.3981 -0.0902
   94SAPS  C211 9267   3.654   1.161   7.140 -0.4531  0.1183 -0.6854
   94SAPS  H11R 9268   3.743   1.180   7.077 -1.4077  1.1380 -1.7735
   94SAPS  C212 9269   3.678   1.153   7.271 -0.3995  0.3877  0.3645
   94SAPS  H12R 9270   3.782   1.145   7.307  0.0395 -0.0318 -0.9333
   94SAPS  C213 9271   3.583   1.108   7.380 -0.8908 -0.5797  0.3287
   94SAPS  H13R 9272   3.483   1.085   7.336  0.1604  0.3576 -2.8230
   94SAPS  H13S 9273   3.571   1.195   7.448  0.1785  1.0368 -1.4439
   94SAPS  C214 9274   3.651   0.985   7.437 -0.3179  0.3889 -0.2721
   94SAPS  H14R 9275   3.664   0.904   7.363 -0.6147 -0.1064  0.2109
   94SAPS  C215 9276   3.701   0.981   7.562  0.5695 -0.5917 -0.8416
   94SAPS  H15R 9277   3.737   0.884   7.601  0.9204 -0.5290 -1.0075
   94SAPS  C216 9278   3.700   1.092   7.663 -0.0511  0.7332  0.5264
   94SAPS  H16R 9279   3.725   1.188   7.614 -0.7916  0.7727  0.2132
   94SAPS  H16S 9280   3.775   1.078   7.743  0.1794  0.2258  0.2276
   94SAPS  C217 9281   3.557   1.124   7.719  0.2461 -0.6655 -0.4096
   94SAPS  H17R 9282   3.526   1.039   7.784 -3.7792  0.7188 -0.2080
   94SAPS  H17S 9283   3.475   1.147   7.649  0.1370  4.4872  1.0007
   94SAPS  C218 9284   3.561   1.241   7.818  0.6722 -0.2167 -0.1457
   94SAPS  H18R 9285   3.581   1.335   7.762 -0.6300 -1.0856 -2.1982
   94SAPS  H18S 9286   3.643   1.219   7.890  0.7912 -1.1252 -0.5378
   94SAPS  C219 9287   3.420   1.265   7.883 -0.6341 -0.6131  0.2042
   94SAPS  H19R 9288   3.386   1.162   7.905 -3.1043  0.5499  2.4529
   94SAPS  H19S 9289   3.352   1.314   7.810 -1.0099 -0.1988  0.8218
   94SAPS  C220 9290   3.417   1.361   7.997  0.3735 -0.2177 -0.1086
   94SAPS  H20R 9291   3.311   1.376   8.027  0.6890  0.2602  0.7826
   94SAPS  H20S 9292   3.477   1.451   7.972 -1.8621  1.7673  1.2834
   94SAPS  H20T 9293   3.459   1.313   8.087  0.2791 -0.1203 -0.0119
   94SAPS   C33 9294   3.298   1.476   6.723  0.2567 -0.6214 -0.4229
   94SAPS   H3X 9295   3.369   1.399   6.687  1.2229  0.8883 -1.8854
   94SAPS   H3Y 9296   3.191   1.458   6.699 -0.7490 -0.4453  3.3341
   94SAPS   C34 9297   3.313   1.476   6.878 -0.4138 -0.3416 -0.1680
   94SAPS   H4X 9298   3.419   1.494   6.905  0.2064 -1.3392 -1.7730
   94SAPS   H4Y 9299   3.283   1.378   6.919 -0.4405 -0.7070 -1.0425
   94SAPS   C35 9300   3.212   1.572   6.944 -0.1139 -0.2222 -0.0181
   94SAPS   H5X 9301   3.106   1.543   6.925 -0.0673 -0.8591  0.6165
   94SAPS   H5Y 9302   3.230   1.674   6.906 -1.2076 -0.6154 -1.7057
   94SAPS   C36 9303   3.238   1.579   7.096 -0.1143 -0.0144  0.5280
   94SAPS   H6X 9304   3.277   1.480   7.129  1.2790  0.1978 -0.3724
   94SAPS   H6Y 9305   3.143   1.606   7.146 -0.9160 -1.6548 -0.0372
   94SAPS   C37 9306   3.331   1.692   7.132 -0.6512  0.7124  0.4168
   94SAPS   H7X 9307   3.271   1.782   7.105 -0.9554  1.3299  2.9154
   94SAPS   H7Y 9308   3.421   1.695   7.067  0.7921  0.3431  2.3267
   94SAPS   C38 9309   3.368   1.688   7.280 -0.1054  0.0490  0.3159
   94SAPS   H8X 9310   3.270   1.685   7.333 -0.9399  1.1213 -1.1108
   94SAPS   H8Y 9311   3.415   1.785   7.309  0.5599 -0.5045  1.1481
   94SAPS   C39 9312   3.470   1.577   7.314  0.8959 -0.0180 -0.1456
   94SAPS   H9X 9313   3.569   1.614   7.280  0.8077  0.3403 -0.0242
   94SAPS   H9Y 9314   3.451   1.482   7.261  0.7330  0.3486 -0.7590
   94SAPS  C310 9315   3.478   1.560   7.465  0.0926  0.3952  0.2256
   94SAPS  H10X 9316   3.544   1.477   7.496 -0.9735 -0.9151 -0.8915
   94SAPS  H10Y 9317   3.380   1.531   7.507 -0.7023  1.9558 -0.4420
   94SAPS  C311 9318   3.534   1.682   7.542 -0.4583 -0.1434  0.4700
   94SAPS  H11X 9319   3.484   1.769   7.493 -0.6603 -1.4191 -1.6754
   94SAPS  H11Y 9320   3.643   1.689   7.523 -0.7744  0.4745 -1.2394
   94SAPS  C312 9321   3.497   1.679   7.688  0.2706  0.0644  0.9713
   94SAPS  H12X 9322   3.542   1.592   7.740  1.2674  0.2586  0.4574
   94SAPS  H12Y 9323   3.388   1.679   7.710 -0.1503  0.8696 -0.9228
   94SAPS  C313 9324   3.553   1.803   7.764 -0.2749  0.2458 -0.1387
   94SAPS  H13X 9325   3.507   1.895   7.722 -1.5574 -0.0964  0.4643
   94SAPS  H13Y 9326   3.663   1.808   7.752 -0.3198  2.7269 -0.0747
   94SAPS  C314 9327   3.525   1.807   7.911  0.3184 -0.1065 -0.2981
   94SAPS  H14X 9328   3.419   1.780   7.928  0.1307  1.6789  1.9302
   94SAPS  H14Y 9329   3.539   1.909   7.954  0.6795 -1.0398  1.9802
   94SAPS  C315 9330   3.622   1.729   8.000 -0.1022  0.5026 -0.2276
   94SAPS  H15X 9331   3.722   1.770   7.973 -0.5610  0.7873 -1.5612
   94SAPS  H15Y 9332   3.614   1.624   7.964 -0.7333  1.2056 -2.2705
   94SAPS  C316 9333   3.586   1.732   8.152  0.5268 -0.1270  0.1844
   94SAPS  H16X 9334   3.486   1.686   8.165  0.5197  0.3990  2.2835
   94SAPS  H16Y 9335   3.579   1.840   8.177 -0.7592 -0.0051 -0.5949
   94SAPS  C317 9336   3.693   1.664   8.242  0.5780 -1.0941  0.3405
   94SAPS  H17X 9337   3.670   1.693   8.347  2.3679 -0.8390  0.6928
   94SAPS  H17Y 9338   3.790   1.716   8.225  0.0736 -0.1177  0.3867
   94SAPS  C318 9339   3.689   1.519   8.231  0.5341  0.5373 -0.3962
   94SAPS  H18X 9340   3.767   1.474   8.295 -0.9352 -0.8707  0.4961
   94SAPS  H18Y 9341   3.697   1.486   8.125 -0.1260 -0.5431 -0.1257
   94SAPS  H18Z 9342   3.596   1.465   8.261  0.8546  0.1905 -0.0262
   95SAPS     N 9343   6.751   5.420   5.765  0.0323 -0.0635  0.7607
   95SAPS   HN1 9344   6.744   5.515   5.807  0.4239  0.1323  0.3921
   95SAPS   HN2 9345   6.675   5.411   5.694  1.1926  0.9843 -0.6797
   95SAPS   HN3 9346   6.726   5.346   5.833 -3.1365 -0.1601 -0.3229
   95SAPS   C12 9347   6.884   5.402   5.707  0.2971 -0.1080 -0.1871
   95SAPS  H12A 9348   6.877   5.305   5.661 -0.3433 -0.9937  1.6955
   95SAPS   C13 9349   6.932   5.515   5.610 -0.1301  0.0178 -0.1930
   95SAPS  O13A 9350   6.850   5.604   5.577  0.3851 -0.1567 -0.7054
   95SAPS  O13B 9351   7.052   5.496   5.569 -0.0017 -0.4293  0.3755
   95SAPS   C11 9352   6.987   5.380   5.818 -0.0258  0.2998 -0.7872
   95SAPS  H11A 9353   7.092   5.368   5.785  1.7127  1.3490  3.6995
   95SAPS  H11B 9354   6.970   5.292   5.884  1.9040 -0.1740 -0.8620
   95SAPS     P 9355   7.096   5.515   6.024  0.0843 -0.1894  0.1651
   95SAPS   O13 9356   7.227   5.459   5.990 -0.4145 -0.8932  0.0940
   95SAPS   O14 9357   7.100   5.652   6.061 -0.1345  0.0968  0.4238
   95SAPS   O12 9358   6.984   5.495   5.901 -0.3376 -0.3851  0.2448
   95SAPS   O11 9359   7.020   5.425   6.140  0.0563  0.3407  0.6001
   95SAPS    C1 9360   6.884   5.468   6.184  0.1509  0.3095  0.6541
   95SAPS    HA 9361   6.845   5.550   6.119  0.1082 -1.3713 -1.5724
   95SAPS    HB 9362   6.819   5.378   6.185  0.6981 -0.1067 -0.1210
   95SAPS    C2 9363   6.890   5.528   6.334  0.0820  0.2160  0.1883
   95SAPS    HS 9364   6.966   5.609   6.332 -0.3106  0.5839 -0.0380
   95SAPS   O21 9365   6.922   5.422   6.428  0.1923 -0.4607 -0.5175
   95SAPS   C21 9366   7.047   5.415   6.456  0.8196  1.0171 -0.1424
   95SAPS   O22 9367   7.143   5.484   6.413 -0.0518 -0.3025 -0.2039
   95SAPS   C22 9368   7.072   5.307   6.562 -0.0660  0.4171  0.7319
   95SAPS   H2R 9369   6.978   5.284   6.616 -1.9783 -2.7797 -3.4270
   95SAPS   H2S 9370   7.109   5.217   6.508 -1.0276  0.3290  0.1935
   95SAPS    C3 9371   6.757   5.592   6.374  0.4312  0.5123 -0.1763
   95SAPS    HX 9372   6.674   5.523   6.348  2.3480 -2.8438  1.8974
   95SAPS    HY 9373   6.750   5.680   6.306 -1.7647  0.6888  0.2069
   95SAPS   O31 9374   6.748   5.641   6.509  1.0488  0.7174 -0.2397
   95SAPS   C31 9375   6.666   5.570   6.591  0.0293 -0.3935 -0.2099
   95SAPS   O32 9376   6.573   5.495   6.561  0.0958 -0.5762  0.0472
   95SAPS   C32 9377   6.702   5.633   6.728 -0.5209 -0.7321 -0.5602
   95SAPS   H2X 9378   6.691   5.744   6.724  1.1106 -0.5439 -0.6231
   95SAPS   H2Y 9379   6.808   5.604   6.744 -1.2872 -2.2932  2.1863
   95SAPS   C23 9380   7.175   5.343   6.669  0.8120 -0.1720  0.1191
   95SAPS   H3R 9381   7.275   5.358   6.621 -0.3526 -1.2307 -2.8651
   95SAPS   H3S 9382   7.177   5.258   6.740 -0.8052  0.1759  0.6105
   95SAPS   C24 9383   7.150   5.469   6.749 -0.6401 -0.8777  0.3714
   95SAPS   H4R 9384   7.046   5.475   6.789 -0.8157 -2.9829  0.3089
   95SAPS   H4S 9385   7.159   5.558   6.684 -0.1628 -1.3900 -0.2714
   95SAPS   C25 9386   7.244   5.485   6.861  0.4544  0.4837  0.4860
   95SAPS   H5R 9387   7.334   5.534   6.822  0.0334  1.0920  0.2644
   95SAPS   C26 9388   7.227   5.448   6.986 -0.5219  0.2095 -0.2463
   95SAPS   H6R 9389   7.303   5.470   7.063 -1.8264  1.6722  0.6672
   95SAPS   C27 9390   7.111   5.384   7.057 -0.0933  0.7195  0.0459
   95SAPS   H7R 9391   7.020   5.384   6.994 -0.0050 -0.1065 -0.0911
   95SAPS   H7S 9392   7.091   5.444   7.148  0.1347 -0.4093  0.8659
   95SAPS   C28 9393   7.130   5.242   7.108  0.7929 -0.1998 -0.0175
   95SAPS   H8R 9394   7.130   5.163   7.032 -0.5070 -1.6855  1.4373
   95SAPS   C29 9395   7.136   5.204   7.241  0.1661  0.2717 -0.1178
   95SAPS   H9R 9396   7.147   5.097   7.262 -1.3830  0.2154  0.5247
   95SAPS  C210 9397   7.124   5.284   7.372  1.0785  0.0563 -0.3573
   95SAPS  H10R 9398   7.128   5.392   7.343 -0.5601 -0.2522 -1.9427
   95SAPS  H10S 9399   7.211   5.255   7.434  2.4212  0.3875 -1.9971
   95SAPS  C211 9400   6.996   5.264   7.445  0.2880  0.2821  0.1245
   95SAPS  H11R 9401   6.904   5.295   7.393  0.8159  2.4835  0.4206
   95SAPS  C212 9402   6.977   5.226   7.572  0.1239 -0.2592  0.0090
   95SAPS  H12R 9403   6.881   5.206   7.621  0.6951  0.6864  1.5946
   95SAPS  C213 9404   7.097   5.196   7.664  0.2767 -0.2459  0.0612
   95SAPS  H13R 9405   7.144   5.297   7.672  3.3506 -1.4610 -1.2888
   95SAPS  H13S 9406   7.173   5.139   7.608 -0.3096  0.2676 -1.3076
   95SAPS  C214 9407   7.063   5.141   7.803  0.0841 -0.2146 -0.3938
   95SAPS  H14R 9408   7.054   5.032   7.813 -1.4446  0.0055  1.0686
   95SAPS  C215 9409   7.043   5.220   7.915  0.2326 -0.2604  0.4054
   95SAPS  H15R 9410   7.015   5.175   8.011  2.0021 -0.4342  0.8805
   95SAPS  C216 9411   7.043   5.373   7.912  0.3135 -0.8533 -0.2912
   95SAPS  H16R 9412   6.966   5.416   7.980  1.4213 -1.0859  1.1511
   95SAPS  H16S 9413   7.025   5.414   7.810 -1.2790  0.3046  0.4102
   95SAPS  C217 9414   7.184   5.418   7.953  0.3747  0.0000 -0.3485
   95SAPS  H17R 9415   7.181   5.529   7.943 -3.6508 -0.1340 -2.5950
   95SAPS  H17S 9416   7.258   5.389   7.876  1.7036  2.0243  0.0772
   95SAPS  C218 9417   7.232   5.363   8.089 -0.1137 -0.2816  0.4045
   95SAPS  H18R 9418   7.328   5.417   8.105 -0.5910  1.0751 -1.0154
   95SAPS  H18S 9419   7.250   5.254   8.080  2.2739  0.1064 -0.0896
   95SAPS  C219 9420   7.145   5.393   8.209  0.3412  0.1933  0.0201
   95SAPS  H19R 9421   7.187   5.359   8.306 -1.1377  0.2158  0.6923
   95SAPS  H19S 9422   7.045   5.348   8.189  0.3382  0.6525 -1.1014
   95SAPS  C220 9423   7.132   5.543   8.229 -0.6150 -0.7157 -0.4430
   95SAPS  H20R 9424   7.231   5.586   8.254  0.2935 -2.7860 -0.2284
   95SAPS  H20S 9425   7.077   5.563   8.324  0.6232 -2.7819  0.7984
   95SAPS  H20T 9426   7.095   5.610   8.148  3.7574 -0.7353 -2.7698
   95SAPS   C33 9427   6.626   5.570   6.842  0.3289  0.2343  0.2063
   95SAPS   H3X 9428   6.601   5.463   6.824  1.8539  0.1541 -1.6912
   95SAPS   H3Y 9429   6.527   5.619   6.844 -0.0418 -0.4694 -0.6488
   95SAPS   C34 9430   6.700   5.587   6.979  0.3731 -0.1935  0.3805
   95SAPS   H4X 9431   6.688   5.692   7.012 -1.5507 -0.4978  0.7706
   95SAPS   H4Y 9432   6.806   5.567   6.954 -0.1950 -0.2238 -2.3255
   95SAPS   C35 9433   6.654   5.489   7.089 -0.9004 -0.3526  0.1123
   95SAPS   H5X 9434   6.688   5.386   7.068  0.9318  0.3517 -0.5108
   95SAPS   H5Y 9435   6.543   5.488   7.103 -0.6132  0.4041  2.9726
   95SAPS   C36 9436   6.698   5.532   7.228 -0.2589  0.2076  0.5693
   95SAPS   H6X 9437   6.647   5.627   7.256  0.0187  0.4145  0.3698
   95SAPS   H6Y 9438   6.807   5.550   7.240 -0.3550 -0.5443  3.3574
   95SAPS   C37 9439   6.654   5.429   7.334 -0.3447 -0.1087  0.3284
   95SAPS   H7X 9440   6.701   5.329   7.322 -0.7051 -0.5349  2.1728
   95SAPS   H7Y 9441   6.546   5.412   7.312 -0.4959  1.9138 -0.7730
   95SAPS   C38 9442   6.690   5.473   7.476  0.0077 -0.0117  0.0103
   95SAPS   H8X 9443   6.648   5.576   7.485 -0.5100  0.0585 -2.4653
   95SAPS   H8Y 9444   6.800   5.483   7.490 -0.2548  1.2735  1.3874
   95SAPS   C39 9445   6.638   5.377   7.579  0.0083 -0.1500 -0.3653
   95SAPS   H9X 9446   6.652   5.270   7.553  0.6081 -0.2191  0.2044
   95SAPS   H9Y 9447   6.528   5.395   7.587 -0.0339 -0.9400  1.1418
   95SAPS  C310 9448   6.668   5.399   7.728 -0.8432 -0.2833  0.2008
   95SAPS  H10X 9449   6.681   5.508   7.745  0.9863 -0.6314  1.2965
   95SAPS  H10Y 9450   6.768   5.357   7.752  0.0266  1.8657  0.4879
   95SAPS  C311 9451   6.573   5.328   7.822 -0.4719  0.0149 -0.2562
   95SAPS  H11X 9452   6.574   5.220   7.794 -0.9080 -0.4264  1.3441
   95SAPS  H11Y 9453   6.469   5.366   7.810  1.0781  4.0135 -3.2125
   95SAPS  C312 9454   6.616   5.355   7.966 -0.2978 -0.2226  0.4842
   95SAPS  H12X 9455   6.718   5.320   7.994 -0.2068 -0.5919 -0.2923
   95SAPS  H12Y 9456   6.549   5.293   8.029  0.4260 -1.2248  0.2958
   95SAPS  C313 9457   6.601   5.498   8.016 -0.1393 -0.3189  0.1909
   95SAPS  H13X 9458   6.492   5.523   8.019 -0.0726  0.4622 -2.0134
   95SAPS  H13Y 9459   6.642   5.568   7.940 -0.5626 -0.8253 -0.5100
   95SAPS  C314 9460   6.675   5.509   8.143 -0.4571 -0.5177 -0.3392
   95SAPS  H14X 9461   6.785   5.495   8.132 -0.1929  1.1528 -0.1699
   95SAPS  H14Y 9462   6.642   5.425   8.207  0.8192 -0.4346  0.4777
   95SAPS  C315 9463   6.662   5.644   8.225  0.4599  0.8437  0.1004
   95SAPS  H15X 9464   6.556   5.676   8.230  0.7709  1.9883 -0.3013
   95SAPS  H15Y 9465   6.707   5.720   8.158 -0.1163  1.3739  0.3060
   95SAPS  C316 9466   6.727   5.646   8.364 -0.5737  0.2030  0.1422
   95SAPS  H16X 9467   6.729   5.747   8.410 -0.8101 -0.1127  0.8754
   95SAPS  H16Y 9468   6.828   5.601   8.350 -0.4606  0.9056 -1.4101
   95SAPS  C317 9469   6.662   5.551   8.468  0.3553  0.0287  0.3692
   95SAPS  H17X 9470   6.698   5.450   8.436  0.5172 -0.2906  1.5133
   95SAPS  H17Y 9471   6.552   5.552   8.453  0.1884  2.3850  1.3256
   95SAPS  C318 9472   6.694   5.585   8.612  0.1402  0.1496 -0.1629
   95SAPS  H18X 9473   6.804   5.583   8.631  0.3029  0.3428 -1.0634
   95SAPS  H18Y 9474   6.660   5.502   8.678 -0.1983 -1.2436 -1.9833
   95SAPS  H18Z 9475   6.651   5.681   8.646  1.7169 -0.1986  3.2771
   96SAPS     N 9476   0.511   0.846   6.596  0.9416  0.2162 -0.2802
   96SAPS   HN1 9477   0.468   0.783   6.525 -1.5893  0.0429  1.3030
   96SAPS   HN2 9478   0.478   0.820   6.691 -1.8052 -1.2389 -1.5049
   96SAPS   HN3 9479   0.478   0.944   6.586  1.5678  0.4797  0.1401
   96SAPS   C12 9480   0.663   0.833   6.586 -0.4853  1.3022  0.4574
   96SAPS  H12A 9481   0.713   0.894   6.660  1.2784  0.4560  0.0092
   96SAPS   C13 9482   0.710   0.684   6.623  0.5122  0.5070  0.6268
   96SAPS  O13A 9483   0.831   0.649   6.605  0.0382 -0.0195 -0.3539
   96SAPS  O13B 9484   0.622   0.590   6.634  0.4898  0.1037  0.4255
   96SAPS   C11 9485   0.717   0.856   6.439 -0.4794  0.1680  0.5894
   96SAPS  H11A 9486   0.668   0.776   6.379 -0.0940  1.7883 -2.0556
   96SAPS  H11B 9487   0.826   0.834   6.443 -0.5430 -0.0516  1.1444
   96SAPS     P 9488   0.734   1.131   6.432  0.2634  0.3164 -0.0663
   96SAPS   O13 9489   0.864   1.161   6.372  0.1189 -0.3201  0.6202
   96SAPS   O14 9490   0.622   1.231   6.402 -0.9339 -0.1418 -0.6801
   96SAPS   O12 9491   0.678   0.991   6.385  1.1584  0.9125 -0.2977
   96SAPS   O11 9492   0.753   1.112   6.588  0.2441  0.1367  0.1958
   96SAPS    C1 9493   0.831   1.204   6.662  0.0754 -0.7583 -0.0436
   96SAPS    HA 9494   0.935   1.212   6.625 -0.6308 -0.4698 -2.0607
   96SAPS    HB 9495   0.790   1.307   6.672  1.6821 -0.1124  0.1921
   96SAPS    C2 9496   0.836   1.166   6.816 -0.0164  0.9029  0.5089
   96SAPS    HS 9497   0.851   1.056   6.825 -1.3143  0.6740  0.0790
   96SAPS   O21 9498   0.725   1.211   6.894 -0.1454  0.2172  0.2445
   96SAPS   C21 9499   0.615   1.129   6.874  0.1689  0.3948  0.5528
   96SAPS   O22 9500   0.617   1.018   6.822 -0.0875 -0.3190 -0.1024
   96SAPS   C22 9501   0.491   1.196   6.923 -0.5685  0.4712 -0.4474
   96SAPS   H2R 9502   0.506   1.276   6.998  1.3100  0.7316 -1.0433
   96SAPS   H2S 9503   0.449   1.253   6.837  0.0257 -0.2603 -1.2436
   96SAPS    C3 9504   0.965   1.230   6.878 -0.2650 -0.4513  0.1848
   96SAPS    HX 9505   0.962   1.341   6.877 -0.2026 -0.4547 -0.7109
   96SAPS    HY 9506   1.053   1.202   6.817 -0.0185 -0.1852  0.4125
   96SAPS   O31 9507   0.985   1.208   7.017 -0.3835  0.1886  0.0557
   96SAPS   C31 9508   1.032   1.090   7.052 -0.1827  0.9339  0.2910
   96SAPS   O32 9509   1.081   1.003   6.979  0.1555 -0.4583  0.0202
   96SAPS   C32 9510   0.998   1.074   7.202 -0.6811 -0.5414  0.1969
   96SAPS   H2X 9511   1.066   1.141   7.260  0.1966 -1.7129  0.5430
   96SAPS   H2Y 9512   1.026   0.973   7.237  0.2137 -0.6770 -0.8673
   96SAPS   C23 9513   0.386   1.088   6.955  0.4232  0.2426 -0.0899
   96SAPS   H3R 9514   0.399   0.989   6.907  0.2991  0.2569 -0.1536
   96SAPS   H3S 9515   0.286   1.120   6.917  0.5600 -0.7325 -1.3221
   96SAPS   C24 9516   0.365   1.071   7.098  0.0852  0.8654 -0.2797
   96SAPS   H4R 9517   0.268   1.016   7.105  0.8112 -0.7443 -1.9090
   96SAPS   H4S 9518   0.350   1.168   7.148  1.6575  1.9462 -1.7952
   96SAPS   C25 9519   0.481   0.996   7.168  0.0036 -0.3641  0.3202
   96SAPS   H5R 9520   0.544   0.937   7.100 -0.2519  0.5073 -0.7078
   96SAPS   C26 9521   0.525   1.002   7.296  0.4318  0.2260  0.1666
   96SAPS   H6R 9522   0.618   0.953   7.328  1.0661  1.0171 -0.4458
   96SAPS   C27 9523   0.448   1.071   7.408  0.0242 -0.2875 -0.3604
   96SAPS   H7R 9524   0.363   1.137   7.379 -1.3351 -1.1116  1.5257
   96SAPS   H7S 9525   0.516   1.139   7.463  0.5886 -0.5628 -0.7118
   96SAPS   C28 9526   0.373   0.966   7.504  0.1799 -1.2034  0.8254
   96SAPS   H8R 9527   0.291   0.915   7.453  1.9277 -2.4054 -0.9454
   96SAPS   C29 9528   0.399   0.938   7.630  0.0459 -0.0972 -0.5433
   96SAPS   H9R 9529   0.336   0.874   7.693  0.2202 -1.3847 -1.6298
   96SAPS  C210 9530   0.515   0.991   7.711  0.3472  0.1453 -0.1227
   96SAPS  H10R 9531   0.579   1.074   7.672 -2.1871  2.0073 -0.5327
   96SAPS  H10S 9532   0.590   0.909   7.717  2.1836  1.6459 -1.1160
   96SAPS  C211 9533   0.453   1.036   7.839 -0.1000 -0.5175 -0.2931
   96SAPS  H11R 9534   0.368   1.103   7.823 -0.7957 -1.2120  0.4539
   96SAPS  C212 9535   0.485   0.992   7.959  0.1702  0.0774 -0.3516
   96SAPS  H12R 9536   0.442   1.036   8.050  2.2821 -0.3707  0.9356
   96SAPS  C213 9537   0.587   0.886   7.996 -0.8842 -0.6005 -0.1392
   96SAPS  H13R 9538   0.593   0.813   7.913  1.5602 -0.7984  0.1216
   96SAPS  H13S 9539   0.549   0.831   8.084 -0.0213 -2.1182 -0.6762
   96SAPS  C214 9540   0.723   0.966   8.013  0.1649  0.3301  0.2241
   96SAPS  H14R 9541   0.745   1.023   7.922  2.5342 -0.9454 -0.0856
   96SAPS  C215 9542   0.791   0.965   8.130 -0.2545  0.0674 -0.4426
   96SAPS  H15R 9543   0.878   1.031   8.132 -0.1892 -0.0271  0.5010
   96SAPS  C216 9544   0.765   0.900   8.262 -0.0685  0.9064  0.4355
   96SAPS  H16R 9545   0.854   0.844   8.299 -0.9094 -1.4668 -0.9258
   96SAPS  H16S 9546   0.697   0.815   8.244  0.7905  0.2252  0.3422
   96SAPS  C217 9547   0.723   0.999   8.365  0.6398  0.8558  0.1578
   96SAPS  H17R 9548   0.627   1.047   8.336 -1.0233 -1.6224  1.2396
   96SAPS  H17S 9549   0.795   1.083   8.371  2.3256 -0.4423 -1.0019
   96SAPS  C218 9550   0.692   0.945   8.508 -0.2058  0.0574 -0.5679
   96SAPS  H18R 9551   0.642   0.847   8.492 -5.5600  2.0636  1.5537
   96SAPS  H18S 9552   0.619   1.008   8.562 -0.9744 -1.5524  0.3527
   96SAPS  C219 9553   0.815   0.928   8.592 -0.3104  0.1276 -0.0796
   96SAPS  H19R 9554   0.882   1.016   8.584 -0.1834  0.1448  1.0508
   96SAPS  H19S 9555   0.883   0.852   8.546 -0.6138 -1.3178  1.7532
   96SAPS  C220 9556   0.786   0.902   8.735 -0.1033  0.1287  0.1322
   96SAPS  H20R 9557   0.750   0.798   8.754  0.8216 -0.2852 -0.3114
   96SAPS  H20S 9558   0.701   0.962   8.772 -0.4495 -0.8171  0.9141
   96SAPS  H20T 9559   0.871   0.933   8.800  1.0789  1.1995 -1.8262
   96SAPS   C33 9560   0.856   1.102   7.247  0.9295  0.0859 -0.6721
   96SAPS   H3X 9561   0.803   1.006   7.231 -1.2183  1.1568 -0.2880
   96SAPS   H3Y 9562   0.804   1.188   7.200  0.3054  0.2980  0.3827
   96SAPS   C34 9563   0.857   1.128   7.397  0.0396 -0.1765 -0.5628
   96SAPS   H4X 9564   0.772   1.184   7.440  0.5151 -0.1213  0.3426
   96SAPS   H4Y 9565   0.934   1.207   7.413  1.0584 -1.7394  3.7423
   96SAPS   C35 9566   0.886   0.998   7.482 -0.2038  0.4582 -0.1336
   96SAPS   H5X 9567   0.983   0.954   7.450 -1.1629 -2.9771  1.1266
   96SAPS   H5Y 9568   0.805   0.926   7.455 -1.7723  1.2519  2.1504
   96SAPS   C36 9569   0.887   1.020   7.638 -0.2036  0.0499 -0.3110
   96SAPS   H6X 9570   0.913   0.928   7.694  1.2298  1.5781  1.6905
   96SAPS   H6Y 9571   0.793   1.070   7.670 -1.2305 -1.1794 -1.2859
   96SAPS   C37 9572   1.008   1.114   7.680  1.2135  0.2424 -0.5776
   96SAPS   H7X 9573   1.001   1.216   7.636 -1.0867 -0.0201 -0.9387
   96SAPS   H7Y 9574   1.097   1.076   7.626  0.6600 -1.7145 -0.1964
   96SAPS   C38 9575   1.031   1.121   7.829 -0.2436 -0.3591  0.1636
   96SAPS   H8X 9576   0.934   1.133   7.882 -1.3864  2.8549 -2.2974
   96SAPS   H8Y 9577   1.096   1.211   7.839  1.1276 -1.0165 -2.1230
   96SAPS   C39 9578   1.113   1.007   7.873 -0.3742  0.0376 -0.2584
   96SAPS   H9X 9579   1.196   0.972   7.809  0.7794 -0.0882  1.2514
   96SAPS   H9Y 9580   1.037   0.926   7.869 -1.3262  0.9443 -2.2176
   96SAPS  C310 9581   1.164   1.032   8.017 -0.5876  0.4341 -0.3613
   96SAPS  H10X 9582   1.094   1.086   8.085 -0.2746  1.5808 -0.9188
   96SAPS  H10Y 9583   1.259   1.090   8.017 -0.0132 -0.4777  0.1284
   96SAPS  C311 9584   1.197   0.898   8.093  0.0096 -0.0926 -0.6266
   96SAPS  H11X 9585   1.300   0.870   8.060  0.2549 -0.9809  0.7986
   96SAPS  H11Y 9586   1.126   0.826   8.047 -1.0232  0.7768 -0.4204
   96SAPS  C312 9587   1.189   0.903   8.248  0.0414  0.3810  0.0499
   96SAPS  H12X 9588   1.082   0.906   8.278 -0.3950  1.2097 -1.4397
   96SAPS  H12Y 9589   1.237   0.999   8.276  0.6814 -0.0086  0.3065
   96SAPS  C313 9590   1.268   0.798   8.334  0.6146 -0.0028  0.6745
   96SAPS  H13X 9591   1.247   0.818   8.441  1.9942 -2.0774  1.3983
   96SAPS  H13Y 9592   1.376   0.798   8.310  0.3519 -0.8619 -0.6634
   96SAPS  C314 9593   1.223   0.654   8.293 -0.3948  0.1889  0.2016
   96SAPS  H14X 9594   1.300   0.584   8.332  2.4590  1.4610 -2.6687
   96SAPS  H14Y 9595   1.224   0.649   8.182  0.3076 -1.2966  0.2575
   96SAPS  C315 9596   1.081   0.614   8.331 -0.0823  0.0243  0.3755
   96SAPS  H15X 9597   1.066   0.511   8.291 -3.3700  0.9577 -1.1812
   96SAPS  H15Y 9598   1.006   0.665   8.267  0.3839  1.4972  0.9494
   96SAPS  C316 9599   1.033   0.622   8.474  0.4652  0.3785  0.1889
   96SAPS  H16X 9600   0.925   0.602   8.459  0.2546  0.4910  1.4344
   96SAPS  H16Y 9601   1.037   0.730   8.503 -1.1471  0.4454  0.2217
   96SAPS  C317 9602   1.109   0.537   8.578 -0.2042  0.5520  0.3228
   96SAPS  H17X 9603   1.213   0.573   8.591  0.2935 -0.7248  0.1329
   96SAPS  H17Y 9604   1.122   0.436   8.533  1.5375  0.2147  1.4835
   96SAPS  C318 9605   1.037   0.509   8.718 -0.8121  0.4811  0.1516
   96SAPS  H18X 9606   1.007   0.607   8.762  1.3631  1.5636 -0.6394
   96SAPS  H18Y 9607   1.096   0.446   8.788  0.4817  0.0667 -1.2640
   96SAPS  H18Z 9608   0.938   0.462   8.702 -0.2804 -0.2864 -0.9707
   97SAPS     N 9609   1.378   5.134   5.926  0.6042  0.6691  0.1543
   97SAPS   HN1 9610   1.346   5.156   5.829  1.2655 -0.0903 -0.2413
   97SAPS   HN2 9611   1.392   5.033   5.941 -2.6800 -0.0013 -0.4803
   97SAPS   HN3 9612   1.292   5.156   5.981  0.8984  0.2011  0.8026
   97SAPS   C12 9613   1.482   5.232   5.959  0.2234  0.0535 -0.2840
   97SAPS  H12A 9614   1.565   5.197   5.900 -1.3502 -2.9192 -0.9460
   97SAPS   C13 9615   1.439   5.378   5.912  0.2685 -0.3080  0.6034
   97SAPS  O13A 9616   1.320   5.403   5.877 -0.0014 -0.1885 -0.0265
   97SAPS  O13B 9617   1.502   5.472   5.957  0.0310 -0.1360  0.3731
   97SAPS   C11 9618   1.507   5.227   6.108 -0.2373 -0.1195  0.0045
   97SAPS  H11A 9619   1.425   5.268   6.171 -1.5013 -1.3003 -0.8107
   97SAPS  H11B 9620   1.594   5.293   6.131  0.1814 -1.1273  1.5431
   97SAPS     P 9621   1.597   5.079   6.300 -0.1359  0.3565  0.3205
   97SAPS   O13 9622   1.656   4.942   6.298  0.4778 -0.2509 -0.6223
   97SAPS   O14 9623   1.687   5.191   6.342 -0.2371 -0.9771  0.1261
   97SAPS   O12 9624   1.552   5.099   6.153 -0.2532  0.7378  0.7119
   97SAPS   O11 9625   1.455   5.085   6.380 -0.5495 -0.5833 -0.2166
   97SAPS    C1 9626   1.358   4.985   6.356 -0.0489 -0.2856 -0.6614
   97SAPS    HA 9627   1.322   4.997   6.251 -0.8486 -1.0164 -0.4786
   97SAPS    HB 9628   1.405   4.884   6.363  1.8555  0.5411 -0.8138
   97SAPS    C2 9629   1.238   5.010   6.459  0.5088  1.0012 -0.4128
   97SAPS    HS 9630   1.196   5.108   6.428 -1.9421 -0.7158 -3.0064
   97SAPS   O21 9631   1.283   5.008   6.595 -1.0017  0.1046 -0.3252
   97SAPS   C21 9632   1.223   5.080   6.677  0.1780 -0.0546  0.3640
   97SAPS   O22 9633   1.118   5.141   6.650  0.1821  0.9012  0.3636
   97SAPS   C22 9634   1.300   5.086   6.810  0.0392 -0.2854  0.8284
   97SAPS   H2R 9635   1.320   4.983   6.849 -0.6462 -0.5991  0.3823
   97SAPS   H2S 9636   1.391   5.148   6.797  0.1400 -0.8396 -1.5628
   97SAPS    C3 9637   1.126   4.904   6.437 -0.0781  0.3578 -0.2087
   97SAPS    HX 9638   1.084   4.916   6.334  0.7118  2.6974 -0.3212
   97SAPS    HY 9639   1.037   4.928   6.498 -1.8838  0.2941 -2.6729
   97SAPS   O31 9640   1.174   4.770   6.462 -0.1624  0.7342 -0.3728
   97SAPS   C31 9641   1.140   4.706   6.572 -0.7002 -0.4049 -0.2041
   97SAPS   O32 9642   1.059   4.746   6.654 -0.2357 -0.0105 -0.6688
   97SAPS   C32 9643   1.251   4.598   6.592 -0.1839 -0.0032  0.0921
   97SAPS   H2X 9644   1.346   4.650   6.565  1.5339 -3.2113 -0.5616
   97SAPS   H2Y 9645   1.224   4.515   6.523  2.1069 -0.8556  0.1417
   97SAPS   C23 9646   1.220   5.161   6.916  0.4521 -1.1031 -0.1331
   97SAPS   H3R 9647   1.195   5.266   6.890  0.7317 -1.4619 -1.9728
   97SAPS   H3S 9648   1.278   5.168   7.011  3.5225 -3.6685 -1.6473
   97SAPS   C24 9649   1.080   5.096   6.951 -0.3631  0.0288  0.0400
   97SAPS   H4R 9650   1.009   5.108   6.866 -2.4036  1.1212  1.8154
   97SAPS   H4S 9651   1.028   5.164   7.021 -1.5154 -0.5263 -0.2412
   97SAPS   C25 9652   1.084   4.951   7.001  0.2406 -0.7052 -0.3155
   97SAPS   H5R 9653   1.058   4.880   6.921 -4.2264 -0.9602  1.0589
   97SAPS   C26 9654   1.101   4.900   7.126 -0.5475  0.0567  0.6738
   97SAPS   H6R 9655   1.106   4.791   7.138 -0.0708  0.1289  1.1610
   97SAPS   C27 9656   1.126   4.980   7.252 -0.3767 -0.0427 -0.3621
   97SAPS   H7R 9657   1.034   5.029   7.292 -1.9761 -1.6441 -1.8888
   97SAPS   H7S 9658   1.202   5.057   7.232 -0.5109  0.2931  0.3793
   97SAPS   C28 9659   1.167   4.892   7.365  0.3637 -0.5443 -0.6575
   97SAPS   H8R 9660   1.179   4.788   7.333  0.0160 -0.5030 -0.9368
   97SAPS   C29 9661   1.192   4.929   7.497  0.1879  0.3418  0.2210
   97SAPS   H9R 9662   1.238   4.865   7.574  2.5742  2.1212  0.4095
   97SAPS  C210 9663   1.189   5.081   7.536 -0.3051  0.4373 -0.3706
   97SAPS  H10R 9664   1.095   5.106   7.590 -1.0922  1.1595 -2.0211
   97SAPS  H10S 9665   1.184   5.139   7.442 -1.2307  0.8123 -0.1039
   97SAPS  C211 9666   1.308   5.134   7.613  0.3382  0.1663 -0.6565
   97SAPS  H11R 9667   1.379   5.179   7.543 -0.7047  2.3245 -0.3919
   97SAPS  C212 9668   1.347   5.112   7.739 -0.3721  0.2660 -0.4821
   97SAPS  H12R 9669   1.445   5.152   7.769 -0.6695 -0.4794  1.6613
   97SAPS  C213 9670   1.275   5.028   7.841  0.6094  0.1343  0.3417
   97SAPS  H13R 9671   1.233   4.940   7.787 -0.8107 -1.5293  3.8730
   97SAPS  H13S 9672   1.178   5.071   7.875 -1.2468 -1.5136 -2.5059
   97SAPS  C214 9673   1.365   4.992   7.959 -0.0421  0.5352 -0.2143
   97SAPS  H14R 9674   1.421   4.898   7.948 -0.1982  0.4686 -0.4500
   97SAPS  C215 9675   1.375   5.071   8.069  0.4056 -0.2531 -0.0490
   97SAPS  H15R 9676   1.432   5.026   8.152  1.2930 -1.7511 -1.4169
   97SAPS  C216 9677   1.314   5.208   8.102 -0.9972  0.6441  1.3662
   97SAPS  H16R 9678   1.255   5.229   8.010  1.1862  2.3758  0.2917
   97SAPS  H16S 9679   1.388   5.290   8.099 -0.9126  0.5519  0.7579
   97SAPS  C217 9680   1.222   5.215   8.226 -0.2285 -0.9094 -0.5372
   97SAPS  H17R 9681   1.287   5.183   8.311  0.0054  0.1111 -0.3202
   97SAPS  H17S 9682   1.138   5.145   8.209 -0.0352 -1.2444 -0.1473
   97SAPS  C218 9683   1.168   5.363   8.242 -0.0327  1.5195 -0.4523
   97SAPS  H18R 9684   1.069   5.378   8.290 -0.3378  1.7639 -1.1527
   97SAPS  H18S 9685   1.159   5.393   8.136 -1.4901  0.0497 -0.7816
   97SAPS  C219 9686   1.268   5.464   8.302  0.1567 -0.0531  0.3642
   97SAPS  H19R 9687   1.225   5.565   8.285  0.1507 -0.1295 -0.0828
   97SAPS  H19S 9688   1.357   5.470   8.236  0.2822 -0.4728  0.4884
   97SAPS  C220 9689   1.297   5.441   8.449  0.6178 -0.2630 -0.4222
   97SAPS  H20R 9690   1.369   5.357   8.461  0.8265 -0.3557 -2.1106
   97SAPS  H20S 9691   1.199   5.417   8.496  0.7026  2.3493  1.2706
   97SAPS  H20T 9692   1.334   5.535   8.494  0.1687 -0.0712 -0.4506
   97SAPS   C33 9693   1.271   4.550   6.735 -0.0946 -0.3756  0.2016
   97SAPS   H3X 9694   1.326   4.454   6.730 -0.1467 -0.3519 -2.0066
   97SAPS   H3Y 9695   1.170   4.520   6.772 -0.4044 -2.1403 -1.8684
   97SAPS   C34 9696   1.352   4.642   6.833  0.2972 -0.1824  0.1926
   97SAPS   H4X 9697   1.330   4.750   6.825  0.2748 -0.1425  0.7542
   97SAPS   H4Y 9698   1.461   4.628   6.816  0.5811  0.8144  1.0887
   97SAPS   C35 9699   1.334   4.603   6.980  0.4353  0.8309  0.6878
   97SAPS   H5X 9700   1.352   4.493   6.986  1.8885  1.0086  0.0676
   97SAPS   H5Y 9701   1.227   4.609   7.006 -0.0525 -2.0588 -0.2118
   97SAPS   C36 9702   1.426   4.683   7.075 -0.2555 -0.2128 -0.4617
   97SAPS   H6X 9703   1.361   4.771   7.096 -0.7894 -0.5130 -0.8145
   97SAPS   H6Y 9704   1.514   4.723   7.021 -0.7896  1.4899 -0.1666
   97SAPS   C37 9705   1.479   4.607   7.192  0.8426 -0.1579  0.0585
   97SAPS   H7X 9706   1.579   4.650   7.216  0.2788  2.6543 -2.0661
   97SAPS   H7Y 9707   1.508   4.508   7.153 -2.0965 -0.8550 -0.6421
   97SAPS   C38 9708   1.392   4.617   7.312 -0.1393  0.1696 -0.4961
   97SAPS   H8X 9709   1.295   4.569   7.290 -0.5084 -0.7080  2.5917
   97SAPS   H8Y 9710   1.377   4.724   7.338 -0.0264 -0.0444  0.5102
   97SAPS   C39 9711   1.444   4.550   7.441  0.4325  0.4405  0.6234
   97SAPS   H9X 9712   1.544   4.596   7.452 -0.6137  3.1610 -0.3503
   97SAPS   H9Y 9713   1.447   4.439   7.434 -3.5361  0.2115  0.0059
   97SAPS  C310 9714   1.350   4.572   7.570  0.0274 -0.1026  0.5708
   97SAPS  H10X 9715   1.253   4.526   7.542 -0.1442  0.6920 -0.1522
   97SAPS  H10Y 9716   1.339   4.682   7.568  2.9060  0.3058  1.8378
   97SAPS  C311 9717   1.427   4.542   7.700 -0.2069  0.3847 -1.0902
   97SAPS  H11X 9718   1.514   4.608   7.714  0.1454 -0.2923 -0.0406
   97SAPS  H11Y 9719   1.454   4.435   7.688 -2.6847 -0.4135 -0.3091
   97SAPS  C312 9720   1.339   4.541   7.824  0.2775  0.0002  0.4115
   97SAPS  H12X 9721   1.254   4.471   7.815 -0.5000  1.0889 -0.9250
   97SAPS  H12Y 9722   1.290   4.640   7.817 -1.2353 -0.8355 -1.7899
   97SAPS  C313 9723   1.417   4.507   7.950 -0.3939 -0.3251  0.4765
   97SAPS  H13X 9724   1.505   4.575   7.950 -1.9822  1.8702  1.2158
   97SAPS  H13Y 9725   1.457   4.404   7.940 -0.0370 -0.2823  1.3712
   97SAPS  C314 9726   1.326   4.527   8.074  0.6394  0.3142  0.5857
   97SAPS  H14X 9727   1.251   4.446   8.059  2.6276 -1.4431 -0.4157
   97SAPS  H14Y 9728   1.271   4.624   8.076 -2.0401 -1.0282 -1.6248
   97SAPS  C315 9729   1.385   4.502   8.210  0.6029 -0.7276 -0.5540
   97SAPS  H15X 9730   1.450   4.413   8.215 -0.9939 -1.8964  0.1187
   97SAPS  H15Y 9731   1.304   4.481   8.284 -1.0111  2.8726 -1.0296
   97SAPS  C316 9732   1.471   4.617   8.262  0.2568 -0.8589  0.3764
   97SAPS  H16X 9733   1.412   4.709   8.240 -0.1329 -1.0016  0.8231
   97SAPS  H16Y 9734   1.573   4.611   8.219 -0.1380 -1.2401 -0.5435
   97SAPS  C317 9735   1.486   4.625   8.422 -0.0273  0.3592 -0.7303
   97SAPS  H17X 9736   1.559   4.706   8.441  2.9555 -1.4677 -3.3341
   97SAPS  H17Y 9737   1.529   4.525   8.447 -1.9308 -0.7762 -1.7187
   97SAPS  C318 9738   1.355   4.642   8.498  0.6055  0.6892 -0.3873
   97SAPS  H18X 9739   1.292   4.551   8.493  0.0652  1.0126  0.3509
   97SAPS  H18Y 9740   1.297   4.720   8.444  0.9373  0.1329 -1.5841
   97SAPS  H18Z 9741   1.367   4.671   8.605  0.4735 -1.6777  0.3302
   98SAPS     N 9742   6.052   5.207   6.039  0.2242 -0.4850  0.2790
   98SAPS   HN1 9743   6.016   5.236   6.132  2.3412 -0.7132  1.1999
   98SAPS   HN2 9744   6.002   5.121   6.009 -0.0511  0.1921 -1.3334
   98SAPS   HN3 9745   6.154   5.188   6.039  1.0873  3.3427  1.0165
   98SAPS   C12 9746   6.030   5.318   5.939  0.1377  0.2935  0.2576
   98SAPS  H12A 9747   6.095   5.308   5.853 -1.6520  1.1413 -1.2932
   98SAPS   C13 9748   5.888   5.329   5.887 -0.0099  0.8815 -0.8754
   98SAPS  O13A 9749   5.807   5.256   5.950  0.4667 -0.7007 -0.1389
   98SAPS  O13B 9750   5.856   5.428   5.823 -0.4817  0.6073  0.5160
   98SAPS   C11 9751   6.079   5.449   6.017 -0.2494  0.2069 -0.1659
   98SAPS  H11A 9752   6.027   5.465   6.114  0.9384  0.4415  0.4406
   98SAPS  H11B 9753   6.070   5.535   5.947  3.2099  0.2102 -0.7514
   98SAPS     P 9754   6.302   5.565   6.065  0.1533  0.3976  0.2518
   98SAPS   O13 9755   6.426   5.541   6.142  0.0051 -0.0120 -0.1793
   98SAPS   O14 9756   6.311   5.622   5.933  0.0589 -0.2752  0.1795
   98SAPS   O12 9757   6.218   5.428   6.049 -0.0208  0.0554 -0.6565
   98SAPS   O11 9758   6.201   5.667   6.147 -0.1421  0.1655 -0.0498
   98SAPS    C1 9759   6.245   5.735   6.265 -0.0584  0.4042 -0.5700
   98SAPS    HA 9760   6.353   5.760   6.270  1.1451 -3.8831 -0.4663
   98SAPS    HB 9761   6.188   5.830   6.273 -2.9318 -1.2447  0.1291
   98SAPS    C2 9762   6.206   5.650   6.392 -0.3392  0.2609 -0.0491
   98SAPS    HS 9763   6.238   5.545   6.375 -0.7159  0.4803 -2.4555
   98SAPS   O21 9764   6.060   5.663   6.405 -1.0984  0.4520 -0.5941
   98SAPS   C21 9765   6.003   5.566   6.476  0.2070  0.5605  0.4501
   98SAPS   O22 9766   6.043   5.451   6.494 -0.2603 -0.3219 -0.0806
   98SAPS   C22 9767   5.866   5.621   6.521  0.1552 -0.6493 -0.6405
   98SAPS   H2R 9768   5.888   5.714   6.577 -0.9697 -0.7688  0.0162
   98SAPS   H2S 9769   5.809   5.642   6.428  1.3882 -0.2448 -1.3369
   98SAPS    C3 9770   6.273   5.704   6.525  0.2842  0.0592 -0.5177
   98SAPS    HX 9771   6.253   5.813   6.517 -1.3559 -0.2909 -1.6014
   98SAPS    HY 9772   6.380   5.674   6.520 -0.0755 -1.4242  0.0992
   98SAPS   O31 9773   6.205   5.665   6.646 -0.1254 -0.6248 -0.3200
   98SAPS   C31 9774   6.252   5.710   6.759 -0.5115  0.3661  0.5821
   98SAPS   O32 9775   6.354   5.779   6.779  0.0856  0.7754 -0.0790
   98SAPS   C32 9776   6.167   5.653   6.879 -0.4487 -0.3307  0.2064
   98SAPS   H2X 9777   6.119   5.558   6.846 -3.7479  1.0846  0.5461
   98SAPS   H2Y 9778   6.088   5.729   6.891 -0.0231  0.1802 -0.1689
   98SAPS   C23 9779   5.777   5.540   6.620  0.1043  0.7368  0.2481
   98SAPS   H3R 9780   5.776   5.431   6.600 -2.1212  0.2288  2.5693
   98SAPS   H3S 9781   5.671   5.561   6.593  0.7898  0.9439 -2.6231
   98SAPS   C24 9782   5.805   5.577   6.768 -1.3122 -0.0283  0.0196
   98SAPS   H4R 9783   5.799   5.687   6.785 -1.5060 -0.0245 -0.0721
   98SAPS   H4S 9784   5.910   5.552   6.795 -1.9050 -1.2427  1.3774
   98SAPS   C25 9785   5.720   5.503   6.869  0.2284  0.3754  0.3123
   98SAPS   H5R 9786   5.617   5.536   6.848  0.6337  0.5156 -1.6329
   98SAPS   C26 9787   5.747   5.420   6.973 -0.5998 -0.1609  0.5182
   98SAPS   H6R 9788   5.662   5.387   7.034  0.0377 -0.9106  1.0256
   98SAPS   C27 9789   5.881   5.381   7.031 -0.3586 -0.0568  0.3118
   98SAPS   H7R 9790   5.883   5.412   7.138 -2.0765 -1.4043  0.7871
   98SAPS   H7S 9791   5.965   5.430   6.977 -0.8699  1.0744  0.4995
   98SAPS   C28 9792   5.873   5.227   7.015 -0.2200  0.0849 -0.4500
   98SAPS   H8R 9793   5.850   5.197   6.912  0.3791  0.7231 -0.7814
   98SAPS   C29 9794   5.883   5.135   7.117 -0.1866 -0.5460  0.8909
   98SAPS   H9R 9795   5.862   5.030   7.092  3.2780 -1.2955  0.6080
   98SAPS  C210 9796   5.892   5.176   7.263  0.2221 -0.1626 -0.5291
   98SAPS  H10R 9797   5.955   5.267   7.275  0.2561 -0.3629  1.1044
   98SAPS  H10S 9798   5.943   5.092   7.315  0.7979  1.1758  1.1563
   98SAPS  C211 9799   5.758   5.194   7.326 -0.5060 -0.3041  0.3713
   98SAPS  H11R 9800   5.670   5.196   7.260  0.5935  2.2677 -1.1772
   98SAPS  C212 9801   5.728   5.226   7.450 -0.3272 -0.3754  0.2023
   98SAPS  H12R 9802   5.623   5.252   7.465 -0.0959  1.8181 -1.4472
   98SAPS  C213 9803   5.832   5.254   7.556 -0.3929  0.1653 -0.1455
   98SAPS  H13R 9804   5.910   5.311   7.502 -0.6500  2.0910  1.4263
   98SAPS  H13S 9805   5.871   5.153   7.584 -2.5372 -0.9115 -0.8225
   98SAPS  C214 9806   5.768   5.343   7.666 -0.7833 -0.3828  0.6850
   98SAPS  H14R 9807   5.756   5.448   7.635  0.0869  0.0127  1.6273
   98SAPS  C215 9808   5.717   5.312   7.788 -0.0717  0.2636 -0.0827
   98SAPS  H15R 9809   5.672   5.390   7.850  0.1345  0.9538 -0.7855
   98SAPS  C216 9810   5.728   5.175   7.847  0.9050  0.0521  0.1962
   98SAPS  H16R 9811   5.825   5.124   7.828  0.1867 -0.3547 -2.9389
   98SAPS  H16S 9812   5.667   5.104   7.786 -1.7733  1.1003  1.5012
   98SAPS  C217 9813   5.679   5.171   7.991 -0.7821  0.1592  0.3724
   98SAPS  H17R 9814   5.574   5.202   8.006 -1.1676 -2.0200  3.0484
   98SAPS  H17S 9815   5.743   5.239   8.052  2.3115 -2.0685 -0.0957
   98SAPS  C218 9816   5.697   5.027   8.040  0.6290 -0.4781 -0.0428
   98SAPS  H18R 9817   5.800   4.998   8.010  0.4432 -1.5604  0.3438
   98SAPS  H18S 9818   5.625   4.971   7.977 -1.7041  2.0704  0.1514
   98SAPS  C219 9819   5.687   5.005   8.189  0.2112 -0.5791  0.5239
   98SAPS  H19R 9820   5.677   4.895   8.200  0.8585 -0.6339  0.6343
   98SAPS  H19S 9821   5.603   5.057   8.241  1.9289  1.3364  1.5491
   98SAPS  C220 9822   5.807   5.042   8.267 -0.7436 -0.2322 -0.4026
   98SAPS  H20R 9823   5.805   5.002   8.371 -0.6690 -0.6248 -0.5517
   98SAPS  H20S 9824   5.819   5.153   8.264 -1.5951 -0.0857  0.6460
   98SAPS  H20T 9825   5.903   5.014   8.219 -0.5332 -0.0551 -0.0899
   98SAPS   C33 9826   6.252   5.648   7.011 -1.0035 -0.6698  0.0611
   98SAPS   H3X 9827   6.263   5.755   7.041 -1.7760 -0.0333 -1.7929
   98SAPS   H3Y 9828   6.350   5.597   7.000 -1.5707 -1.6911 -0.3541
   98SAPS   C34 9829   6.172   5.559   7.112 -0.2682  0.3244 -1.0031
   98SAPS   H4X 9830   6.175   5.455   7.073 -1.0743  0.4578 -1.4432
   98SAPS   H4Y 9831   6.070   5.603   7.103 -0.3701  0.0769 -1.0781
   98SAPS   C35 9832   6.227   5.582   7.252  0.5204 -0.5576 -0.2952
   98SAPS   H5X 9833   6.209   5.690   7.268 -0.0277 -0.9072  1.7067
   98SAPS   H5Y 9834   6.335   5.554   7.255  0.9455  0.8505 -1.2287
   98SAPS   C36 9835   6.149   5.515   7.366  1.2378 -0.4484  0.7982
   98SAPS   H6X 9836   6.155   5.405   7.355  2.4739 -0.1676 -2.1873
   98SAPS   H6Y 9837   6.041   5.539   7.351  1.7303  2.2202  0.9439
   98SAPS   C37 9838   6.207   5.578   7.491 -0.2287  0.4254 -0.1830
   98SAPS   H7X 9839   6.193   5.687   7.479  2.3327  1.0792  1.7753
   98SAPS   H7Y 9840   6.316   5.566   7.512 -0.1445 -0.8238 -1.2392
   98SAPS   C38 9841   6.141   5.519   7.615  0.5567  0.4684  0.5305
   98SAPS   H8X 9842   6.160   5.411   7.598 -2.3832 -0.2529  1.2331
   98SAPS   H8Y 9843   6.030   5.518   7.610  0.5647  1.3186  0.1219
   98SAPS   C39 9844   6.194   5.567   7.745  0.8025  0.2563 -0.0345
   98SAPS   H9X 9845   6.163   5.673   7.754 -1.6810 -0.5521  2.1905
   98SAPS   H9Y 9846   6.303   5.566   7.767  1.1647  1.3353 -1.6193
   98SAPS  C310 9847   6.132   5.499   7.870  0.2861 -0.2121 -0.3189
   98SAPS  H10X 9848   6.142   5.389   7.866 -0.1423 -0.3209  0.9582
   98SAPS  H10Y 9849   6.021   5.506   7.869  0.3123  0.9353  1.1754
   98SAPS  C311 9850   6.190   5.569   7.992  0.2799 -0.0020  0.1436
   98SAPS  H11X 9851   6.129   5.657   8.024  1.6459  0.6808  0.9550
   98SAPS  H11Y 9852   6.291   5.606   7.968 -0.2776 -0.5286 -3.5623
   98SAPS  C312 9853   6.192   5.476   8.115 -0.9854  0.4036 -0.2709
   98SAPS  H12X 9854   6.280   5.408   8.114 -1.3213 -0.0281 -1.1601
   98SAPS  H12Y 9855   6.107   5.405   8.115 -1.0788  0.3770  2.5759
   98SAPS  C313 9856   6.192   5.560   8.236 -0.1967  0.5211  0.0998
   98SAPS  H13X 9857   6.090   5.603   8.241 -0.1875  0.4785  0.7337
   98SAPS  H13Y 9858   6.270   5.638   8.225 -1.5630  1.7689 -1.3665
   98SAPS  C314 9859   6.224   5.484   8.369 -0.2597  0.1968  0.3081
   98SAPS  H14X 9860   6.335   5.474   8.371 -0.2842 -1.8786 -2.3512
   98SAPS  H14Y 9861   6.173   5.385   8.362  0.1703 -0.1200  1.4494
   98SAPS  C315 9862   6.163   5.557   8.490 -0.6960 -0.0794  0.1528
   98SAPS  H15X 9863   6.163   5.664   8.462 -1.4226 -0.6986 -2.4965
   98SAPS  H15Y 9864   6.229   5.542   8.578 -0.5603  0.0167  0.0679
   98SAPS  C316 9865   6.023   5.513   8.531 -0.9477  0.4568 -0.5957
   98SAPS  H16X 9866   6.025   5.409   8.570 -0.0218  1.2623  1.7476
   98SAPS  H16Y 9867   5.945   5.520   8.453 -1.9750  1.4575  0.4782
   98SAPS  C317 9868   5.962   5.601   8.637 -0.2512  0.2274  0.8001
   98SAPS  H17X 9869   5.949   5.704   8.597 -0.8866 -0.2643 -0.3254
   98SAPS  H17Y 9870   6.033   5.622   8.719  0.3770  1.2154  0.0311
   98SAPS  C318 9871   5.830   5.546   8.681 -0.0400 -0.3644 -0.0130
   98SAPS  H18X 9872   5.750   5.572   8.610 -0.5211  0.7049  0.8990
   98SAPS  H18Y 9873   5.800   5.581   8.782 -0.4834 -0.9763  0.0692
   98SAPS  H18Z 9874   5.828   5.436   8.669  1.1384 -0.6825  2.0302
   99SAPS     N 9875   6.084   1.882   5.915  0.5389  0.0395 -1.2274
   99SAPS   HN1 9876   6.009   1.832   5.967 -1.5391  3.4867 -0.6228
   99SAPS   HN2 9877   6.165   1.817   5.904  0.8601  0.0663  0.6173
   99SAPS   HN3 9878   6.121   1.962   5.971  1.6445 -1.9409  1.1012
   99SAPS   C12 9879   6.029   1.947   5.790  0.0990  0.7447 -0.1573
   99SAPS  H12A 9880   6.109   2.001   5.741  1.5717 -0.9255  0.2827
   99SAPS   C13 9881   5.975   1.838   5.683  0.2930 -0.2003 -0.7524
   99SAPS  O13A 9882   5.989   1.717   5.709  0.1346 -0.0256 -0.4918
   99SAPS  O13B 9883   5.922   1.880   5.579 -0.1347  0.0044  0.1024
   99SAPS   C11 9884   5.930   2.057   5.831  0.4882  0.5500  0.4147
   99SAPS  H11A 9885   5.845   2.008   5.883  1.4059 -2.5574 -0.8083
   99SAPS  H11B 9886   5.875   2.097   5.743 -0.1535 -2.1195 -0.4889
   99SAPS     P 9887   5.909   2.294   5.935  0.2579  0.3061  0.0460
   99SAPS   O13 9888   5.975   2.404   5.859 -0.5464  0.4356 -0.7377
   99SAPS   O14 9889   5.766   2.270   5.898 -0.0567 -0.1296 -0.0331
   99SAPS   O12 9890   5.990   2.157   5.918  0.0791 -0.1107  0.3835
   99SAPS   O11 9891   5.925   2.327   6.091  0.0360  0.7263 -0.2691
   99SAPS    C1 9892   5.957   2.226   6.187 -0.3534 -0.4033  0.1505
   99SAPS    HA 9893   5.949   2.120   6.154  1.3904  0.0838 -2.0771
   99SAPS    HB 9894   6.061   2.246   6.223 -0.2630  1.3077 -0.9723
   99SAPS    C2 9895   5.874   2.240   6.320 -0.2226 -0.2271 -0.7090
   99SAPS    HS 9896   5.896   2.150   6.381  0.9473  1.5288  1.6392
   99SAPS   O21 9897   5.732   2.239   6.297  0.0023 -0.0995 -1.0148
   99SAPS   C21 9898   5.682   2.129   6.228  0.3853 -0.0258  1.0341
   99SAPS   O22 9899   5.740   2.021   6.214  0.1176  0.1466 -0.1586
   99SAPS   C22 9900   5.542   2.158   6.168 -0.7706 -0.7977  0.1646
   99SAPS   H2R 9901   5.482   2.211   6.244  1.2777 -1.9051  2.6950
   99SAPS   H2S 9902   5.547   2.230   6.084  0.0722  2.2690  2.6733
   99SAPS    C3 9903   5.915   2.366   6.410  0.1576  0.1278 -0.5901
   99SAPS    HX 9904   5.940   2.455   6.349 -0.9698  1.2052  0.4597
   99SAPS    HY 9905   6.005   2.343   6.470 -1.0058 -0.3069  1.0650
   99SAPS   O31 9906   5.814   2.397   6.505  0.0143  0.2547 -0.4190
   99SAPS   C31 9907   5.730   2.496   6.485  0.1671 -0.2895  0.1762
   99SAPS   O32 9908   5.733   2.575   6.393 -0.1000 -0.3823  0.1962
   99SAPS   C32 9909   5.646   2.515   6.610  0.1398 -0.5680  0.5086
   99SAPS   H2X 9910   5.690   2.467   6.699 -0.1934 -3.3953 -0.7393
   99SAPS   H2Y 9911   5.559   2.449   6.587 -2.2136  1.7380  2.1073
   99SAPS   C23 9912   5.466   2.029   6.133 -0.4867  0.5655 -0.3968
   99SAPS   H3R 9913   5.533   1.953   6.088  0.3745  0.5091  0.9093
   99SAPS   H3S 9914   5.391   2.046   6.053  0.3439 -2.3633 -1.9370
   99SAPS   C24 9915   5.400   1.972   6.254 -0.0504  0.3861  0.1275
   99SAPS   H4R 9916   5.488   1.935   6.311  0.1024 -0.3475 -0.5630
   99SAPS   H4S 9917   5.353   1.874   6.232  1.7860 -0.7771  1.0786
   99SAPS   C25 9918   5.307   2.073   6.316  0.4361  0.2409 -0.2172
   99SAPS   H5R 9919   5.244   2.134   6.251 -1.2393 -1.0051  0.1601
   99SAPS   C26 9920   5.291   2.104   6.447 -0.4740  0.1090  0.1027
   99SAPS   H6R 9921   5.222   2.185   6.474 -1.0438  0.1065 -1.2635
   99SAPS   C27 9922   5.363   2.033   6.560 -0.2900 -0.2725 -0.3498
   99SAPS   H7R 9923   5.418   1.946   6.518  2.2147  0.9651  0.2177
   99SAPS   H7S 9924   5.288   1.978   6.620  0.8017  0.2262  1.5652
   99SAPS   C28 9925   5.456   2.112   6.652 -0.1038  0.2944  0.2370
   99SAPS   H8R 9926   5.564   2.097   6.634 -0.2652 -0.0711 -0.4448
   99SAPS   C29 9927   5.430   2.214   6.731 -0.0608 -0.5260 -0.1332
   99SAPS   H9R 9928   5.509   2.255   6.796 -0.2526  0.7464 -0.6609
   99SAPS  C210 9929   5.294   2.277   6.755 -0.2544  0.2822 -0.8178
   99SAPS  H10R 9930   5.259   2.249   6.857 -2.0812  2.4515 -0.7723
   99SAPS  H10S 9931   5.216   2.238   6.686 -1.9871  0.3558  0.9962
   99SAPS  C211 9932   5.290   2.430   6.742 -0.4536  0.3522  0.0340
   99SAPS  H11R 9933   5.316   2.457   6.639 -1.8318 -1.5456 -0.8865
   99SAPS  C212 9934   5.298   2.520   6.842  0.1345  0.2007  0.2587
   99SAPS  H12R 9935   5.310   2.626   6.814  2.5777  0.0505  0.5676
   99SAPS  C213 9936   5.304   2.503   6.990  0.4368 -0.5470 -0.8333
   99SAPS  H13R 9937   5.208   2.457   7.023 -0.7900  0.1280 -3.2321
   99SAPS  H13S 9938   5.315   2.604   7.034 -0.5735 -0.6298 -0.3805
   99SAPS  C214 9939   5.423   2.413   7.029  0.0149 -0.5630 -0.2369
   99SAPS  H14R 9940   5.520   2.417   6.977  0.0103 -3.4187 -0.6796
   99SAPS  C215 9941   5.422   2.324   7.130 -0.0444 -0.2719 -0.9508
   99SAPS  H15R 9942   5.515   2.269   7.153 -0.1804 -0.4732 -0.8774
   99SAPS  C216 9943   5.313   2.292   7.234 -0.0436  0.2889 -0.1898
   99SAPS  H16R 9944   5.283   2.187   7.216 -1.2823  0.5680  0.1690
   99SAPS  H16S 9945   5.217   2.345   7.215 -0.1623  0.6197  1.2179
   99SAPS  C217 9946   5.360   2.318   7.378 -0.0830  0.5106  0.2219
   99SAPS  H17R 9947   5.392   2.423   7.397  1.4557  0.1453 -0.2485
   99SAPS  H17S 9948   5.436   2.240   7.401 -1.8522 -1.2195  0.4043
   99SAPS  C218 9949   5.245   2.293   7.469 -0.0964 -0.3686 -0.8986
   99SAPS  H18R 9950   5.201   2.191   7.471 -1.5221  0.1835 -2.0803
   99SAPS  H18S 9951   5.150   2.344   7.441 -0.6329 -0.7037  0.2532
   99SAPS  C219 9952   5.279   2.340   7.613  0.1435  0.1987  0.2857
   99SAPS  H19R 9953   5.193   2.325   7.682 -0.9169 -2.0794 -1.4445
   99SAPS  H19S 9954   5.293   2.451   7.610 -1.4425  0.4263  0.3990
   99SAPS  C220 9955   5.400   2.274   7.678  0.1101  0.1304 -0.1444
   99SAPS  H20R 9956   5.420   2.304   7.783 -0.7236 -0.4807  0.1997
   99SAPS  H20S 9957   5.487   2.311   7.619 -1.0174  2.3959 -0.4869
   99SAPS  H20T 9958   5.391   2.163   7.683  1.6474 -0.0079  0.1161
   99SAPS   C33 9959   5.607   2.666   6.642 -0.0117 -0.0595 -0.4512
   99SAPS   H3X 9960   5.531   2.658   6.723 -0.3721  3.0618 -0.3442
   99SAPS   H3Y 9961   5.541   2.717   6.568 -2.3741 -2.2524 -0.0027
   99SAPS   C34 9962   5.728   2.741   6.689 -0.0204  1.0318 -0.4564
   99SAPS   H4X 9963   5.764   2.810   6.610  0.2380  1.3577 -0.0570
   99SAPS   H4Y 9964   5.810   2.666   6.699 -1.9960 -1.3611 -1.2401
   99SAPS   C35 9965   5.709   2.817   6.822 -0.0743 -0.2477 -0.5604
   99SAPS   H5X 9966   5.637   2.900   6.805  1.7671  1.9042  1.4729
   99SAPS   H5Y 9967   5.805   2.868   6.845 -1.0708  1.9379 -0.9581
   99SAPS   C36 9968   5.676   2.732   6.946  0.6714 -0.4530  0.0718
   99SAPS   H6X 9969   5.747   2.649   6.965  0.4009 -0.2869  2.0534
   99SAPS   H6Y 9970   5.580   2.677   6.930  1.1546 -1.2767 -0.0193
   99SAPS   C37 9971   5.661   2.809   7.079  0.6352 -0.8591  0.1985
   99SAPS   H7X 9972   5.594   2.897   7.080  1.9655  0.1775  0.3452
   99SAPS   H7Y 9973   5.763   2.849   7.101  0.5765  0.3088 -1.4393
   99SAPS   C38 9974   5.610   2.720   7.188  0.3578  0.2510 -0.4959
   99SAPS   H8X 9975   5.660   2.621   7.183 -0.0080 -0.1780  2.3663
   99SAPS   H8Y 9976   5.506   2.684   7.176  0.4294  0.5322 -2.2836
   99SAPS   C39 9977   5.624   2.781   7.331  0.1125 -0.2346 -0.2044
   99SAPS   H9X 9978   5.724   2.829   7.342 -0.3947  1.1585 -1.2678
   99SAPS   H9Y 9979   5.619   2.696   7.401  2.7504 -0.6023 -0.3343
   99SAPS  C310 9980   5.516   2.878   7.371  0.8536 -0.4162 -0.0456
   99SAPS  H10X 9981   5.415   2.832   7.369  0.9435 -0.7520  1.5558
   99SAPS  H10Y 9982   5.520   2.966   7.303 -0.8850  0.3303  0.7509
   99SAPS  C311 9983   5.522   2.924   7.518  0.6379  0.1919  0.7105
   99SAPS  H11X 9984   5.625   2.966   7.522  1.1851 -1.0253  0.2079
   99SAPS  H11Y 9985   5.515   2.840   7.590 -1.6510  0.8311  1.3010
   99SAPS  C312 9986   5.419   3.032   7.547  0.5495 -0.5380  0.0191
   99SAPS  H12X 9987   5.314   3.001   7.527  0.9070 -0.8362 -1.4715
   99SAPS  H12Y 9988   5.437   3.105   7.466 -0.6107 -1.6206 -1.2568
   99SAPS  C313 9989   5.441   3.092   7.693  0.2231  0.2246  1.0223
   99SAPS  H13X 9990   5.551   3.077   7.708  0.5475  0.3756 -0.9787
   99SAPS  H13Y 9991   5.389   3.026   7.766 -0.9293 -2.8240 -2.2477
   99SAPS  C314 9992   5.419   3.239   7.706  0.2646 -0.0117 -0.2567
   99SAPS  H14X 9993   5.320   3.285   7.685  0.2283 -0.3933 -0.9685
   99SAPS  H14Y 9994   5.481   3.284   7.625 -1.4766  0.0135 -1.6297
   99SAPS  C315 9995   5.488   3.283   7.836 -0.7558 -0.3562 -0.4045
   99SAPS  H15X 9996   5.588   3.234   7.834 -0.5695  0.0401 -2.6640
   99SAPS  H15Y 9997   5.435   3.249   7.928 -1.7091  0.8766 -0.4699
   99SAPS  C316 9998   5.503   3.432   7.840 -0.5043 -0.5188  0.0344
   99SAPS  H16X 9999   5.402   3.473   7.861  0.3264  1.7796 -0.2369
   99SAPS  H16Y10000   5.550   3.468   7.746  0.6846 -1.4341  0.2552
   99SAPS  C31710001   5.595   3.485   7.945  0.0307  0.2486 -0.3456
   99SAPS  H17X10002   5.550   3.586   7.954  0.1787  0.6328 -3.1649
   99SAPS  H17Y10003   5.698   3.497   7.906 -0.2598 -0.6394 -1.4183
   99SAPS  C31810004   5.603   3.407   8.080 -0.1609  0.2655 -0.8120
   99SAPS  H18X10005   5.621   3.464   8.174 -0.8335 -2.2185  0.9087
   99SAPS  H18Y10006   5.684   3.331   8.073 -1.8211 -1.4992 -1.6418
   99SAPS  H18Z10007   5.505   3.357   8.092 -1.0135  1.5877 -1.9284
  100SAPS     N10008   0.479   3.430   6.168  0.5086  0.0400 -0.1323
  100SAPS   HN110009   0.424   3.519   6.175 -0.0479 -0.4214  2.2684
  100SAPS   HN210010   0.415   3.348   6.173  0.5055 -0.0384 -1.1848
  100SAPS   HN310011   0.542   3.423   6.250 -1.4265  0.6776  1.4820
  100SAPS   C1210012   0.560   3.437   6.038 -0.3355  0.3369  0.0881
  100SAPS  H12A10013   0.615   3.345   6.054 -0.7471  0.0095 -0.3500
  100SAPS   C1310014   0.474   3.413   5.911  0.2810 -0.2878  0.2124
  100SAPS  O13A10015   0.345   3.403   5.919  0.4613 -0.1076 -0.1903
  100SAPS  O13B10016   0.529   3.448   5.799 -0.2677  0.3802 -0.4143
  100SAPS   C1110017   0.646   3.566   6.032 -0.9140 -0.0695 -0.7946
  100SAPS  H11A10018   0.579   3.643   5.988  0.9714  1.2444 -1.4539
  100SAPS  H11B10019   0.730   3.557   5.960  0.1848 -0.7996  0.5224
  100SAPS     P10020   0.839   3.574   6.203  0.2038 -0.1034  0.1422
  100SAPS   O1310021   0.846   3.427   6.223 -0.4430  0.4901  0.3772
  100SAPS   O1410022   0.932   3.634   6.096  0.1430 -0.3831 -0.3677
  100SAPS   O1210023   0.689   3.612   6.159 -0.3457 -0.5148  0.2312
  100SAPS   O1110024   0.850   3.647   6.337  0.0634  0.4047  0.8431
  100SAPS    C110025   0.751   3.734   6.396  0.3185  0.3735  0.3599
  100SAPS    HA10026   0.758   3.824   6.330  0.2563 -0.6297 -1.0731
  100SAPS    HB10027   0.649   3.690   6.401  0.5824 -0.1110  2.2880
  100SAPS    C210028   0.794   3.774   6.542  0.7293 -0.8477  0.2010
  100SAPS    HS10029   0.730   3.857   6.581  1.4846 -0.2385  0.1489
  100SAPS   O2110030   0.929   3.816   6.544 -0.7261  0.0143  0.7275
  100SAPS   C2110031   0.957   3.926   6.484  0.5107 -0.2865  0.4293
  100SAPS   O2210032   0.875   4.008   6.451 -0.0433 -0.1536  0.1247
  100SAPS   C2210033   1.107   3.945   6.446  0.1160  0.5913 -1.2896
  100SAPS   H2R10034   1.171   3.923   6.534 -1.4368 -0.4783 -0.3827
  100SAPS   H2S10035   1.130   3.863   6.374  2.5873 -0.5250  0.6220
  100SAPS    C310036   0.775   3.649   6.631 -0.0458 -0.2348 -0.1912
  100SAPS    HX10037   0.839   3.564   6.599  1.9528  0.7994  0.9098
  100SAPS    HY10038   0.668   3.622   6.618  0.0099  0.2624 -2.0510
  100SAPS   O3110039   0.809   3.681   6.766 -0.1082 -0.2272 -0.0412
  100SAPS   C3110040   0.931   3.642   6.801  0.1528 -0.2516 -0.1327
  100SAPS   O3210041   1.005   3.569   6.739  0.3891 -0.5754 -0.2219
  100SAPS   C3210042   0.977   3.709   6.932  0.2385 -0.9745  0.1313
  100SAPS   H2X10043   0.933   3.811   6.940 -1.6121 -1.5506 -1.7549
  100SAPS   H2Y10044   1.088   3.710   6.927  0.2830 -1.6627  0.7628
  100SAPS   C2310045   1.150   4.079   6.375 -0.1690 -0.3310  0.0180
  100SAPS   H3R10046   1.076   4.113   6.299 -0.2970  0.8133  0.6212
  100SAPS   H3S10047   1.245   4.065   6.320  0.2039  1.3178  0.1877
  100SAPS   C2410048   1.147   4.197   6.473 -0.5189  0.1427  0.7580
  100SAPS   H4R10049   1.051   4.205   6.528  0.6730  0.0463  2.9461
  100SAPS   H4S10050   1.149   4.297   6.425 -2.2491  0.3105  0.9681
  100SAPS   C2510051   1.264   4.191   6.574 -0.2769  0.5782  0.7035
  100SAPS   H5R10052   1.363   4.215   6.534  0.4394 -1.4719  1.1449
  100SAPS   C2610053   1.261   4.174   6.706  0.2230  0.5654  0.2609
  100SAPS   H6R10054   1.356   4.175   6.762 -0.6231  1.1555  1.7714
  100SAPS   C2710055   1.138   4.153   6.792  0.8097  0.0233  0.5026
  100SAPS   H7R10056   1.047   4.133   6.732  0.4812  0.8601  0.7051
  100SAPS   H7S10057   1.125   4.244   6.854 -0.6395 -0.0390  0.3250
  100SAPS   C2810058   1.173   4.031   6.872 -0.4166 -0.5609  0.3740
  100SAPS   H8R10059   1.185   3.936   6.817  1.1870  0.3012 -0.8393
  100SAPS   C2910060   1.188   4.019   7.007 -0.5096 -0.1767 -0.3975
  100SAPS   H9R10061   1.219   3.922   7.050  0.5541  1.2642  2.3871
  100SAPS  C21010062   1.166   4.134   7.107 -0.3074 -0.2027 -0.5057
  100SAPS  H10R10063   1.158   4.231   7.054 -2.4807 -0.7290 -1.2412
  100SAPS  H10S10064   1.256   4.138   7.171 -0.1922  2.6495 -0.7434
  100SAPS  C21110065   1.041   4.100   7.192  0.0880  0.2151  0.8873
  100SAPS  H11R10066   0.947   4.117   7.137  0.1296  0.3278  0.8509
  100SAPS  C21210067   1.039   4.056   7.322 -0.3173  0.1005 -0.7371
  100SAPS  H12R10068   0.941   4.030   7.364  0.4383  1.1796  1.8866
  100SAPS  C21310069   1.156   4.026   7.409 -0.2956 -0.3452  0.0173
  100SAPS  H13R10070   1.247   3.997   7.352 -0.6074 -1.6869  0.1638
  100SAPS  H13S10071   1.132   3.934   7.467 -0.5660 -1.9780 -2.5215
  100SAPS  C21410072   1.180   4.155   7.485 -0.4103  0.4071 -0.6902
  100SAPS  H14R10073   1.197   4.242   7.420  0.7731  0.0817 -0.8438
  100SAPS  C21510074   1.164   4.175   7.618 -0.1314 -1.0955 -0.3215
  100SAPS  H15R10075   1.205   4.270   7.653 -1.1016 -0.6596 -0.3272
  100SAPS  C21610076   1.137   4.075   7.732  0.1107 -0.0076 -0.7179
  100SAPS  H16R10077   1.195   3.983   7.710  0.6825 -0.2622  1.6205
  100SAPS  H16S10078   1.027   4.057   7.733 -0.1423  1.4409  0.0366
  100SAPS  C21710079   1.192   4.121   7.872  0.0214  0.0605 -0.6666
  100SAPS  H17R10080   1.128   4.090   7.957 -1.6388  2.2074 -1.0501
  100SAPS  H17S10081   1.181   4.231   7.879 -0.1247  0.0935 -1.3158
  100SAPS  C21810082   1.342   4.066   7.899 -0.8890  0.1983 -0.0891
  100SAPS  H18R10083   1.407   4.091   7.813  2.6114 -2.3595  1.5894
  100SAPS  H18S10084   1.314   3.959   7.909  0.2953 -0.3002 -1.7886
  100SAPS  C21910085   1.418   4.109   8.026 -0.1503  0.1431 -0.1135
  100SAPS  H19R10086   1.349   4.171   8.088  1.2209  1.0456  0.5645
  100SAPS  H19S10087   1.499   4.178   7.994  0.6178 -0.7592 -0.1546
  100SAPS  C22010088   1.471   4.000   8.117  0.1953  0.6397  0.5022
  100SAPS  H20R10089   1.531   3.930   8.055 -1.7123  0.1017 -0.8289
  100SAPS  H20S10090   1.388   3.937   8.156 -1.1036  2.3311  0.5776
  100SAPS  H20T10091   1.533   4.025   8.206 -0.6121  1.4805  0.8421
  100SAPS   C3310092   0.931   3.638   7.060 -0.8150  0.8458  0.1984
  100SAPS   H3X10093   1.005   3.556   7.068 -0.2331  1.4053  0.7036
  100SAPS   H3Y10094   0.827   3.602   7.046 -0.6828  0.9250 -1.1536
  100SAPS   C3410095   0.944   3.729   7.181  0.1038 -0.5493  0.6365
  100SAPS   H4X10096   0.849   3.785   7.167  0.0206 -0.5153  1.2694
  100SAPS   H4Y10097   1.025   3.801   7.163 -0.0411 -0.6902 -0.6960
  100SAPS   C3510098   0.947   3.663   7.315  0.0205 -0.0303 -0.1833
  100SAPS   H5X10099   0.897   3.565   7.300 -0.7622 -0.1179  2.4390
  100SAPS   H5Y10100   0.893   3.723   7.392 -1.8841 -0.9883 -0.7080
  100SAPS   C3610101   1.087   3.633   7.373 -0.1978 -0.2880 -0.7100
  100SAPS   H6X10102   1.152   3.723   7.372 -0.8592  0.1961 -1.0580
  100SAPS   H6Y10103   1.124   3.568   7.290 -1.6995 -2.3979  0.1932
  100SAPS   C3710104   1.085   3.568   7.516  0.0341  0.3234 -0.2062
  100SAPS   H7X10105   1.184   3.521   7.535  0.0261  1.0775  2.1083
  100SAPS   H7Y10106   1.010   3.486   7.520  0.9702 -0.6046 -1.1127
  100SAPS   C3810107   1.066   3.665   7.625  0.2769 -0.1978 -0.0416
  100SAPS   H8X10108   0.960   3.698   7.623  0.3277 -0.0321 -1.4128
  100SAPS   H8Y10109   1.128   3.755   7.608  2.1385 -1.3447  0.4101
  100SAPS   C3910110   1.105   3.619   7.762 -0.1271 -0.0903 -1.6038
  100SAPS   H9X10111   1.204   3.569   7.760  0.7214  1.5456 -2.5062
  100SAPS   H9Y10112   1.031   3.538   7.783  1.1955 -1.3089 -1.4753
  100SAPS  C31010113   1.111   3.719   7.887  0.4045 -0.0894 -0.8289
  100SAPS  H10X10114   1.197   3.785   7.864  0.4876 -0.0427 -0.3964
  100SAPS  H10Y10115   1.119   3.668   7.986  0.2661  0.0231 -0.7591
  100SAPS  C31110116   0.985   3.813   7.902 -0.1499  0.8556  0.1256
  100SAPS  H11X10117   0.970   3.867   7.806 -2.4181 -1.8120 -1.1431
  100SAPS  H11Y10118   1.008   3.877   7.990 -1.0122  1.2116  0.0946
  100SAPS  C31210119   0.855   3.740   7.913  0.6403  0.4318 -0.5391
  100SAPS  H12X10120   0.868   3.673   8.001 -2.2843 -2.2188 -1.9157
  100SAPS  H12Y10121   0.833   3.680   7.822  0.7164  0.0098 -0.2787
  100SAPS  C31310122   0.728   3.823   7.947 -0.4985 -0.3728  0.5999
  100SAPS  H13X10123   0.711   3.892   7.862 -1.0304 -1.0349  0.1600
  100SAPS  H13Y10124   0.757   3.887   8.033  1.0479  0.2280 -0.3296
  100SAPS  C31410125   0.601   3.748   7.983  0.2669 -0.5118 -0.3970
  100SAPS  H14X10126   0.566   3.701   7.889 -2.5153  2.7936 -1.2303
  100SAPS  H14Y10127   0.526   3.825   8.010  0.0383 -1.5377  2.1412
  100SAPS  C31510128   0.608   3.642   8.089  0.6520  0.3144 -0.5858
  100SAPS  H15X10129   0.691   3.572   8.065  0.5668  0.2089 -0.5734
  100SAPS  H15Y10130   0.510   3.590   8.076 -0.4175  2.1212 -0.1515
  100SAPS  C31610131   0.612   3.698   8.236  0.2307 -0.0560 -0.3253
  100SAPS  H16X10132   0.513   3.744   8.255  0.2711 -0.3035  0.5176
  100SAPS  H16Y10133   0.682   3.783   8.250  0.7803 -0.1602 -2.1487
  100SAPS  C31710134   0.621   3.586   8.341 -0.5662  0.6240  0.4309
  100SAPS  H17X10135   0.530   3.523   8.325 -1.4308  1.8765  0.2707
  100SAPS  H17Y10136   0.618   3.633   8.441 -1.1295  0.0754  0.6816
  100SAPS  C31810137   0.741   3.499   8.321 -0.4636 -0.2438  0.1196
  100SAPS  H18X10138   0.764   3.427   8.402  1.3684  1.4641  1.2379
  100SAPS  H18Y10139   0.833   3.555   8.292  0.9033 -2.5840 -0.3140
  100SAPS  H18Z10140   0.718   3.440   8.230 -0.8364 -3.8914  2.3821
  101OSM      N10141   1.674   5.908  10.791 -0.0147  0.4153  0.5490
  101OSM    C1510142   1.697   6.015  10.899  0.0172 -0.4913 -0.9688
  101OSM   H15A10143   1.729   5.966  10.990 -3.5819  0.2167  0.8889
  101OSM   H15B10144   1.606   6.066  10.927 -0.1992 -1.0001 -0.7305
  101OSM   H15C10145   1.771   6.088  10.868 -1.3260  1.2198 -0.2899
  101OSM    C1410146   1.583   5.802  10.850 -0.6907  0.1950  0.0583
  101OSM   H14A10147   1.633   5.771  10.940 -2.2802  0.2185  0.9939
  101OSM   H14B10148   1.571   5.716  10.786 -0.4044 -0.4374  0.8334
  101OSM   H14C10149   1.484   5.844  10.864 -0.6645  0.6600 -1.0430
  101OSM    C1310150   1.620   5.970  10.665 -0.4483 -0.2375 -0.3607
  101OSM   H13A10151   1.693   6.039  10.625  0.4521 -0.5942  0.6190
  101OSM   H13B10152   1.524   6.019  10.677  0.3402  0.7668  3.2301
  101OSM   H13C10153   1.616   5.889  10.594 -0.7095  0.7442 -1.5067
  101OSM    C1210154   1.811   5.841  10.755 -0.5678 -0.6729 -0.2662
  101OSM   H12A10155   1.844   5.805  10.851 -0.8855 -1.8586 -0.5893
  101OSM   H12B10156   1.884   5.917  10.732 -0.5790 -0.0334  1.6967
  101OSM    C1110157   1.809   5.737  10.641  0.2052  0.1870 -0.2360
  101OSM   H11A10158   1.913   5.698  10.635 -0.7241 -2.2331 -2.5005
  101OSM   H11B10159   1.791   5.794  10.547  0.1003 -0.7596 -0.8115
  101OSM      P10160   1.754   5.488  10.716  0.0371  0.2387  0.1948
  101OSM    O1310161   1.806   5.502  10.857 -0.0839 -0.3504 -0.0490
  101OSM    O1410162   1.633   5.406  10.692  0.3908  0.1994 -0.3958
  101OSM    O1110163   1.871   5.441  10.629  0.1188  0.0638 -0.2635
  101OSM    O1210164   1.724   5.629  10.656 -0.2091 -0.3485  0.3337
  101OSM    C1S10165   1.857   5.403  10.491 -0.2841  0.2449  0.2504
  101OSM    H1S10166   1.752   5.402  10.456 -0.1301 -0.6504 -0.2318
  101OSM    H1T10167   1.901   5.301  10.478  1.5702  1.0546 -0.2822
  101OSM     NF10168   1.899   5.477  10.253  0.8122 -0.2399 -0.3813
  101OSM    HNF10169   1.960   5.425  10.193 -0.7948 -0.0124 -2.3056
  101OSM    C2S10170   1.941   5.494  10.392 -0.0025 -0.4426 -0.1001
  101OSM    H2S10171   1.925   5.599  10.426  2.0457 -0.2137  0.2547
  101OSM    C3S10172   2.088   5.476  10.420  0.0378  0.0087 -0.0524
  101OSM    H3S10173   2.111   5.368  10.414 -0.7723 -0.1721 -0.0411
  101OSM     O310174   2.129   5.526  10.550 -0.8031  0.4770 -0.1480
  101OSM    HO310175   2.047   5.529  10.601 -0.2261  0.0712  0.8253
  101OSM    C4S10176   2.159   5.547  10.306  0.0664  0.2998 -0.2367
  101OSM    H4S10177   2.160   5.487  10.214  0.7949 -0.1480  0.0509
  101OSM    C5S10178   2.221   5.664  10.294  0.1918 -0.1008  0.2740
  101OSM    H5S10179   2.226   5.735  10.378  0.8230  1.8720 -1.3517
  101OSM    C6S10180   2.275   5.732  10.178 -0.0531  1.3739  0.9205
  101OSM    H6S10181   2.386   5.727  10.191  0.0115 -3.0533  0.0611
  101OSM    H6T10182   2.243   5.838  10.172 -0.7333  1.3743  3.4968
  101OSM    C7S10183   2.263   5.663  10.040 -0.1987 -0.4451  0.4314
  101OSM    H7S10184   2.291   5.556  10.054  1.1712 -0.0901  0.5800
  101OSM    H7T10185   2.345   5.705   9.978  0.6363 -0.9966  1.1281
  101OSM    C8S10186   2.133   5.676   9.965 -0.4061 -0.0214  0.4413
  101OSM    H8S10187   2.120   5.783   9.939 -1.1377  0.0539  1.0676
  101OSM    H8T10188   2.044   5.656  10.028 -1.8206  1.8971 -0.8361
  101OSM    C9S10189   2.139   5.590   9.835  0.5526 -0.0827 -0.1297
  101OSM    H9S10190   2.162   5.483   9.854 -0.4758  0.1501  2.9129
  101OSM    H9T10191   2.226   5.638   9.786  0.3637  1.0588  0.6214
  101OSM   C10S10192   2.018   5.609   9.743 -0.2098  0.0274  0.1706
  101OSM   H10S10193   1.985   5.714   9.736  1.7098  0.6419 -0.4001
  101OSM   H10T10194   1.929   5.551   9.776 -0.1245  0.4398  1.1702
  101OSM   C11S10195   2.042   5.570   9.596 -0.2863 -0.0028 -0.0702
  101OSM   H11S10196   2.095   5.473   9.586 -0.0496  0.1968 -0.8754
  101OSM   H11T10197   2.126   5.633   9.557  0.4787 -1.3731 -0.7226
  101OSM   C12S10198   1.918   5.583   9.509 -0.4801  0.0993  0.1194
  101OSM   H12S10199   1.871   5.684   9.512 -0.3023  0.1868 -0.0121
  101OSM   H12T10200   1.833   5.515   9.534 -1.3940  0.7053 -1.2097
  101OSM   C13S10201   1.946   5.560   9.368  0.3151  1.0989  0.6535
  101OSM   H13S10202   1.977   5.454   9.352 -0.2370  0.6490  2.3329
  101OSM   H13T10203   2.026   5.629   9.335  0.7276 -1.0362 -3.4364
  101OSM   C14S10204   1.808   5.584   9.287 -0.7480 -0.2205  0.1959
  101OSM   H14S10205   1.769   5.686   9.310  0.0641  0.7240 -2.2446
  101OSM   H14T10206   1.741   5.507   9.330 -0.2239  0.4704  2.3628
  101OSM   C15S10207   1.830   5.573   9.136 -0.0107 -0.1106  0.3823
  101OSM   H15S10208   1.860   5.471   9.105 -1.1172 -0.6908  1.1546
  101OSM   H15T10209   1.913   5.633   9.093 -0.4997  0.2865 -0.0186
  101OSM   C16S10210   1.706   5.614   9.057 -0.2315  0.1821 -0.3678
  101OSM   H16S10211   1.745   5.651   8.959  1.1102  1.2034  0.5158
  101OSM   H16T10212   1.649   5.696   9.105 -1.8171 -1.4666  0.6737
  101OSM   C17S10213   1.598   5.505   9.006 -0.7456  0.7169 -0.4886
  101OSM   H17S10214   1.570   5.449   9.098 -1.6247  0.6624 -0.7858
  101OSM   H17T10215   1.662   5.437   8.946  1.7262  0.8029  1.8615
  101OSM   C18S10216   1.475   5.553   8.935  0.1929 -0.2627  0.0535
  101OSM   H18S10217   1.411   5.617   9.000 -1.5633 -0.9425 -0.9254
  101OSM   H18T10218   1.404   5.470   8.913  1.0261 -0.7252 -1.0150
  101OSM   H18U10219   1.484   5.605   8.837 -1.4242  1.6858  0.8485
  101OSM    C1F10220   1.782   5.512  10.196  0.0507 -1.1517 -0.2074
  101OSM     OF10221   1.701   5.595  10.246  0.1151 -0.3995 -0.2636
  101OSM    C2F10222   1.764   5.453  10.059  0.2486  0.3553  0.8803
  101OSM    H2F10223   1.765   5.342  10.058  1.9085  0.3293  1.0249
  101OSM    H2G10224   1.859   5.481  10.008 -0.8155  1.2935 -0.6597
  101OSM    C3F10225   1.639   5.502   9.983 -0.1983  0.0258 -0.6902
  101OSM    H3F10226   1.658   5.611   9.974 -1.7229  0.4032  0.2120
  101OSM    H3G10227   1.541   5.482  10.032 -0.4684 -2.7253 -2.1401
  101OSM    C4F10228   1.634   5.443   9.841  0.5798  0.1316  0.2870
  101OSM    H4F10229   1.611   5.335   9.847 -1.3858  0.3572 -1.7615
  101OSM    H4G10230   1.727   5.454   9.780  0.0841 -1.6555 -0.8594
  101OSM    C5F10231   1.526   5.510   9.761 -0.0301  0.1507 -0.0609
  101OSM    H5F10232   1.546   5.618   9.748  0.3009  0.0057 -0.8389
  101OSM    H5G10233   1.428   5.494   9.810  0.1203 -0.8518 -0.0534
  101OSM    C6F10234   1.510   5.447   9.625 -0.1469  0.3714 -0.5102
  101OSM    H6F10235   1.498   5.336   9.623  2.8197 -0.0353 -0.2017
  101OSM    H6G10236   1.611   5.453   9.578  0.9247 -1.2743  1.4569
  101OSM    C7F10237   1.408   5.514   9.534 -0.5085  0.2092  0.7806
  101OSM    H7F10238   1.456   5.613   9.519  0.9013 -0.1320  2.5685
  101OSM    H7G10239   1.302   5.531   9.563 -0.8185  1.0033 -0.6995
  101OSM    C8F10240   1.407   5.451   9.392 -0.1172  0.2561 -0.3513
  101OSM    H8F10241   1.377   5.346   9.371  0.7473  0.2340 -1.5568
  101OSM    H8G10242   1.510   5.457   9.352 -0.1198 -1.8890 -0.8079
  101OSM    C9F10243   1.336   5.529   9.289  0.3592  0.0676  0.8151
  101OSM    H9F10244   1.378   5.629   9.270 -0.6272  0.5256  0.9975
  101OSM   C10F10245   1.232   5.493   9.213 -0.2404  1.1666 -0.5726
  101OSM   H10F10246   1.197   5.568   9.141  1.1354  1.7341 -0.6977
  101OSM   C11F10247   1.158   5.365   9.228  0.4327  0.2991 -0.1484
  101OSM   H11F10248   1.078   5.352   9.304  0.2974 -1.9149 -0.6090
  101OSM   H11G10249   1.228   5.280   9.245 -0.4507 -0.1124  1.6051
  101OSM   C12F10250   1.085   5.325   9.097 -0.0952 -0.0037  0.0981
  101OSM   H12F10251   1.046   5.223   9.114  2.6974 -1.1257  0.3048
  101OSM   H12G10252   1.152   5.314   9.009 -1.5250 -0.2111 -0.9818
  101OSM   C13F10253   0.972   5.431   9.056 -0.4442  0.0154 -0.5811
  101OSM   H13F10254   1.029   5.522   9.027  2.7533 -2.1317 -1.6297
  101OSM   H13G10255   0.909   5.448   9.146 -1.4302 -2.2016 -0.7754
  101OSM   C14F10256   0.885   5.375   8.940  0.1494  0.6834 -0.7190
  101OSM   H14F10257   0.869   5.269   8.968 -0.7095  1.2675  1.1412
  101OSM   H14G10258   0.931   5.384   8.839  0.4644 -0.5437 -0.6912
  101OSM   C15F10259   0.753   5.449   8.925  0.5163  0.3711  0.4244
  101OSM   H15F10260   0.772   5.552   8.888 -3.0355  1.1985  0.5559
  101OSM   H15G10261   0.712   5.457   9.028 -1.1627 -0.8697 -0.0939
  101OSM   C16F10262   0.653   5.384   8.830  0.6913  0.6206 -0.4742
  101OSM   H16F10263   0.629   5.276   8.841 -1.5857  0.7731 -2.9218
  101OSM   H16G10264   0.693   5.382   8.727  0.8625  0.2232 -0.4009
  101OSM   C17F10265   0.521   5.462   8.831 -1.2967 -0.4870 -0.2261
  101OSM   H17F10266   0.547   5.558   8.782 -2.1584 -0.5955 -0.9243
  101OSM   H17G10267   0.488   5.476   8.936  2.8923 -1.7485  1.4826
  101OSM   C18F10268   0.408   5.404   8.748 -0.4730  0.5022 -0.7076
  101OSM   H18F10269   0.396   5.300   8.785  1.4546  0.2378 -0.7516
  101OSM   H18G10270   0.439   5.397   8.642 -2.5564  0.1063 -1.3424
  101OSM   H18H10271   0.317   5.467   8.763 -1.0814 -0.4320 -0.3927
  102OSM      N10272   1.127   5.746  10.463 -0.3822  0.0498  0.8812
  102OSM    C1510273   1.048   5.828  10.371  0.6844 -0.4182 -0.4572
  102OSM   H15A10274   1.089   5.826  10.270 -0.7090  1.9864 -1.1618
  102OSM   H15B10275   1.036   5.932  10.398  1.1833 -1.0100  2.2752
  102OSM   H15C10276   0.950   5.783  10.367  1.4087 -2.3994  1.8711
  102OSM    C1410277   1.269   5.807  10.456 -0.4054  0.2903  0.2277
  102OSM   H14A10278   1.308   5.811  10.356  1.4897 -0.8302  0.8758
  102OSM   H14B10279   1.344   5.744  10.502  0.6634 -0.2397 -2.0688
  102OSM   H14C10280   1.279   5.900  10.509 -1.7773  0.5760  0.0275
  102OSM    C1310281   1.079   5.747  10.601  0.0216  0.4448 -0.6862
  102OSM   H13A10282   0.995   5.680  10.608  0.0842  0.1123 -2.5058
  102OSM   H13B10283   1.057   5.848  10.631  1.6824  0.6730 -0.1366
  102OSM   H13C10284   1.157   5.708  10.665  0.5254  0.7592 -1.0892
  102OSM    C1210285   1.135   5.604  10.406  0.8326  0.3126 -0.4550
  102OSM   H12A10286   1.180   5.539  10.480  0.0963  1.7194  1.2881
  102OSM   H12B10287   1.204   5.601  10.322  0.4050 -0.4250 -0.7872
  102OSM    C1110288   1.003   5.555  10.358  0.1552 -0.5505  0.1844
  102OSM   H11A10289   1.022   5.460  10.303 -0.6831 -0.8829  0.4447
  102OSM   H11B10290   0.952   5.612  10.278  0.5664 -0.6056 -0.1197
  102OSM      P10291   0.926   5.421  10.573  0.1403 -0.2451 -0.0695
  102OSM    O1310292   1.065   5.359  10.574 -0.0344  0.2640  0.5480
  102OSM    O1410293   0.877   5.476  10.705  0.3197 -0.5222  0.0158
  102OSM    O1110294   0.821   5.312  10.543  0.4142 -0.0204  0.0763
  102OSM    O1210295   0.906   5.531  10.461 -0.4231  0.4877 -0.4145
  102OSM    C1S10296   0.705   5.336  10.470  0.3013 -0.2189 -0.4593
  102OSM    H1S10297   0.672   5.441  10.484  0.3971 -0.4592  2.0330
  102OSM    H1T10298   0.624   5.270  10.507  1.3509 -0.6065  1.2619
  102OSM     NF10299   0.578   5.360  10.254  0.6206 -0.4839 -0.6512
  102OSM    HNF10300   0.505   5.292  10.250  1.0787 -0.9330 -1.9482
  102OSM    C2S10301   0.711   5.317  10.311  0.8386  0.2472 -0.0393
  102OSM    H2S10302   0.792   5.380  10.270 -0.8687  1.4056 -1.8052
  102OSM    C3S10303   0.756   5.170  10.279  0.0245 -0.5569  0.4855
  102OSM    H3S10304   0.686   5.102  10.331 -0.1938 -0.1344  0.7477
  102OSM     O310305   0.889   5.139  10.321 -0.1157 -0.0383  0.2038
  102OSM    HO310306   0.905   5.219  10.371 -2.7532  0.9339 -0.3616
  102OSM    C4S10307   0.756   5.152  10.126  0.0132 -0.4482  0.8360
  102OSM    H4S10308   0.830   5.219  10.078 -1.4296  1.0168  0.5777
  102OSM    C5S10309   0.667   5.086  10.044 -0.4616 -0.3774 -0.2707
  102OSM    H5S10310   0.586   5.027  10.091 -1.2312  2.1366  1.7850
  102OSM    C6S10311   0.681   5.080   9.894 -0.5535 -0.5245 -0.7816
  102OSM    H6S10312   0.771   5.141   9.869  0.7760 -1.0661  2.1407
  102OSM    H6T10313   0.596   5.118   9.834  0.4103  2.4725 -0.4149
  102OSM    C7S10314   0.709   4.934   9.858  0.4241  0.8481 -0.6011
  102OSM    H7S10315   0.626   4.867   9.888 -1.0259  2.7006 -0.3182
  102OSM    H7T10316   0.798   4.889   9.907  0.7310  2.2186  0.1536
  102OSM    C8S10317   0.720   4.911   9.708  0.1448  0.4713  0.4182
  102OSM    H8S10318   0.806   4.979   9.689 -0.2349  1.3590  1.7632
  102OSM    H8T10319   0.630   4.956   9.660  0.1021  1.0515  1.0308
  102OSM    C9S10320   0.745   4.767   9.658  0.3910  0.2129 -0.0522
  102OSM    H9S10321   0.658   4.702   9.683 -0.2545  0.6018 -1.2165
  102OSM    H9T10322   0.824   4.707   9.709 -0.2752 -0.7470 -0.1026
  102OSM   C10S10323   0.758   4.752   9.505 -0.0071 -0.0837  0.1326
  102OSM   H10S10324   0.740   4.644   9.482  1.3978 -0.3001 -0.0726
  102OSM   H10T10325   0.863   4.769   9.471  0.6333 -0.3794  1.8643
  102OSM   C11S10326   0.656   4.832   9.420  0.7766 -1.1470 -0.3596
  102OSM   H11S10327   0.676   4.941   9.434  1.0586 -0.8309 -2.7588
  102OSM   H11T10328   0.551   4.815   9.452  0.5646 -1.3304 -1.1318
  102OSM   C12S10329   0.673   4.809   9.266  0.2460  0.0817  0.1632
  102OSM   H12S10330   0.651   4.703   9.238  2.0012  0.1473 -1.7889
  102OSM   H12T10331   0.781   4.825   9.244 -0.1976  2.9248 -0.2794
  102OSM   C13S10332   0.584   4.901   9.178  0.4572 -0.1651 -0.1044
  102OSM   H13S10333   0.605   5.008   9.200  3.2148 -0.6623  0.0360
  102OSM   H13T10334   0.479   4.889   9.212  0.5324 -0.1779  0.1301
  102OSM   C14S10335   0.605   4.878   9.025 -0.5760  0.5615 -0.1346
  102OSM   H14S10336   0.618   4.767   9.019  0.8717  0.6969  0.1594
  102OSM   H14T10337   0.695   4.930   8.987  0.0393 -0.6345 -0.3651
  102OSM   C15S10338   0.485   4.917   8.938 -0.0356 -0.4372  0.2538
  102OSM   H15S10339   0.449   5.020   8.958  1.8757  0.1995  0.5772
  102OSM   H15T10340   0.405   4.843   8.959 -1.7438  1.4707  0.7438
  102OSM   C16S10341   0.520   4.893   8.788  0.1507  0.0837  0.7593
  102OSM   H16S10342   0.575   4.797   8.773 -0.4951  0.1553 -2.9444
  102OSM   H16T10343   0.596   4.966   8.753  0.0677 -0.0124  0.3704
  102OSM   C17S10344   0.401   4.899   8.695  0.3110 -0.4725  0.4858
  102OSM   H17S10345   0.347   4.991   8.725  1.3517  0.1126  0.5929
  102OSM   H17T10346   0.331   4.819   8.729 -1.5694  1.0226  0.3030
  102OSM   C18S10347   0.432   4.882   8.547 -0.6609  0.0744 -0.2039
  102OSM   H18S10348   0.345   4.900   8.480 -2.0848  0.8730  1.7518
  102OSM   H18T10349   0.495   4.791   8.542  1.5787  1.5523 -0.4078
  102OSM   H18U10350   0.501   4.959   8.506 -0.5945 -1.0217 -2.2978
  102OSM    C1F10351   0.550   5.492  10.246  0.3632 -0.1546  0.0475
  102OSM     OF10352   0.634   5.582  10.258 -0.3764 -0.5719 -0.4209
  102OSM    C2F10353   0.408   5.526  10.246  0.0499 -0.1576  0.3315
  102OSM    H2F10354   0.386   5.575  10.343  1.0521  1.4300 -0.2082
  102OSM    H2G10355   0.343   5.440  10.219  0.6139 -0.4329 -0.2004
  102OSM    C3F10356   0.373   5.638  10.143  0.1498  0.8166  0.6201
  102OSM    H3F10357   0.450   5.718  10.147  0.2437  0.8145 -0.6882
  102OSM    H3G10358   0.280   5.683  10.186 -0.3693  0.9059 -0.5698
  102OSM    C4F10359   0.329   5.589  10.000  0.2943 -0.3292 -0.3119
  102OSM    H4F10360   0.250   5.515  10.025 -0.0730 -0.2535 -1.2047
  102OSM    H4G10361   0.413   5.541   9.946  0.3308  0.4182 -0.9472
  102OSM    C5F10362   0.269   5.696   9.905 -0.5244  0.3291 -0.3763
  102OSM    H5F10363   0.349   5.773   9.907 -0.1501 -0.0519 -0.3579
  102OSM    H5G10364   0.174   5.728   9.951 -0.7750 -1.6734  0.6088
  102OSM    C6F10365   0.253   5.628   9.772 -0.7207 -0.4758  0.2110
  102OSM    H6F10366   0.199   5.531   9.781  1.5538 -1.7969  0.4807
  102OSM    H6G10367   0.344   5.599   9.716 -2.1599 -3.4208 -0.7974
  102OSM    C7F10368   0.178   5.721   9.670 -0.4040  0.4024 -0.3331
  102OSM    H7F10369   0.227   5.821   9.668  1.4189 -0.4568 -1.1797
  102OSM    H7G10370   0.075   5.732   9.710 -1.3669 -1.4242 -2.0738
  102OSM    C8F10371   0.174   5.671   9.524 -0.3558 -0.3257 -0.5156
  102OSM    H8F10372   0.159   5.561   9.525 -0.1844 -0.4098 -2.7150
  102OSM    H8G10373   0.270   5.699   9.475 -0.1263  2.5781  1.3895
  102OSM    C9F10374   0.060   5.724   9.447  0.3840 -0.4212  0.0025
  102OSM    H9F10375  -0.017   5.771   9.510  1.7262  0.6754  0.9180
  102OSM   C10F10376   0.024   5.706   9.324  0.0653  0.6102  0.0435
  102OSM   H10F10377  -0.076   5.735   9.286 -0.0344  0.0543 -0.1238
  102OSM   C11F10378   0.107   5.631   9.220  0.4783  0.5147  0.3795
  102OSM   H11F10379   0.180   5.565   9.272  0.1465  0.1101  0.3415
  102OSM   H11G10380   0.172   5.702   9.166  1.0269  1.0700  1.7309
  102OSM   C12F10381   0.014   5.543   9.127  0.0222  0.0322  0.4694
  102OSM   H12F10382  -0.010   5.450   9.181 -0.1318 -0.5194 -0.5276
  102OSM   H12G10383   0.077   5.495   9.048  3.1055  0.7244  2.3340
  102OSM   C13F10384  -0.105   5.621   9.068  0.4382 -0.3418  0.2918
  102OSM   H13F10385  -0.082   5.717   9.018 -1.1702  0.6386  1.3305
  102OSM   H13G10386  -0.173   5.640   9.154 -0.4167 -0.7541 -0.2808
  102OSM   C14F10387  -0.193   5.531   8.971 -0.5364 -0.2335  0.8378
  102OSM   H14F10388  -0.221   5.434   9.019  0.0816 -0.6358  0.4023
  102OSM   H14G10389  -0.131   5.515   8.880  0.3846  1.0440  1.2155
  102OSM   C15F10390  -0.331   5.601   8.933 -0.1644 -0.8833 -0.1549
  102OSM   H15F10391  -0.300   5.686   8.869 -0.2801  1.1642  2.3702
  102OSM   H15G10392  -0.375   5.635   9.029 -2.7613  0.8344 -1.8189
  102OSM   C16F10393  -0.415   5.500   8.859 -0.0328 -0.3491  0.5867
  102OSM   H16F10394  -0.384   5.405   8.908  0.5472 -0.3018  0.3180
  102OSM   H16G10395  -0.395   5.493   8.750 -0.6165  2.0830  0.2669
  102OSM   C17F10396  -0.569   5.523   8.888  0.4986  0.7608 -0.4223
  102OSM   H17F10397  -0.601   5.597   8.812  0.1856  0.4836 -0.5613
  102OSM   H17G10398  -0.589   5.567   8.988 -2.6043 -0.0932 -0.5896
  102OSM   C18F10399  -0.654   5.397   8.894  0.2403 -0.1810 -1.2808
  102OSM   H18F10400  -0.649   5.326   8.809  0.8705 -2.9015  0.8663
  102OSM   H18G10401  -0.755   5.436   8.916  1.8675  3.2578  0.9454
  102OSM   H18H10402  -0.620   5.342   8.985 -2.3311 -0.5313 -0.4656
  103OSM      N10403   2.649   1.747  11.137  0.6275 -0.2386 -0.6147
  103OSM    C1510404   2.741   1.641  11.185  0.3050 -0.5486  0.5740
  103OSM   H15A10405   2.844   1.675  11.177  0.1889 -0.4010 -0.4002
  103OSM   H15B10406   2.728   1.557  11.119  0.0315  0.7254 -1.0733
  103OSM   H15C10407   2.723   1.616  11.288  0.2257 -0.3783  0.6015
  103OSM    C1410408   2.513   1.708  11.174 -0.5967 -0.1724 -0.9198
  103OSM   H14A10409   2.504   1.694  11.281 -0.2984  0.3465 -0.8287
  103OSM   H14B10410   2.486   1.623  11.113 -2.5047 -0.2672 -0.0430
  103OSM   H14C10411   2.439   1.785  11.157  0.3949  0.9606 -0.2071
  103OSM    C1310412   2.680   1.878  11.217 -0.3175 -0.5025 -0.3340
  103OSM   H13A10413   2.655   1.865  11.321  0.6732 -0.2439 -0.0518
  103OSM   H13B10414   2.613   1.953  11.178  0.0450 -0.0129 -0.0258
  103OSM   H13C10415   2.785   1.904  11.212 -0.3193 -0.2208  0.9805
  103OSM    C1210416   2.663   1.780  10.991 -0.3457  0.0218 -0.6535
  103OSM   H12A10417   2.753   1.835  10.971  0.0134 -0.7215 -1.1055
  103OSM   H12B10418   2.593   1.856  10.960 -0.6343  0.1587  0.2981
  103OSM    C1110419   2.661   1.660  10.892  0.5536 -0.0029  0.2126
  103OSM   H11A10420   2.745   1.591  10.915 -2.5686 -3.3784  2.6313
  103OSM   H11B10421   2.680   1.709  10.794 -0.5859  1.8282  0.8456
  103OSM      P10422   2.409   1.642  10.845  0.2407  0.2635  0.3990
  103OSM    O1310423   2.304   1.569  10.916  0.1361 -0.1844  0.3349
  103OSM    O1410424   2.411   1.790  10.842  0.0678  0.3534  0.9534
  103OSM    O1110425   2.428   1.587  10.702  0.2143 -0.6463  0.1498
  103OSM    O1210426   2.543   1.582  10.896 -0.2988 -0.0716  0.5589
  103OSM    C1S10427   2.358   1.475  10.654  0.4616  0.5007  0.5931
  103OSM    H1S10428   2.251   1.504  10.644  0.2519 -0.8192 -1.5419
  103OSM    H1T10429   2.373   1.396  10.730  1.2089  0.8881  0.8533
  103OSM     NF10430   2.317   1.305  10.484 -0.5455 -0.8287  0.0855
  103OSM    HNF10431   2.366   1.218  10.474 -0.4871 -0.8952  0.8807
  103OSM    C2S10432   2.402   1.419  10.513  0.0112 -0.1893 -0.3560
  103OSM    H2S10433   2.394   1.500  10.438  0.0977 -0.0033 -0.1658
  103OSM    C3S10434   2.553   1.393  10.504 -0.0451  0.0402  0.0377
  103OSM    H3S10435   2.582   1.315  10.578  2.9475  1.1586  0.1618
  103OSM     O310436   2.621   1.511  10.533  0.3165 -0.8067 -0.5764
  103OSM    HO310437   2.551   1.559  10.578 -0.5536 -0.6283 -2.0445
  103OSM    C4S10438   2.604   1.350  10.371 -0.1179  0.1809 -0.2331
  103OSM    H4S10439   2.578   1.415  10.286  0.6436  0.0155 -0.6020
  103OSM    C5S10440   2.685   1.249  10.353 -0.3263 -0.3320 -0.2866
  103OSM    H5S10441   2.716   1.198  10.446 -1.3959 -0.2029  0.1582
  103OSM    C6S10442   2.738   1.191  10.228 -0.7787 -0.0115  0.5852
  103OSM    H6S10443   2.702   1.086  10.234 -0.8147  0.0892  2.5933
  103OSM    H6T10444   2.849   1.185  10.225 -0.4829  3.4527 -1.4168
  103OSM    C7S10445   2.694   1.253  10.092 -0.3234 -0.4646  0.0870
  103OSM    H7S10446   2.725   1.360  10.087 -1.4787 -0.1023  0.2445
  103OSM    H7T10447   2.583   1.260  10.090 -0.5826 -3.2347  1.2995
  103OSM    C8S10448   2.732   1.166   9.977 -0.7423 -0.5017 -0.3138
  103OSM    H8S10449   2.686   1.065   9.981 -0.0836 -0.8346 -0.9299
  103OSM    H8T10450   2.843   1.161   9.970 -0.4559  1.8432  1.2404
  103OSM    C9S10451   2.696   1.218   9.834  0.7857 -0.8114  0.1228
  103OSM    H9S10452   2.740   1.315   9.804  2.5012 -1.6852 -0.3578
  103OSM    H9T10453   2.587   1.239   9.843  0.9311 -0.5013  1.2986
  103OSM   C10S10454   2.714   1.112   9.722  0.1226  0.0332  0.1501
  103OSM   H10S10455   2.678   1.016   9.764  0.4829  0.6083  1.8605
  103OSM   H10T10456   2.817   1.111   9.682 -0.0643  0.3213 -0.3468
  103OSM   C11S10457   2.630   1.146   9.594 -0.2956  0.6076 -0.7197
  103OSM   H11S10458   2.663   1.250   9.574 -2.0702  1.5219  0.8035
  103OSM   H11T10459   2.521   1.157   9.612  0.1525  1.8319  1.6744
  103OSM   C12S10460   2.665   1.068   9.465  0.4594  0.9194  0.2134
  103OSM   H12S10461   2.643   0.960   9.479  1.9438  0.6232  0.4476
  103OSM   H12T10462   2.775   1.070   9.452  0.3368 -0.0040 -1.2375
  103OSM   C13S10463   2.592   1.133   9.349 -0.0204  0.4453  0.7885
  103OSM   H13S10464   2.636   1.233   9.328  0.4319 -0.1168 -1.1702
  103OSM   H13T10465   2.485   1.151   9.369  0.2555  2.8026  0.4633
  103OSM   C14S10466   2.616   1.061   9.215  0.4363 -0.2482  0.7489
  103OSM   H14S10467   2.580   0.958   9.236 -1.3913 -0.0166 -0.9889
  103OSM   H14T10468   2.724   1.063   9.191  0.8163  0.0703  2.3683
  103OSM   C15S10469   2.531   1.120   9.098 -0.2567 -0.3244 -0.2983
  103OSM   H15S10470   2.427   1.134   9.134  1.0482  1.1105  3.3905
  103OSM   H15T10471   2.535   1.048   9.013 -1.7877 -0.6302 -0.1379
  103OSM   C16S10472   2.583   1.256   9.054 -0.1097  0.0001  0.3598
  103OSM   H16S10473   2.691   1.258   9.031 -0.0432  0.7944  0.7024
  103OSM   H16T10474   2.556   1.324   9.138 -0.5715 -0.5044  0.6278
  103OSM   C17S10475   2.511   1.313   8.929  0.2267 -0.0493  0.1780
  103OSM   H17S10476   2.408   1.322   8.967 -0.5758  0.5610 -1.9863
  103OSM   H17T10477   2.513   1.239   8.846  1.1434  1.4802 -1.2368
  103OSM   C18S10478   2.565   1.453   8.887  0.1293 -0.1026 -0.1919
  103OSM   H18S10479   2.558   1.532   8.964 -0.8903  0.0565 -0.4347
  103OSM   H18T10480   2.512   1.500   8.802 -0.2461 -0.4074 -0.1321
  103OSM   H18U10481   2.676   1.458   8.880  0.2162  0.1902  1.1212
  103OSM    C1F10482   2.193   1.332  10.445  0.8167 -0.0304 -0.5083
  103OSM     OF10483   2.146   1.441  10.417 -0.2153 -0.2429 -0.1548
  103OSM    C2F10484   2.096   1.216  10.438 -0.0342  0.1407 -0.3270
  103OSM    H2F10485   2.011   1.247  10.502  0.3118  1.9575 -0.6943
  103OSM    H2G10486   2.131   1.116  10.472 -0.5183 -0.3987 -1.3668
  103OSM    C3F10487   2.069   1.184  10.296  0.0332  0.4796 -0.0804
  103OSM    H3F10488   2.060   1.278  10.237 -3.4466  0.2860 -0.0944
  103OSM    H3G10489   1.974   1.127  10.293  1.1358 -1.4665  0.2164
  103OSM    C4F10490   2.160   1.079  10.220  0.3719 -0.8196 -0.2081
  103OSM    H4F10491   2.148   0.978  10.265  0.1968 -0.9447 -0.5260
  103OSM    H4G10492   2.263   1.118  10.231  0.0661 -0.1108  0.2230
  103OSM    C5F10493   2.133   1.080  10.077  0.4468 -0.3215 -0.0830
  103OSM    H5F10494   2.127   1.188  10.051  2.0721 -0.8694 -3.3031
  103OSM    H5G10495   2.029   1.050  10.053  0.5990 -1.9973  1.1817
  103OSM    C6F10496   2.233   1.012   9.984 -0.2337  0.9113  0.0323
  103OSM    H6F10497   2.228   0.903  10.000  0.5532  1.1504  2.2910
  103OSM    H6G10498   2.330   1.049  10.025 -0.1270  0.2676  0.3647
  103OSM    C7F10499   2.221   1.050   9.833  0.0413  0.2266 -0.3811
  103OSM    H7F10500   2.213   1.160   9.830 -0.7994  0.1468 -1.4523
  103OSM    H7G10501   2.125   1.017   9.788  0.6688 -0.4355 -1.2616
  103OSM    C8F10502   2.336   0.999   9.746 -1.0686  0.3897  0.2206
  103OSM    H8F10503   2.429   1.054   9.770 -0.4557 -0.1247 -0.8725
  103OSM    H8G10504   2.313   1.013   9.638  1.4201  0.6980 -0.3096
  103OSM    C9F10505   2.360   0.851   9.769 -0.2599  0.0137 -0.2651
  103OSM    H9F10506   2.411   0.825   9.863  0.9134  1.6432 -0.4031
  103OSM   C10F10507   2.306   0.750   9.698  0.3314 -0.3529  0.3779
  103OSM   H10F10508   2.338   0.646   9.716 -0.5519 -0.9003 -1.0263
  103OSM   C11F10509   2.221   0.757   9.574 -0.9530 -0.5878 -0.1174
  103OSM   H11F10510   2.186   0.862   9.560  3.6015  0.9580 -1.4884
  103OSM   H11G10511   2.134   0.689   9.588  0.1087 -2.2452 -1.2648
  103OSM   C12F10512   2.294   0.730   9.442  0.6429 -0.1624  1.1158
  103OSM   H12F10513   2.354   0.636   9.440 -1.6689 -1.7451 -1.2109
  103OSM   H12G10514   2.353   0.820   9.418  1.9652 -1.5069 -0.9964
  103OSM   C13F10515   2.188   0.724   9.325  0.8464 -0.9925 -0.4749
  103OSM   H13F10516   2.141   0.623   9.315 -1.2531 -0.1792  0.5278
  103OSM   H13G10517   2.106   0.795   9.348  2.4034  1.6958 -2.6206
  103OSM   C14F10518   2.236   0.785   9.189 -0.1438 -0.0962  0.2419
  103OSM   H14F10519   2.321   0.716   9.171 -0.8099 -1.6406  2.4894
  103OSM   H14G10520   2.274   0.888   9.206  0.0191  0.0595 -0.9736
  103OSM   C15F10521   2.135   0.767   9.073  0.0505  0.8489  0.4201
  103OSM   H15F10522   2.056   0.842   9.094  1.8394  2.8490  0.4829
  103OSM   H15G10523   2.085   0.669   9.086  1.5217 -0.3749 -2.3335
  103OSM   C16F10524   2.190   0.796   8.935 -0.2258 -0.2230 -0.0585
  103OSM   H16F10525   2.271   0.727   8.903 -0.6233 -0.1592 -1.2596
  103OSM   H16G10526   2.235   0.898   8.934  1.9215 -0.8379  4.7718
  103OSM   C17F10527   2.092   0.784   8.818 -0.2549 -0.2989  0.4442
  103OSM   H17F10528   2.009   0.857   8.825  1.1643  1.4952 -0.5474
  103OSM   H17G10529   2.048   0.682   8.826 -0.3107 -0.2803  0.3732
  103OSM   C18F10530   2.160   0.806   8.678  0.1226 -0.4171  0.0443
  103OSM   H18F10531   2.258   0.753   8.669 -0.3987 -1.6049  0.9860
  103OSM   H18G10532   2.181   0.915   8.675 -1.1883 -0.0970  1.4231
  103OSM   H18H10533   2.087   0.785   8.596  0.4675 -1.1246 -0.0909
  104OSM      N10534   6.205   0.082  11.194  0.0400 -0.6971  0.0936
  104OSM    C1510535   6.346   0.132  11.183  0.6959 -0.1260  0.3296
  104OSM   H15A10536   6.346   0.235  11.153  1.0196  0.0085  0.7803
  104OSM   H15B10537   6.391   0.073  11.105  2.0363  2.1514 -0.6979
  104OSM   H15C10538   6.397   0.129  11.278  0.7893  0.2450  0.2909
  104OSM    C1410539   6.203  -0.053  11.273  0.4158 -0.2287  0.0643
  104OSM   H14A10540   6.248  -0.131  11.213 -1.2802  0.5743 -2.4062
  104OSM   H14B10541   6.101  -0.074  11.301  1.0148 -0.1218  2.5369
  104OSM   H14C10542   6.256  -0.058  11.367 -0.0575 -1.4874  0.2822
  104OSM    C1310543   6.125   0.189  11.267  0.2843  0.2140  0.4446
  104OSM   H13A10544   6.108   0.279  11.210 -3.0502  1.5536  3.1772
  104OSM   H13B10545   6.172   0.210  11.362  1.6801  1.1267 -0.4109
  104OSM   H13C10546   6.021   0.166  11.285 -0.0059  0.1999 -1.1508
  104OSM    C1210547   6.148   0.062  11.056  0.8496 -0.1441  0.0194
  104OSM   H12A10548   6.054   0.008  11.064  1.4309 -1.2004 -0.0158
  104OSM   H12B10549   6.212  -0.006  11.001  0.0919 -0.2856 -0.7172
  104OSM    C1110550   6.143   0.192  10.959 -0.0487 -0.3993  0.7107
  104OSM   H11A10551   6.087   0.274  11.008  1.5267  0.1808  1.5832
  104OSM   H11B10552   6.087   0.150  10.872 -0.0171  0.1127  0.4442
  104OSM      P10553   6.361   0.172  10.822 -0.5637 -0.5889  0.2832
  104OSM    O1310554   6.497   0.229  10.834 -0.0580 -0.1836 -0.0951
  104OSM    O1410555   6.353   0.022  10.841 -0.3965 -0.1688 -0.2668
  104OSM    O1110556   6.297   0.218  10.681 -0.1355  0.0542 -0.3307
  104OSM    O1210557   6.269   0.244  10.924 -0.0600 -0.0732 -0.4209
  104OSM    C1S10558   6.369   0.315  10.606 -0.3835 -0.4915  1.0781
  104OSM    H1S10559   6.447   0.373  10.659 -2.8055  2.0129  2.1577
  104OSM    H1T10560   6.301   0.395  10.569  1.0174 -0.2059 -0.9810
  104OSM     NF10561   6.465   0.363  10.381  0.5311 -0.8280  0.3276
  104OSM    HNF10562   6.401   0.392  10.311  2.9703  2.8172 -0.6935
  104OSM    C2S10563   6.429   0.256  10.470 -0.8132  0.5029  0.4827
  104OSM    H2S10564   6.519   0.194  10.492 -0.8190  0.5763  0.7199
  104OSM    C3S10565   6.329   0.156  10.400  0.9251 -0.3487 -1.0038
  104OSM    H3S10566   6.235   0.208  10.374  2.1803  1.7518 -1.5705
  104OSM     O310567   6.297   0.040  10.478 -0.0996  0.1804  0.4296
  104OSM    HO310568   6.289   0.078  10.566 -0.1325 -0.0775  0.5384
  104OSM    C4S10569   6.391   0.102  10.272 -0.8078  0.0988  0.2508
  104OSM    H4S10570   6.376   0.180  10.196 -0.7331  2.5692  2.6052
  104OSM    C5S10571   6.459  -0.014  10.251 -0.1094 -0.4027  0.3464
  104OSM    H5S10572   6.476  -0.085  10.333  0.6130 -0.7488 -0.0983
  104OSM    C6S10573   6.508  -0.071  10.124  0.9600 -0.1733  0.2851
  104OSM    H6S10574   6.476  -0.177  10.115  1.0156 -0.2095  0.5043
  104OSM    H6T10575   6.619  -0.085  10.125  1.0324 -0.3134 -2.3477
  104OSM    C7S10576   6.471   0.013   9.999 -0.1932 -0.2571  0.4246
  104OSM    H7S10577   6.514   0.115   9.990  0.4285 -0.5132  0.4645
  104OSM    H7T10578   6.361   0.026   9.997 -0.5238 -2.6959  0.3554
  104OSM    C8S10579   6.509  -0.048   9.868 -0.3260  0.4238 -0.6729
  104OSM    H8S10580   6.473  -0.153   9.864  1.5213 -0.2996  0.4542
  104OSM    H8T10581   6.619  -0.049   9.856 -0.2879  0.5261 -0.3329
  104OSM    C9S10582   6.435   0.021   9.752  0.0436 -0.0562 -1.3018
  104OSM    H9S10583   6.475   0.124   9.738  0.0230  0.6869  2.8957
  104OSM    H9T10584   6.331   0.032   9.787  0.8870  4.4629  0.5377
  104OSM   C10S10585   6.441  -0.068   9.620 -0.0350 -0.7949 -0.2037
  104OSM   H10S10586   6.386  -0.164   9.634 -2.8190  0.9000  1.4977
  104OSM   H10T10587   6.548  -0.086   9.597 -0.0452  1.0243 -1.8329
  104OSM   C11S10588   6.349  -0.014   9.509 -0.1160 -0.8056 -0.0260
  104OSM   H11S10589   6.386   0.087   9.484  0.7812 -1.4369 -1.3622
  104OSM   H11T10590   6.249   0.008   9.552  0.5629  0.7189  0.8554
  104OSM   C12S10591   6.351  -0.080   9.371  0.3381  0.0871  0.0648
  104OSM   H12S10592   6.301  -0.179   9.372  2.0302 -0.7960  0.2213
  104OSM   H12T10593   6.451  -0.104   9.331 -0.9266 -1.5614 -2.3468
  104OSM   C13S10594   6.283  -0.001   9.261  0.4669  0.0821 -0.5263
  104OSM   H13S10595   6.309   0.107   9.269 -2.1256  0.7105  0.7972
  104OSM   H13T10596   6.174  -0.002   9.281  0.5749  1.3098  0.2717
  104OSM   C14S10597   6.308  -0.052   9.119 -0.0647  0.1059 -0.1333
  104OSM   H14S10598   6.291  -0.162   9.126 -1.0972  0.2735  0.1275
  104OSM   H14T10599   6.414  -0.043   9.089  0.0822  1.6828  0.7644
  104OSM   C15S10600   6.213  -0.005   9.004  0.5987 -0.0109 -0.1023
  104OSM   H15S10601   6.185   0.102   9.018 -1.0683 -0.2569 -1.1999
  104OSM   H15T10602   6.111  -0.049   9.005 -0.7319  2.7309 -2.0000
  104OSM   C16S10603   6.261  -0.020   8.869 -0.8024  0.0962  0.3882
  104OSM   H16S10604   6.369   0.007   8.873 -1.3467  2.3207  1.0557
  104OSM   H16T10605   6.220   0.054   8.797  1.7219  0.6633 -0.5846
  104OSM   C17S10606   6.233  -0.155   8.811 -0.2842  0.2421 -0.8120
  104OSM   H17S10607   6.127  -0.182   8.796 -1.0526  2.7123 -0.2807
  104OSM   H17T10608   6.268  -0.240   8.873 -2.5904  1.6396  2.6903
  104OSM   C18S10609   6.302  -0.154   8.679  0.2727 -0.1446 -0.4371
  104OSM   H18S10610   6.376  -0.073   8.668  1.3576 -0.9189  0.8360
  104OSM   H18T10611   6.230  -0.144   8.595  0.3306  1.5055 -0.3233
  104OSM   H18U10612   6.359  -0.244   8.647 -0.0357  0.0641 -1.6311
  104OSM    C1F10613   6.577   0.432  10.397  0.0625 -0.2534 -0.1762
  104OSM     OF10614   6.653   0.415  10.492  0.2742  0.4715  0.6345
  104OSM    C2F10615   6.594   0.535  10.292  0.3467  0.0168 -0.2712
  104OSM    H2F10616   6.521   0.614  10.316  0.8042 -0.1961  2.1803
  104OSM    H2G10617   6.559   0.497  10.194  0.0582  0.5490 -0.3752
  104OSM    C3F10618   6.735   0.600  10.284 -0.3797  0.2190 -0.3962
  104OSM    H3F10619   6.804   0.519  10.253 -0.3709  0.6256 -1.4664
  104OSM    H3G10620   6.762   0.629  10.388  0.6179  0.6567 -0.7741
  104OSM    C4F10621   6.755   0.710  10.182  0.1281 -0.9843 -0.7598
  104OSM    H4F10622   6.843   0.774  10.203 -0.2680  0.0093 -2.0118
  104OSM    H4G10623   6.669   0.778  10.200  1.3514  0.5407 -0.4269
  104OSM    C5F10624   6.758   0.661  10.036  0.0148  0.2444 -0.3880
  104OSM    H5F10625   6.709   0.561  10.033 -3.0170  1.5932 -0.5267
  104OSM    H5G10626   6.858   0.654   9.988  0.1376 -0.7185 -0.0202
  104OSM    C6F10627   6.666   0.749   9.948  0.2606  0.2428 -0.0268
  104OSM    H6F10628   6.699   0.855   9.952 -0.7272  0.5767 -0.4722
  104OSM    H6G10629   6.560   0.737   9.977 -0.5428  3.7349 -1.0194
  104OSM    C7F10630   6.688   0.699   9.804  0.0386 -0.1986 -0.1479
  104OSM    H7F10631   6.660   0.592   9.792 -1.6607  0.3627 -1.8348
  104OSM    H7G10632   6.796   0.706   9.780  0.3282  2.0892  1.4884
  104OSM    C8F10633   6.598   0.780   9.702  0.6055  0.1799 -1.0017
  104OSM    H8F10634   6.493   0.785   9.736  0.9372 -1.0262  0.2905
  104OSM    H8G10635   6.586   0.738   9.600 -0.7387  0.2913 -0.9051
  104OSM    C9F10636   6.664   0.916   9.690  0.1183  0.5369 -0.4808
  104OSM    H9F10637   6.747   0.921   9.619  0.7243 -0.8133  0.0921
  104OSM   C10F10638   6.622   1.032   9.742  0.0187  0.2352  0.7829
  104OSM   H10F10639   6.678   1.125   9.724 -2.5835  1.7008 -0.1522
  104OSM   C11F10640   6.506   1.049   9.824 -0.3777 -0.1997 -0.2832
  104OSM   H11F10641   6.460   0.953   9.854  4.3692 -2.5652  0.4165
  104OSM   H11G10642   6.427   1.102   9.767  1.4141  2.9945 -0.0399
  104OSM   C12F10643   6.534   1.137   9.952  0.3861 -0.4837  0.0089
  104OSM   H12F10644   6.534   1.245   9.926 -1.0460 -0.7971 -1.4587
  104OSM   H12G10645   6.635   1.113   9.991  0.4221  0.7452  0.7274
  104OSM   C13F10646   6.438   1.106  10.063 -0.3353 -1.3880 -0.0376
  104OSM   H13F10647   6.442   0.996  10.081  1.5445 -1.5375 -1.0915
  104OSM   H13G10648   6.340   1.131  10.016  0.3462 -0.1808 -0.8608
  104OSM   C14F10649   6.463   1.201  10.188  0.5332 -0.3697  0.5770
  104OSM   H14F10650   6.378   1.189  10.258  0.3574 -0.8091  0.2911
  104OSM   H14G10651   6.460   1.310  10.166 -4.5066  0.2973  3.2551
  104OSM   C15F10652   6.596   1.184  10.260  0.1228  0.2213  0.3557
  104OSM   H15F10653   6.613   1.259  10.340  0.6608  0.9536 -0.4298
  104OSM   H15G10654   6.675   1.204  10.185  0.4333  3.6728  1.4171
  104OSM   C16F10655   6.629   1.045  10.323 -0.8594 -0.2147 -0.2597
  104OSM   H16F10656   6.712   1.066  10.393 -0.6568 -0.0264 -0.5560
  104OSM   H16G10657   6.668   0.979  10.242 -0.6462 -1.5708  0.9097
  104OSM   C17F10658   6.512   0.975  10.387  0.6692  0.5370 -0.4051
  104OSM   H17F10659   6.444   0.948  10.303  1.2199  0.7995 -0.9430
  104OSM   H17G10660   6.455   1.042  10.456 -0.4672  1.6547 -2.3218
  104OSM   C18F10661   6.545   0.850  10.470 -0.4128  0.5842  0.1710
  104OSM   H18F10662   6.616   0.784  10.415  0.0757  0.1877  1.2442
  104OSM   H18G10663   6.450   0.795  10.481 -2.3054  3.6471  0.3306
  104OSM   H18H10664   6.587   0.874  10.570 -1.1493 -3.8762  1.7840
  105OSM      N10665   6.301   6.021  10.836  0.6041 -0.2598  0.0688
  105OSM    C1510666   6.432   5.956  10.870  0.6340  0.3657  0.2994
  105OSM   H15A10667   6.436   5.938  10.977 -0.6592  1.6684  0.5941
  105OSM   H15B10668   6.516   6.022  10.857  0.9084  0.7060  3.0996
  105OSM   H15C10669   6.445   5.859  10.824 -2.1351  1.1983 -2.5818
  105OSM    C1410670   6.198   5.935  10.907  0.4161 -0.1975  0.9433
  105OSM   H14A10671   6.101   5.982  10.900  0.9333  0.6736 -1.2772
  105OSM   H14B10672   6.233   5.929  11.010  2.1551 -0.7480  0.3582
  105OSM   H14C10673   6.184   5.831  10.884 -0.6136 -0.6147  3.1874
  105OSM    C1310674   6.297   6.161  10.885  1.0824  0.2747  0.2945
  105OSM   H13A10675   6.223   6.212  10.825 -0.5164 -2.1178  0.1196
  105OSM   H13B10676   6.383   6.217  10.851  0.3768 -0.5659 -3.2201
  105OSM   H13C10677   6.277   6.173  10.991 -0.4663 -0.5369  0.1134
  105OSM    C1210678   6.293   6.018  10.688  0.4088 -0.3194 -0.1987
  105OSM   H12A10679   6.326   5.918  10.662 -0.1188 -0.2093 -1.3480
  105OSM   H12B10680   6.362   6.089  10.644  1.1342 -0.7934  0.1410
  105OSM    C1110681   6.156   6.043  10.623 -0.2715  0.0364 -0.3299
  105OSM   H11A10682   6.092   5.959  10.659  0.1399 -0.5836 -1.0125
  105OSM   H11B10683   6.163   6.025  10.513  0.8345  4.0222 -1.0709
  105OSM      P10684   5.961   6.208  10.686  0.2926  0.0178 -0.0039
  105OSM    O1310685   5.873   6.088  10.689 -0.0523 -0.5348  0.3441
  105OSM    O1410686   5.966   6.287  10.810  0.5173  0.1196 -0.2696
  105OSM    O1110687   5.905   6.298  10.568  0.1784 -0.2152 -0.3020
  105OSM    O1210688   6.110   6.174  10.644  0.1732  0.3091 -0.1541
  105OSM    C1S10689   5.947   6.270  10.434  0.9990 -0.1222  0.3383
  105OSM    H1S10690   5.905   6.180  10.385  0.4384  2.3518 -4.3333
  105OSM    H1T10691   6.058   6.265  10.432  0.9747 -1.1251  0.8258
  105OSM     NF10692   5.921   6.354  10.200  0.2321 -0.2903 -0.0975
  105OSM    HNF10693   6.011   6.363  10.158  0.9839  4.0621  1.8872
  105OSM    C2S10694   5.920   6.398  10.340  0.2394  0.3193  0.2152
  105OSM    H2S10695   5.821   6.443  10.366  0.1311  0.4199 -0.3591
  105OSM    C3S10696   6.030   6.505  10.375 -0.5327  0.0230 -0.3895
  105OSM    H3S10697   6.130   6.461  10.353 -0.3899  0.7938 -1.2895
  105OSM     O310698   6.038   6.536  10.509  0.4838 -0.5136 -0.3030
  105OSM    HO310699   5.978   6.482  10.560  1.2856 -0.3593  0.8464
  105OSM    C4S10700   6.018   6.633  10.290  0.3073 -0.4703  0.0863
  105OSM    H4S10701   5.932   6.696  10.316 -0.2554 -0.8210 -0.8724
  105OSM    C5S10702   6.091   6.682  10.184 -0.2302 -0.6197 -0.0946
  105OSM    H5S10703   6.178   6.624  10.150  0.5902 -0.3726  1.4666
  105OSM    C6S10704   6.056   6.812  10.121  0.0921 -0.1209  0.1460
  105OSM    H6S10705   6.146   6.875  10.107 -1.4664  2.4417  0.9468
  105OSM    H6T10706   5.995   6.878  10.186 -0.1560  0.1239 -0.3339
  105OSM    C7S10707   5.978   6.811   9.987  0.6333  0.1007 -0.1249
  105OSM    H7S10708   5.963   6.914   9.946  3.4547  0.7481  0.2717
  105OSM    H7T10709   5.874   6.774  10.001  0.8041  0.1865  1.6172
  105OSM    C8S10710   6.046   6.724   9.885 -0.0773 -0.3135  0.6267
  105OSM    H8S10711   6.034   6.618   9.917  0.7875 -0.3605  0.8234
  105OSM    H8T10712   6.155   6.747   9.888 -0.7582  3.4959  0.8908
  105OSM    C9S10713   6.002   6.762   9.741  0.6559  0.3833 -0.7298
  105OSM    H9S10714   6.074   6.732   9.662 -0.0990  0.4844 -1.4660
  105OSM    H9T10715   5.999   6.873   9.743  2.1081  0.4516 -1.0563
  105OSM   C10S10716   5.858   6.719   9.721 -0.2846 -0.6775  0.5747
  105OSM   H10S10717   5.808   6.752   9.814  0.9854 -0.8071  1.3153
  105OSM   H10T10718   5.847   6.609   9.721 -1.1163 -0.6811 -2.0338
  105OSM   C11S10719   5.796   6.781   9.596 -0.4254 -1.1994 -0.3822
  105OSM   H11S10720   5.835   6.884   9.582 -0.9717 -0.8443  0.5865
  105OSM   H11T10721   5.685   6.791   9.602 -0.4834  2.3500 -3.4939
  105OSM   C12S10722   5.844   6.702   9.469  0.9529 -0.2185  0.5175
  105OSM   H12S10723   5.849   6.593   9.492  1.0133 -0.3274 -0.0156
  105OSM   H12T10724   5.944   6.736   9.436 -0.3939  1.5523 -2.0461
  105OSM   C13S10725   5.758   6.727   9.345  0.2913  0.0796  0.0005
  105OSM   H13S10726   5.719   6.831   9.352  3.1541  1.1206  2.1044
  105OSM   H13T10727   5.666   6.665   9.355 -0.5864  1.5931  1.8423
  105OSM   C14S10728   5.833   6.715   9.212  0.4213 -0.0237 -0.9690
  105OSM   H14S10729   5.881   6.615   9.204  0.3428 -0.0893 -0.6294
  105OSM   H14T10730   5.921   6.783   9.207  0.2680  0.2920  0.2177
  105OSM   C15S10731   5.745   6.751   9.088 -0.0373 -0.7541  0.2590
  105OSM   H15S10732   5.698   6.849   9.112  1.8338  1.1986 -3.2667
  105OSM   H15T10733   5.675   6.664   9.080  1.1023 -1.7694  1.0281
  105OSM   C16S10734   5.826   6.766   8.963  0.2893 -0.4599  1.3556
  105OSM   H16S10735   5.871   6.669   8.934  0.1231 -0.5791  1.4928
  105OSM   H16T10736   5.903   6.845   8.974  0.8753 -0.6944 -0.5836
  105OSM   C17S10737   5.758   6.827   8.835 -0.3804  0.5796 -0.7973
  105OSM   H17S10738   5.839   6.840   8.760  0.5570 -0.6503 -0.0464
  105OSM   H17T10739   5.723   6.926   8.870  1.7056  0.1512  2.9949
  105OSM   C18S10740   5.636   6.756   8.777  0.1615  0.5189  0.4912
  105OSM   H18S10741   5.565   6.729   8.858 -0.6460 -0.2074 -0.4346
  105OSM   H18T10742   5.680   6.662   8.738  0.1923 -0.6385  3.0940
  105OSM   H18U10743   5.601   6.810   8.686 -1.4466 -0.6113  0.3836
  105OSM    C1F10744   5.828   6.280  10.148  0.2895 -0.7055 -0.5531
  105OSM     OF10745   5.725   6.258  10.208  0.0758  0.7079  0.0883
  105OSM    C2F10746   5.858   6.238  10.010 -0.7585 -0.1338  0.7136
  105OSM    H2F10747   5.945   6.168  10.017  1.0163  2.0146  1.5642
  105OSM    H2G10748   5.889   6.329   9.956  1.8276 -2.3332 -1.8618
  105OSM    C3F10749   5.735   6.165   9.952 -0.1978  0.4355  0.2315
  105OSM    H3F10750   5.638   6.216   9.969 -1.2401 -0.9199 -1.3373
  105OSM    H3G10751   5.724   6.064   9.998 -1.7979 -0.2860 -1.5622
  105OSM    C4F10752   5.731   6.125   9.806 -1.4133 -0.1742  0.0297
  105OSM    H4F10753   5.642   6.064   9.781 -1.1506 -0.3980 -0.3658
  105OSM    H4G10754   5.819   6.066   9.771 -1.3527 -2.1842  3.1829
  105OSM    C5F10755   5.718   6.251   9.719  0.0470  0.0386  0.1241
  105OSM    H5F10756   5.795   6.329   9.740  1.4045 -0.8846 -1.1963
  105OSM    H5G10757   5.623   6.299   9.748 -0.0901  0.3207 -0.7540
  105OSM    C6F10758   5.729   6.213   9.568 -0.0547  0.1969 -0.1767
  105OSM    H6F10759   5.688   6.112   9.550 -0.6272  0.4384 -0.2563
  105OSM    H6G10760   5.831   6.198   9.527 -0.6808 -4.0755 -0.6362
  105OSM    C7F10761   5.645   6.322   9.485 -0.7736  0.3880  0.5803
  105OSM    H7F10762   5.700   6.418   9.479 -0.9944  0.5639  1.2756
  105OSM    H7G10763   5.558   6.339   9.552 -0.8578 -1.8826  1.1209
  105OSM    C8F10764   5.614   6.259   9.347  0.6814  0.2532 -0.0446
  105OSM    H8F10765   5.543   6.334   9.306  0.6028  0.3653  0.2996
  105OSM    H8G10766   5.563   6.161   9.359  1.6759 -0.0243  2.4184
  105OSM    C9F10767   5.716   6.250   9.233 -0.1342  0.7440 -0.1239
  105OSM    H9F10768   5.821   6.237   9.262 -0.5359  0.1422  1.1148
  105OSM   C10F10769   5.676   6.235   9.106  0.3240  0.3224  0.2664
  105OSM   H10F10770   5.749   6.226   9.024 -1.0215 -1.7488 -0.7892
  105OSM   C11F10771   5.530   6.219   9.059  0.0647  0.0009 -0.1205
  105OSM   H11F10772   5.464   6.177   9.137  0.4485  1.4182  0.9990
  105OSM   H11G10773   5.528   6.137   8.983 -1.1918  1.0003 -1.2009
  105OSM   C12F10774   5.460   6.326   8.973  0.6107  0.2124  0.3531
  105OSM   H12F10775   5.480   6.427   9.016  2.1500  0.4837 -0.9105
  105OSM   H12G10776   5.349   6.326   8.979  0.6056  0.5806  0.2697
  105OSM   C13F10777   5.507   6.306   8.825 -0.5669  0.6350  0.7503
  105OSM   H13F10778   5.471   6.212   8.777  0.1264  1.0438 -0.6193
  105OSM   H13G10779   5.614   6.277   8.824 -0.5883  0.5612 -0.1946
  105OSM   C14F10780   5.455   6.421   8.737  0.0892  0.1392  0.8281
  105OSM   H14F10781   5.462   6.514   8.798 -1.1630  1.7920 -1.3932
  105OSM   H14G10782   5.346   6.402   8.727  0.3115 -1.2966  0.9792
  105OSM   C15F10783   5.510   6.426   8.596 -0.5535 -0.1360  0.4021
  105OSM   H15F10784   5.551   6.325   8.576 -0.3687 -0.5308  2.5272
  105OSM   H15G10785   5.590   6.503   8.599  0.4606 -1.1810  0.8525
  105OSM   C16F10786   5.397   6.456   8.500 -0.8551  0.0389 -0.0041
  105OSM   H16F10787   5.338   6.539   8.544 -1.8508  0.1294 -1.4504
  105OSM   H16G10788   5.328   6.369   8.504 -0.6995 -0.1330 -0.9101
  105OSM   C17F10789   5.448   6.484   8.359  0.5995 -0.0232 -0.3327
  105OSM   H17F10790   5.533   6.415   8.341  1.4207  0.0664  2.6787
  105OSM   H17G10791   5.492   6.586   8.356 -0.1625  0.2912 -1.5294
  105OSM   C18F10792   5.340   6.480   8.254  0.6913  0.3845  0.5498
  105OSM   H18F10793   5.378   6.526   8.160 -0.4182 -0.2843 -0.2465
  105OSM   H18G10794   5.248   6.531   8.291 -0.3583  1.3871 -3.0906
  105OSM   H18H10795   5.307   6.378   8.225  1.5693  0.8027 -2.1343
  106OSM      N10796   0.919   5.002  10.704  0.0184 -0.3809  0.2388
  106OSM    C1510797   0.956   4.950  10.564 -0.6103  0.2291  0.2022
  106OSM   H15A10798   0.873   4.901  10.515 -1.9986  1.5632  1.1250
  106OSM   H15B10799   1.053   4.903  10.565 -0.2799  0.3405 -4.4772
  106OSM   H15C10800   0.976   5.035  10.501  2.2258 -0.1924  0.4027
  106OSM    C1410801   0.914   4.883  10.791  0.3376  0.2217 -0.1224
  106OSM   H14A10802   0.881   4.907  10.892  0.1840  1.0538 -0.3643
  106OSM   H14B10803   1.007   4.829  10.795 -0.0310 -0.6102 -1.8472
  106OSM   H14C10804   0.842   4.814  10.750 -0.6561  0.7594  0.6601
  106OSM    C1310805   1.023   5.096  10.763  0.2971 -0.1546  0.3025
  106OSM   H13A10806   0.983   5.132  10.856  0.0273 -1.5445  0.7378
  106OSM   H13B10807   1.050   5.183  10.704 -0.3517 -0.1226  0.0464
  106OSM   H13C10808   1.113   5.040  10.784 -0.1203 -1.6064 -1.4716
  106OSM    C1210809   0.786   5.075  10.698 -0.1766  0.1883  0.3271
  106OSM   H12A10810   0.782   5.156  10.626  1.1685 -1.2452 -1.4496
  106OSM   H12B10811   0.775   5.124  10.794  0.9604 -0.6457  0.9085
  106OSM    C1110812   0.663   4.993  10.658  0.3895 -0.2442 -0.3366
  106OSM   H11A10813   0.645   4.929  10.747  0.7088 -0.4573 -0.4237
  106OSM   H11B10814   0.681   4.928  10.569 -2.6440 -2.9128  0.8214
  106OSM      P10815   0.421   5.083  10.725 -0.4515  0.1975  0.3057
  106OSM    O1310816   0.450   5.045  10.863  0.0125  0.5908 -0.0265
  106OSM    O1410817   0.334   5.199  10.710  0.6038 -0.1671 -0.3791
  106OSM    O1110818   0.346   4.964  10.651 -0.0476 -0.6704  0.1543
  106OSM    O1210819   0.558   5.084  10.636 -0.0177 -0.3266  0.2790
  106OSM    C1S10820   0.299   4.986  10.518 -0.1443 -0.0946 -0.7899
  106OSM    H1S10821   0.271   5.093  10.505 -1.4287 -0.2035  0.8612
  106OSM    H1T10822   0.210   4.921  10.503 -0.8499  0.5132  0.5917
  106OSM     NF10823   0.343   4.951  10.279  0.4486  0.3481  0.1282
  106OSM    HNF10824   0.328   4.870  10.223 -0.9905 -0.3024  1.3806
  106OSM    C2S10825   0.399   4.926  10.409 -0.0690 -0.1001 -0.2961
  106OSM    H2S10826   0.493   4.983  10.426  0.4930 -1.4494  1.3908
  106OSM    C3S10827   0.431   4.776  10.430  0.1685  0.5952 -0.5498
  106OSM    H3S10828   0.337   4.719  10.414  0.5345  0.3419 -1.9160
  106OSM     O310829   0.480   4.752  10.560 -0.3190 -0.7549 -0.4296
  106OSM    HO310830   0.442   4.828  10.604  0.1414 -1.2304  0.8437
  106OSM    C4S10831   0.523   4.736  10.322 -0.2876 -0.3651 -0.4248
  106OSM    H4S10832   0.469   4.674  10.249 -0.5597  1.9919 -2.3794
  106OSM    C5S10833   0.654   4.757  10.311  0.6143 -0.1759 -0.2034
  106OSM    H5S10834   0.711   4.791  10.400  0.2624 -2.4150  0.9449
  106OSM    C6S10835   0.744   4.709  10.201  0.6796 -0.2074 -0.1016
  106OSM    H6S10836   0.845   4.705  10.246  0.4038  1.9374  0.8698
  106OSM    H6T10837   0.747   4.793  10.128  1.0577 -0.2521 -0.1396
  106OSM    C7S10838   0.714   4.580  10.131  0.5401 -0.7167  0.3566
  106OSM    H7S10839   0.622   4.596  10.071  0.9216  1.0093  0.1852
  106OSM    H7T10840   0.694   4.502  10.207  0.7213  0.8108  2.0379
  106OSM    C8S10841   0.823   4.536  10.031 -0.0337 -0.4512 -0.3062
  106OSM    H8S10842   0.910   4.491  10.083  0.3729  1.0139  0.3310
  106OSM    H8T10843   0.842   4.629   9.974 -3.5863  1.8920  1.9541
  106OSM    C9S10844   0.781   4.425   9.927 -0.3032 -0.4731 -0.0517
  106OSM    H9S10845   0.848   4.421   9.838 -2.8509 -2.7869 -2.0290
  106OSM    H9T10846   0.683   4.461   9.891 -0.4891  0.4857  1.3334
  106OSM   C10S10847   0.775   4.282   9.993 -0.1347  0.3965 -0.2499
  106OSM   H10S10848   0.677   4.282  10.044 -0.0348 -1.2741  0.0041
  106OSM   H10T10849   0.852   4.267  10.072 -0.4223 -0.9953 -0.2110
  106OSM   C11S10850   0.780   4.161   9.903 -0.1449 -0.2665 -0.4140
  106OSM   H11S10851   0.743   4.075   9.963 -1.6498  0.9669  0.5107
  106OSM   H11T10852   0.874   4.138   9.850  0.5761  0.0541  0.7004
  106OSM   C12S10853   0.681   4.163   9.784  0.4966 -0.4805  0.2127
  106OSM   H12S10854   0.694   4.260   9.730  0.4202 -0.8308 -0.4486
  106OSM   H12T10855   0.577   4.163   9.823  0.8291 -0.5793  1.1201
  106OSM   C13S10856   0.699   4.059   9.677 -0.1000 -0.1635 -0.2476
  106OSM   H13S10857   0.681   3.954   9.706 -1.8226 -0.3562 -1.7819
  106OSM   H13T10858   0.802   4.068   9.635 -0.6217  3.1604 -1.1589
  106OSM   C14S10859   0.613   4.093   9.556  0.0959  0.2970 -0.5085
  106OSM   H14S10860   0.634   4.196   9.521 -1.1834  0.9176  0.4841
  106OSM   H14T10861   0.508   4.074   9.585  0.2786 -2.5587 -1.4408
  106OSM   C15S10862   0.641   4.008   9.437  0.2343  0.0160 -0.1459
  106OSM   H15S10863   0.642   3.900   9.464  0.9828  0.1427  0.3561
  106OSM   H15T10864   0.748   4.025   9.411  0.0881  0.5026 -0.4369
  106OSM   C16S10865   0.544   4.030   9.324  0.2342  0.4303 -0.6880
  106OSM   H16S10866   0.583   4.125   9.282  0.8994  0.9898  1.1030
  106OSM   H16T10867   0.439   4.026   9.360  0.4738 -1.0293 -0.1028
  106OSM   C17S10868   0.562   3.916   9.213  0.1247  0.4463  0.2033
  106OSM   H17S10869   0.534   3.815   9.250  0.9726  0.6947  1.6366
  106OSM   H17T10870   0.672   3.902   9.206 -0.2325 -2.4220 -1.0067
  106OSM   C18S10871   0.488   3.940   9.077  0.2762  0.1558  0.3469
  106OSM   H18S10872   0.502   4.050   9.066 -0.2304  0.1582 -0.3381
  106OSM   H18T10873   0.383   3.910   9.091  0.0924 -0.0698 -1.3263
  106OSM   H18U10874   0.530   3.889   8.988 -0.8216  0.9086 -0.6286
  106OSM    C1F10875   0.333   5.075  10.226  0.5125  1.1343  0.5152
  106OSM     OF10876   0.356   5.172  10.292  0.1870  0.4072 -0.9153
  106OSM    C2F10877   0.278   5.073  10.084  0.3365 -0.7714 -0.6446
  106OSM    H2F10878   0.168   5.064  10.091  0.1080  1.0572 -1.3245
  106OSM    H2G10879   0.331   4.990  10.033  2.0083 -2.0860  2.9731
  106OSM    C3F10880   0.289   5.210  10.012 -0.3765 -0.3582 -0.0158
  106OSM    H3F10881   0.395   5.237   9.997 -0.2844 -1.3057 -1.2318
  106OSM    H3G10882   0.251   5.292  10.076  2.4453  0.5152  0.6916
  106OSM    C4F10883   0.222   5.224   9.875  0.6782  0.2517  0.3277
  106OSM    H4F10884   0.241   5.322   9.828 -2.6186  0.5206 -0.6631
  106OSM    H4G10885   0.114   5.237   9.898  0.1985 -1.2461 -0.8631
  106OSM    C5F10886   0.235   5.100   9.783 -0.1753 -0.2117  0.0042
  106OSM    H5F10887   0.177   5.014   9.823 -1.6559 -0.7647 -3.0557
  106OSM    H5G10888   0.340   5.069   9.767 -1.0093 -2.0550 -2.3841
  106OSM    C6F10889   0.166   5.129   9.658  0.0005 -0.0559  0.3449
  106OSM    H6F10890   0.059   5.157   9.670  0.6939  2.1072  2.2830
  106OSM    H6G10891   0.169   5.033   9.603  2.3767  0.0004  0.2767
  106OSM    C7F10892   0.232   5.239   9.572  0.2660 -0.4600 -0.4732
  106OSM    H7F10893   0.340   5.235   9.595 -0.3346 -0.2980  2.7887
  106OSM    H7G10894   0.207   5.341   9.608  0.6710 -0.5640  0.1134
  106OSM    C8F10895   0.202   5.220   9.422  0.4316  0.0414  0.0753
  106OSM    H8F10896   0.232   5.312   9.368  2.1969 -1.5443 -1.8118
  106OSM    H8G10897   0.091   5.216   9.421  0.3649  1.0353  1.0543
  106OSM    C9F10898   0.273   5.108   9.352 -0.0501  0.1205  0.1857
  106OSM    H9F10899   0.365   5.062   9.391 -0.7733 -1.3372  0.2566
  106OSM   C10F10900   0.235   5.075   9.225 -0.5321 -0.0471  0.5428
  106OSM   H10F10901   0.295   4.996   9.179  0.6107  0.4621  1.1273
  106OSM   C11F10902   0.123   5.132   9.141 -0.7708 -0.6559 -0.3250
  106OSM   H11F10903   0.084   5.231   9.175  1.6011  0.2390 -0.0383
  106OSM   H11G10904   0.045   5.054   9.155  0.2873 -1.8036 -0.6606
  106OSM   C12F10905   0.167   5.138   9.001 -0.6344 -0.2577  0.0508
  106OSM   H12F10906   0.202   5.040   8.961  1.9667  1.5230 -2.5052
  106OSM   H12G10907   0.249   5.210   8.982  0.5920 -0.9817  2.3294
  106OSM   C13F10908   0.050   5.171   8.902  0.0095 -0.1886 -0.3252
  106OSM   H13F10909   0.013   5.276   8.901 -0.7404 -0.4422  0.0132
  106OSM   H13G10910  -0.037   5.107   8.928 -0.5937  1.2139  1.3065
  106OSM   C14F10911   0.091   5.153   8.754  0.6784  0.4136 -0.5432
  106OSM   H14F10912   0.123   5.048   8.736  1.0702  0.5514 -0.6701
  106OSM   H14G10913   0.178   5.219   8.735 -1.0334  2.3223 -2.2397
  106OSM   C15F10914  -0.018   5.174   8.645 -0.4886 -0.8919  0.0233
  106OSM   H15F10915  -0.072   5.266   8.677  0.8862 -0.2444  0.6158
  106OSM   H15G10916  -0.098   5.098   8.631 -0.3635 -1.3131  1.4293
  106OSM   C16F10917   0.035   5.211   8.500  0.5551 -0.0398 -0.8854
  106OSM   H16F10918   0.104   5.297   8.510 -1.3726  1.6182 -1.1230
  106OSM   H16G10919  -0.054   5.245   8.443 -2.3010 -1.1475  2.5579
  106OSM   C17F10920   0.093   5.093   8.429 -0.4041  0.5612  0.0372
  106OSM   H17F10921   0.038   5.000   8.449  2.7048 -2.0313 -2.2993
  106OSM   H17G10922   0.198   5.082   8.463 -0.3801  0.0372 -0.1985
  106OSM   C18F10923   0.099   5.105   8.274  0.3229 -0.2981  0.1921
  106OSM   H18F10924   0.175   5.180   8.245  0.6047  0.2535  2.2072
  106OSM   H18G10925  -0.004   5.134   8.244  0.2396 -0.4923  0.2894
  106OSM   H18H10926   0.129   5.022   8.206  0.8919 -0.2681  0.4064
  107OSM      N10927   3.786   3.337  10.903 -0.2729  0.0176 -0.6454
  107OSM    C1510928   3.759   3.228  10.989  0.2276  0.3448  0.6671
  107OSM   H15A10929   3.765   3.134  10.937  1.3178 -0.3123  1.8983
  107OSM   H15B10930   3.665   3.232  11.041 -0.7991 -0.5039 -1.0500
  107OSM   H15C10931   3.838   3.210  11.061  0.2863  0.7581  0.7121
  107OSM    C1410932   3.782   3.467  10.983  0.2240 -0.3562  0.0796
  107OSM   H14A10933   3.830   3.449  11.078 -2.7844 -3.6621  1.1587
  107OSM   H14B10934   3.685   3.511  11.001 -0.1429 -0.4457 -1.5045
  107OSM   H14C10935   3.832   3.544  10.925 -0.8591 -0.2316 -0.7149
  107OSM    C1310936   3.928   3.321  10.852  0.4139 -0.2527 -0.2900
  107OSM   H13A10937   3.955   3.223  10.815  2.6682 -0.2940  1.2751
  107OSM   H13B10938   3.985   3.334  10.943  1.5369 -1.8491 -0.7253
  107OSM   H13C10939   3.952   3.399  10.782  1.2033  0.9757  1.2902
  107OSM    C1210940   3.690   3.347  10.786 -0.5266 -0.0176  0.5188
  107OSM   H12A10941   3.722   3.420  10.713 -1.9147  0.2548  0.1544
  107OSM   H12B10942   3.594   3.364  10.832 -0.9997 -1.2169  0.0143
  107OSM    C1110943   3.667   3.219  10.703 -0.5290  0.0720  0.4441
  107OSM   H11A10944   3.764   3.169  10.683  0.8119  1.9484  1.9230
  107OSM   H11B10945   3.623   3.240  10.603 -0.2471 -2.4545 -0.2830
  107OSM      P10946   3.431   3.175  10.804  0.2696  0.0902  0.0626
  107OSM    O1310947   3.360   3.054  10.854 -0.7928 -0.0723  1.4605
  107OSM    O1410948   3.438   3.289  10.901  0.0789 -0.1001  0.4721
  107OSM    O1110949   3.357   3.221  10.668  0.3647  0.2994  0.0045
  107OSM    O1210950   3.582   3.134  10.778 -0.2700  0.0506 -0.2445
  107OSM    C1S10951   3.343   3.133  10.556  0.0488  0.0243  0.0324
  107OSM    H1S10952   3.274   3.049  10.582 -1.4996  1.1047 -0.4370
  107OSM    H1T10953   3.439   3.084  10.528 -0.0059 -0.4568  0.6607
  107OSM     NF10954   3.258   3.089  10.328 -0.1574 -0.0403 -0.8111
  107OSM    HNF10955   3.306   3.107  10.242  0.6917  1.3555 -0.0817
  107OSM    C2S10956   3.282   3.198  10.428 -0.3120 -0.1233 -0.0957
  107OSM    H2S10957   3.186   3.244  10.460 -0.4377 -0.2635 -0.2716
  107OSM    C3S10958   3.375   3.317  10.381  0.1765  0.4024 -0.6307
  107OSM    H3S10959   3.460   3.256  10.344 -0.6693 -1.3727  0.2244
  107OSM     O310960   3.419   3.408  10.483 -0.1582 -0.0921 -0.3825
  107OSM    HO310961   3.410   3.351  10.560 -0.7528 -1.3041 -1.3202
  107OSM    C4S10962   3.318   3.397  10.265  0.5070  0.3022  0.3553
  107OSM    H4S10963   3.354   3.360  10.168 -1.5244 -1.2831  0.1415
  107OSM    C5S10964   3.232   3.509  10.262  0.0860  0.6185 -0.6605
  107OSM    H5S10965   3.214   3.546  10.364 -0.5334  0.7164 -0.7985
  107OSM    C6S10966   3.182   3.589  10.143  0.0359 -0.6893  0.4471
  107OSM    H6S10967   3.254   3.665  10.106 -1.6178  1.0037  0.5629
  107OSM    H6T10968   3.097   3.647  10.185  0.5251  0.2341  0.1810
  107OSM    C7S10969   3.151   3.510  10.012 -0.4503  0.1328 -0.0688
  107OSM    H7S10970   3.090   3.424  10.047 -0.3132  0.7219  1.6778
  107OSM    H7T10971   3.246   3.474   9.967 -0.7583 -0.4184 -0.2986
  107OSM    C8S10972   3.070   3.590   9.920  0.8422  0.0349  0.0186
  107OSM    H8S10973   2.996   3.641   9.985  2.4137  0.8682  1.2419
  107OSM    H8T10974   3.010   3.514   9.865 -0.4999 -0.4056  1.9752
  107OSM    C9S10975   3.142   3.697   9.832  0.0392 -0.1395  0.2096
  107OSM    H9S10976   3.233   3.639   9.807 -0.8652 -1.9609  1.0014
  107OSM    H9T10977   3.188   3.771   9.900 -0.1827  0.6645 -0.4921
  107OSM   C10S10978   3.058   3.749   9.716  0.2713  0.2912  0.6074
  107OSM   H10S10979   3.120   3.832   9.675 -2.2814  2.3326  0.5875
  107OSM   H10T10980   2.966   3.801   9.749 -1.1799 -0.1934 -2.3675
  107OSM   C11S10981   3.013   3.637   9.629 -0.2556 -0.1703  0.4123
  107OSM   H11S10982   2.934   3.571   9.668 -0.9562 -0.6264 -1.6219
  107OSM   H11T10983   3.097   3.567   9.608 -1.2516 -1.0766 -0.7291
  107OSM   C12S10984   2.964   3.684   9.492 -0.5589  0.4630 -0.1722
  107OSM   H12S10985   3.048   3.734   9.439  0.4217 -1.9333 -1.0359
  107OSM   H12T10986   2.881   3.757   9.502 -0.5383  0.3337  1.0111
  107OSM   C13S10987   2.917   3.576   9.395  0.0215 -0.3140 -0.5347
  107OSM   H13S10988   2.827   3.524   9.435  0.2844  0.9543  1.9111
  107OSM   H13T10989   3.000   3.503   9.408  1.1177  1.0222  0.1601
  107OSM   C14S10990   2.911   3.634   9.258  0.0206 -0.0657 -0.6496
  107OSM   H14S10991   3.015   3.669   9.244  0.2488 -0.8829 -1.0868
  107OSM   H14T10992   2.848   3.725   9.256 -0.2531 -0.1978  0.7215
  107OSM   C15S10993   2.865   3.539   9.150 -0.2447  0.6799  0.9201
  107OSM   H15S10994   2.758   3.527   9.174 -0.3528 -0.2540  0.0490
  107OSM   H15T10995   2.910   3.438   9.160 -0.0974  0.5940 -0.4537
  107OSM   C16S10996   2.875   3.606   9.014  0.4219  0.0345 -0.7668
  107OSM   H16S10997   2.981   3.630   8.989 -0.1270  0.2267 -3.2056
  107OSM   H16T10998   2.812   3.698   9.023  0.6267  0.0055  1.2408
  107OSM   C17S10999   2.817   3.513   8.905  0.2965 -0.2934  0.6638
  107OSM   H17S11000   2.787   3.580   8.822 -0.9391 -1.8125 -0.1387
  107OSM   H17T11001   2.722   3.469   8.940  0.7929 -1.3318  0.7446
  107OSM   C18S11002   2.925   3.409   8.861  0.4115  0.5952 -0.3119
  107OSM   H18S11003   2.908   3.381   8.755 -0.5365  0.3143 -0.0921
  107OSM   H18T11004   2.913   3.313   8.914 -1.0046  1.2162  0.5544
  107OSM   H18U11005   3.028   3.446   8.878 -0.0840  1.5060  0.8385
  107OSM    C1F11006   3.167   2.992  10.330 -0.1467  0.3277 -0.1109
  107OSM     OF11007   3.077   2.989  10.412 -0.2950  0.4813  0.4707
  107OSM    C2F11008   3.180   2.885  10.231 -0.2648  0.5571 -0.4304
  107OSM    H2F11009   3.233   2.797  10.272  1.0419  1.4424 -0.1477
  107OSM    H2G11010   3.246   2.916  10.147  0.8794  0.8184  0.5336
  107OSM    C3F11011   3.042   2.841  10.164 -0.8321  0.5583 -0.3821
  107OSM    H3F11012   3.018   2.902  10.074 -0.3558  0.7470 -0.3808
  107OSM    H3G11013   2.963   2.866  10.238 -2.0091  2.9625 -2.2852
  107OSM    C4F11014   3.051   2.686  10.136  1.3103  0.6330  0.0508
  107OSM    H4F11015   3.071   2.616  10.220 -0.3565 -2.1682 -1.7349
  107OSM    H4G11016   3.136   2.671  10.067  0.8210  2.2190 -0.9637
  107OSM    C5F11017   2.923   2.623  10.081  0.5937 -0.0287 -0.4384
  107OSM    H5F11018   2.839   2.674  10.134  2.0663 -0.4070  2.4882
  107OSM    H5G11019   2.913   2.515  10.103  0.7667  0.2258  1.0473
  107OSM    C6F11020   2.904   2.646   9.932  0.2800  0.8294 -0.2636
  107OSM    H6F11021   2.983   2.582   9.888 -0.1170  0.4739 -0.4679
  107OSM    H6G11022   2.927   2.753   9.913  1.4171  1.1108  2.3120
  107OSM    C7F11023   2.770   2.602   9.871 -0.0642 -0.2867  0.0559
  107OSM    H7F11024   2.681   2.656   9.910  1.3562  0.5619  2.3536
  107OSM    H7G11025   2.757   2.493   9.888 -0.9442 -0.2872 -0.5345
  107OSM    C8F11026   2.773   2.632   9.714 -0.2480 -0.1859  0.4533
  107OSM    H8F11027   2.778   2.741   9.696 -0.6509  0.0272  1.5543
  107OSM    H8G11028   2.680   2.585   9.677 -1.1167 -0.7256  3.0886
  107OSM    C9F11029   2.887   2.573   9.647 -1.3468  0.0476  0.4659
  107OSM    H9F11030   2.981   2.617   9.681 -0.2953 -1.4309 -0.4039
  107OSM   C10F11031   2.894   2.459   9.570 -0.0015  0.0950 -0.3571
  107OSM   H10F11032   2.983   2.434   9.512 -0.5094  1.1810 -1.6667
  107OSM   C11F11033   2.769   2.382   9.529 -0.2490 -0.0612  0.4643
  107OSM   H11F11034   2.672   2.411   9.575  1.1424  0.4999  3.2844
  107OSM   H11G11035   2.784   2.276   9.557  0.8136  0.0715  0.4341
  107OSM   C12F11036   2.755   2.388   9.374  0.5062  0.2178  1.1632
  107OSM   H12F11037   2.691   2.309   9.331  0.1912 -0.1058  2.1990
  107OSM   H12G11038   2.847   2.391   9.313 -1.6755  0.9312 -2.4119
  107OSM   C13F11039   2.686   2.522   9.340  0.0185  0.3268  0.1462
  107OSM   H13F11040   2.729   2.610   9.393  2.3230 -2.1056  2.6055
  107OSM   H13G11041   2.578   2.516   9.366 -0.2061  1.0607 -0.5279
  107OSM   C14F11042   2.705   2.536   9.188 -0.3629 -0.5666  0.5881
  107OSM   H14F11043   2.812   2.540   9.160  0.0603  1.0802  2.2673
  107OSM   H14G11044   2.670   2.640   9.172 -1.6085 -0.3125  4.1109
  107OSM   C15F11045   2.640   2.431   9.089 -0.3887  0.0620 -0.2909
  107OSM   H15F11046   2.534   2.422   9.122  0.3235 -1.2851  1.9073
  107OSM   H15G11047   2.686   2.331   9.106 -0.5197  0.0831  0.1935
  107OSM   C16F11048   2.672   2.467   8.944  0.0486 -0.7844 -0.3674
  107OSM   H16F11049   2.778   2.463   8.911 -0.5559  0.1819 -2.6591
  107OSM   H16G11050   2.644   2.574   8.928 -1.8439 -1.1531  0.1946
  107OSM   C17F11051   2.599   2.379   8.850  0.1117  0.1056  0.4577
  107OSM   H17F11052   2.489   2.385   8.868 -0.2502 -1.1477 -1.0445
  107OSM   H17G11053   2.620   2.271   8.871  1.8056  0.2456 -0.3933
  107OSM   C18F11054   2.626   2.403   8.699 -0.0027  0.7824  0.5642
  107OSM   H18F11055   2.556   2.345   8.635 -1.6121  1.1977  1.8657
  107OSM   H18G11056   2.731   2.390   8.667 -0.1489  0.4861  0.1928
  107OSM   H18H11057   2.608   2.509   8.673  2.6971  1.3472  0.7429
  108OSM      N11058   5.501   6.131  10.923 -0.0535  0.7067  0.7297
  108OSM    C1511059   5.474   6.145  11.067 -0.4236  0.2260 -0.0228
  108OSM   H15A11060   5.370   6.164  11.090 -0.1846  0.2226  1.1490
  108OSM   H15B11061   5.547   6.217  11.099 -0.4182  1.6698 -3.0031
  108OSM   H15C11062   5.510   6.053  11.112  1.4535  1.4996  1.2445
  108OSM    C1411063   5.482   6.264  10.859  0.1529 -0.1111  0.2108
  108OSM   H14A11064   5.490   6.263  10.751 -0.9552  1.0802  0.0962
  108OSM   H14B11065   5.531   6.341  10.917  2.1276  0.4667 -2.0307
  108OSM   H14C11066   5.376   6.278  10.869  0.2327 -0.5512  1.9932
  108OSM    C1311067   5.641   6.092  10.911 -1.0953  0.9571 -0.5784
  108OSM   H13A11068   5.676   6.092  10.809  0.0731  1.2815 -0.1897
  108OSM   H13B11069   5.650   5.986  10.930 -0.8054  1.0817  0.0094
  108OSM   H13C11070   5.703   6.139  10.986 -0.0999  0.4585 -1.0704
  108OSM    C1211071   5.404   6.032  10.864 -0.2302  0.1966  0.5195
  108OSM   H12A11072   5.308   6.079  10.875 -1.3716 -1.9513  0.1618
  108OSM   H12B11073   5.407   5.951  10.935  0.0730 -0.3184 -0.0708
  108OSM    C1111074   5.420   5.980  10.720 -0.9746 -0.2037  0.1422
  108OSM   H11A11075   5.430   6.072  10.658 -0.4057 -0.5475 -0.2872
  108OSM   H11B11076   5.329   5.920  10.698  0.3385 -2.3390  0.2430
  108OSM      P11077   5.549   5.764  10.730  0.3028  0.2373 -0.1201
  108OSM    O1311078   5.689   5.719  10.732 -0.3421 -0.4344  0.1094
  108OSM    O1411079   5.474   5.743  10.859  0.0168 -0.0404  0.2874
  108OSM    O1111080   5.468   5.705  10.607  0.6960 -0.6596 -0.1910
  108OSM    O1211081   5.543   5.918  10.698 -0.0935  0.2650 -0.1012
  108OSM    C1S11082   5.532   5.725  10.474 -0.3144 -0.2359  0.1079
  108OSM    H1S11083   5.619   5.655  10.467 -0.1024  0.0126  0.2239
  108OSM    H1T11084   5.573   5.826  10.449 -2.6942  0.8282  0.2466
  108OSM     NF11085   5.507   5.703  10.228  1.1778  0.0919 -0.2334
  108OSM    HNF11086   5.504   5.796  10.193  0.0850 -0.0494 -0.5767
  108OSM    C2S11087   5.433   5.687  10.358  0.5663  0.1591  0.4986
  108OSM    H2S11088   5.413   5.580  10.382  0.6916  0.3150  1.3182
  108OSM    C3S11089   5.306   5.777  10.352 -0.2684  0.7307  0.9050
  108OSM    H3S11090   5.323   5.886  10.341 -1.8755  1.0380  1.1779
  108OSM     O311091   5.236   5.777  10.478 -0.1679  0.3742  0.2277
  108OSM    HO311092   5.301   5.742  10.539  0.4368 -0.1694 -0.7052
  108OSM    C4S11093   5.215   5.733  10.239  0.0468  0.7435 -0.2474
  108OSM    H4S11094   5.161   5.639  10.259 -1.1639  1.2460 -0.9730
  108OSM    C5S11095   5.193   5.807  10.127  0.7573  0.6581 -0.0233
  108OSM    H5S11096   5.243   5.903  10.104  2.5877 -0.1767  0.3062
  108OSM    C6S11097   5.104   5.774  10.012  0.4593 -0.0157  0.0880
  108OSM    H6S11098   5.142   5.825   9.921 -0.7915  0.7637 -0.0286
  108OSM    H6T11099   5.000   5.807  10.033  0.3882  0.4244 -0.8812
  108OSM    C7S11100   5.095   5.616   9.972  0.5069 -0.1640  0.3782
  108OSM    H7S11101   5.053   5.572  10.065  1.9527 -2.9416 -0.1619
  108OSM    H7T11102   5.195   5.571   9.951  0.1692 -0.5391 -0.4851
  108OSM    C8S11103   5.003   5.581   9.854 -0.1745  0.0288  0.1481
  108OSM    H8S11104   4.905   5.634   9.857 -1.4850 -2.1806 -0.5384
  108OSM    H8T11105   4.981   5.474   9.874  2.3082  0.1185  4.2834
  108OSM    C9S11106   5.066   5.619   9.723  0.6570 -0.2313 -0.5289
  108OSM    H9S11107   5.175   5.598   9.724  1.0826  1.7845  0.9328
  108OSM    H9T11108   5.047   5.728   9.721 -0.6870 -0.4513 -0.6888
  108OSM   C10S11109   4.984   5.559   9.605 -0.7903 -0.1235  0.2847
  108OSM   H10S11110   4.876   5.585   9.612 -0.5427  1.6974 -1.8220
  108OSM   H10T11111   4.988   5.448   9.609 -2.4433 -0.2115  0.0601
  108OSM   C11S11112   5.031   5.611   9.470 -0.5066 -0.0825  0.5838
  108OSM   H11S11113   5.141   5.599   9.463 -0.2865  1.5172  0.9366
  108OSM   H11T11114   5.008   5.719   9.456 -0.7123 -0.4442 -2.7229
  108OSM   C12S11115   4.970   5.541   9.349 -0.7419 -0.2456  0.5934
  108OSM   H12S11116   4.864   5.523   9.375 -1.0372 -0.2023 -0.5110
  108OSM   H12T11117   5.026   5.447   9.330  0.7159  0.7297 -0.1729
  108OSM   C13S11118   4.965   5.627   9.222 -0.3770 -0.2986  0.3481
  108OSM   H13S11119   4.912   5.720   9.252  1.3242 -0.0366  2.8392
  108OSM   H13T11120   4.912   5.575   9.139  0.8919  1.5201 -1.7186
  108OSM   C14S11121   5.100   5.673   9.175  0.0729  0.1212  0.1734
  108OSM   H14S11122   5.165   5.702   9.261  0.2479 -1.9194  0.7689
  108OSM   H14T11123   5.091   5.762   9.109 -1.1249 -1.0520 -1.3208
  108OSM   C15S11124   5.152   5.572   9.081 -0.1078  0.5717 -0.1203
  108OSM   H15S11125   5.095   5.569   8.985 -3.0342 -0.8015  1.5282
  108OSM   H15T11126   5.141   5.467   9.115  1.3563  0.4922  0.1691
  108OSM   C16S11127   5.298   5.605   9.032  0.4972 -0.1946 -0.3478
  108OSM   H16S11128   5.299   5.707   8.989 -0.2052  0.0732  0.2470
  108OSM   H16T11129   5.315   5.522   8.961  0.7572 -0.8983  0.5091
  108OSM   C17S11130   5.401   5.617   9.137 -0.1787  0.4874 -0.1684
  108OSM   H17S11131   5.402   5.521   9.193  0.1605  0.5143 -0.1279
  108OSM   H17T11132   5.380   5.698   9.210  0.6481  0.8566 -0.3250
  108OSM   C18S11133   5.540   5.645   9.079  0.2147 -0.1793  0.3020
  108OSM   H18S11134   5.598   5.563   9.031 -0.0931  0.3478 -1.0061
  108OSM   H18T11135   5.610   5.684   9.156 -0.6069  1.0788  0.4360
  108OSM   H18U11136   5.532   5.728   9.006 -0.9234 -0.4036  0.1555
  108OSM    C1F11137   5.596   5.615  10.185 -0.8972 -0.2150 -1.3598
  108OSM     OF11138   5.606   5.510  10.246 -0.0398 -0.1418 -0.0458
  108OSM    C2F11139   5.692   5.650  10.069  1.0996 -0.3595  0.4454
  108OSM    H2F11140   5.697   5.562  10.002 -1.1025  1.1175 -1.8603
  108OSM    H2G11141   5.797   5.675  10.096  1.7924 -2.1370 -0.4409
  108OSM    C3F11142   5.625   5.763   9.986 -0.7318 -0.2419 -0.6179
  108OSM    H3F11143   5.699   5.790   9.907 -2.8034  0.0523 -2.5717
  108OSM    H3G11144   5.605   5.854  10.047 -1.9222 -0.2740 -0.9185
  108OSM    C4F11145   5.500   5.733   9.903 -0.0017 -0.2607 -0.1146
  108OSM    H4F11146   5.398   5.749   9.945  1.0548  4.0961  1.2675
  108OSM    H4G11147   5.513   5.624   9.881  0.4299 -0.6785  1.9702
  108OSM    C5F11148   5.504   5.803   9.762 -0.8869  0.8161 -0.2165
  108OSM    H5F11149   5.610   5.782   9.736 -1.2332  0.7755 -1.6573
  108OSM    H5G11150   5.492   5.913   9.766  0.9965  1.0310  2.9451
  108OSM    C6F11151   5.416   5.731   9.653 -0.0251 -0.1413  0.0700
  108OSM    H6F11152   5.308   5.748   9.671 -0.2684 -1.1458 -0.3426
  108OSM    H6G11153   5.439   5.623   9.670 -1.0078 -0.1633  1.4128
  108OSM    C7F11154   5.455   5.760   9.505  0.5685  0.4846 -0.3870
  108OSM    H7F11155   5.457   5.869   9.485 -2.8856  0.6602 -0.2954
  108OSM    H7G11156   5.371   5.716   9.447  0.4187 -1.6299  1.3020
  108OSM    C8F11157   5.590   5.701   9.474 -0.2957  1.2832  0.2524
  108OSM    H8F11158   5.669   5.737   9.543  0.3781  1.5087 -0.6131
  108OSM    H8G11159   5.614   5.737   9.371 -0.8466  0.8757 -0.0285
  108OSM    C9F11160   5.587   5.546   9.460  0.2197  0.3878  0.2053
  108OSM    H9F11161   5.549   5.515   9.362 -1.6332  4.4566 -0.5485
  108OSM   C10F11162   5.649   5.463   9.542 -0.4416 -0.3905 -0.7696
  108OSM   H10F11163   5.643   5.355   9.520  0.4398 -0.5778 -0.1510
  108OSM   C11F11164   5.722   5.491   9.671  0.1077 -0.1961  0.1587
  108OSM   H11F11165   5.663   5.458   9.759  0.9698 -0.9756  0.4611
  108OSM   H11G11166   5.755   5.597   9.685 -1.0781  0.0526  1.2839
  108OSM   C12F11167   5.860   5.426   9.669 -0.5291 -0.0816  0.1481
  108OSM   H12F11168   5.929   5.480   9.600  1.8916 -1.0974  1.6501
  108OSM   H12G11169   5.854   5.321   9.633  0.8563 -0.8470  1.9869
  108OSM   C13F11170   5.928   5.426   9.805  0.3194  0.1576 -0.3159
  108OSM   H13F11171   5.896   5.336   9.861  0.2334  0.4847  0.1652
  108OSM   H13G11172   5.915   5.515   9.870 -1.3070  0.6573 -1.2677
  108OSM   C14F11173   6.080   5.406   9.771  0.2406  0.0892  0.4015
  108OSM   H14F11174   6.122   5.498   9.728  1.2960 -0.7597 -0.4276
  108OSM   H14G11175   6.082   5.329   9.691  0.0846  1.4972 -1.0066
  108OSM   C15F11176   6.168   5.362   9.891  0.2938  0.0150 -0.1025
  108OSM   H15F11177   6.269   5.342   9.851  0.9886  0.1282  1.5103
  108OSM   H15G11178   6.139   5.258   9.919  0.7934  0.0132  0.4156
  108OSM   C16F11179   6.166   5.445  10.022 -0.1212  0.0173 -0.0266
  108OSM   H16F11180   6.064   5.443  10.067 -0.3187 -3.4285 -0.3889
  108OSM   H16G11181   6.201   5.550  10.012  2.3789 -0.5787  1.6454
  108OSM   C17F11182   6.259   5.384  10.124 -0.3251 -1.1591  0.1773
  108OSM   H17F11183   6.353   5.384  10.065 -0.5067  1.7488 -0.2528
  108OSM   H17G11184   6.234   5.278  10.148 -2.6773 -0.4652  1.0490
  108OSM   C18F11185   6.274   5.471  10.243  0.0576  0.1456  0.7159
  108OSM   H18F11186   6.355   5.425  10.303  1.5205 -1.4543 -2.2450
  108OSM   H18G11187   6.179   5.481  10.298 -1.1099 -1.3256 -0.9136
  108OSM   H18H11188   6.294   5.574  10.205 -0.6946 -0.5258 -1.6675
  109OSM      N11189   5.815   0.774  10.813  0.0266 -0.0328  0.4924
  109OSM    C1511190   5.944   0.800  10.885  0.0496  0.4926 -0.0720
  109OSM   H15A11191   6.002   0.882  10.845 -1.8863  2.6270  1.2055
  109OSM   H15B11192   6.014   0.719  10.872  0.1542  0.7330 -1.1670
  109OSM   H15C11193   5.938   0.812  10.992  2.0675  0.9380  0.0195
  109OSM    C1411194   5.723   0.894  10.830 -0.4083  0.2784  1.1769
  109OSM   H14A11195   5.687   0.918  10.929 -0.2682  1.9652  0.8416
  109OSM   H14B11196   5.633   0.865  10.778 -0.0482 -0.8942  1.1772
  109OSM   H14C11197   5.767   0.981  10.784  1.2216 -2.4637 -2.9385
  109OSM    C1311198   5.845   0.764  10.666 -0.8819  0.5458 -0.6211
  109OSM   H13A11199   5.753   0.738  10.614 -1.7935  1.9883  0.1948
  109OSM   H13B11200   5.926   0.699  10.638 -1.5398  0.0793 -1.4692
  109OSM   H13C11201   5.885   0.859  10.633  0.3334  0.7356  1.2477
  109OSM    C1211202   5.751   0.642  10.854 -0.4690 -0.2385 -0.2409
  109OSM   H12A11203   5.724   0.656  10.957 -1.9793 -1.3047 -0.4679
  109OSM   H12B11204   5.822   0.560  10.855  1.6668  1.4936  1.1344
  109OSM    C1111205   5.618   0.594  10.795  0.5035 -0.2806  1.0606
  109OSM   H11A11206   5.541   0.671  10.814 -0.5661 -1.4722  1.6802
  109OSM   H11B11207   5.582   0.503  10.847  3.2606 -1.5952  0.8785
  109OSM      P11208   5.671   0.447  10.588 -0.3034 -0.0452  0.1069
  109OSM    O1311209   5.819   0.448  10.588  0.0288  0.2085 -0.1119
  109OSM    O1411210   5.598   0.336  10.651  0.5127 -0.0276 -0.4208
  109OSM    O1111211   5.620   0.462  10.446 -0.2047  0.6773  0.1336
  109OSM    O1211212   5.613   0.572  10.650 -0.7147 -0.6919  0.2570
  109OSM    C1S11213   5.643   0.590  10.377 -0.3871 -0.0729 -0.2604
  109OSM    H1S11214   5.729   0.642  10.424  0.4475  0.2721 -2.0753
  109OSM    H1T11215   5.554   0.656  10.375 -0.6674 -0.3078  2.1727
  109OSM     NF11216   5.723   0.684  10.156 -1.0725  0.2098  0.2306
  109OSM    HNF11217   5.653   0.722  10.097 -1.9009  0.4393  1.3299
  109OSM    C2S11218   5.692   0.557  10.230 -0.1700 -0.6852  0.0099
  109OSM    H2S11219   5.787   0.499  10.229 -0.0239 -0.4438 -0.7247
  109OSM    C3S11220   5.597   0.465  10.159  0.1116  0.8296  0.2424
  109OSM    H3S11221   5.495   0.508  10.141 -0.3364 -0.1891  0.3001
  109OSM     O311222   5.567   0.340  10.226  0.3697  0.4628 -0.2465
  109OSM    HO311223   5.589   0.346  10.319  2.6819 -3.4664 -0.2795
  109OSM    C4S11224   5.652   0.428  10.016 -0.0073  0.7293  0.5190
  109OSM    H4S11225   5.633   0.504   9.939  0.3385  0.1190 -0.1891
  109OSM    C5S11226   5.721   0.318   9.972  0.0482 -0.1354 -0.2313
  109OSM    H5S11227   5.749   0.244  10.048 -0.6580  0.3568  0.5346
  109OSM    C6S11228   5.772   0.288   9.836 -0.0833 -0.1739 -0.3307
  109OSM    H6S11229   5.740   0.186   9.806 -1.0930 -0.1881  0.7164
  109OSM    H6T11230   5.883   0.283   9.836 -0.0759 -0.0620 -1.0126
  109OSM    C7S11231   5.723   0.388   9.730 -0.3382 -0.1755  0.8334
  109OSM    H7S11232   5.777   0.485   9.741  1.3799 -0.6035 -2.4223
  109OSM    H7T11233   5.614   0.406   9.736 -0.1878  2.1619 -1.5814
  109OSM    C8S11234   5.757   0.354   9.580 -0.3865 -0.2355  0.1204
  109OSM    H8S11235   5.725   0.249   9.560  0.5353 -0.2744 -1.3514
  109OSM    H8T11236   5.868   0.349   9.584 -0.2458  2.4823  1.5081
  109OSM    C9S11237   5.686   0.449   9.486 -0.5095 -0.0301 -0.2815
  109OSM    H9S11238   5.716   0.553   9.508 -5.2341  1.5079  0.1520
  109OSM    H9T11239   5.577   0.447   9.508 -0.7594  1.5951 -1.2277
  109OSM   C10S11240   5.700   0.403   9.339 -0.1739 -0.5081  0.3647
  109OSM   H10S11241   5.691   0.293   9.339 -1.2073 -0.4360  0.0673
  109OSM   H10T11242   5.804   0.426   9.306 -0.4040 -0.4268 -0.3113
  109OSM   C11S11243   5.594   0.470   9.248 -0.2628  1.0714 -0.8706
  109OSM   H11S11244   5.578   0.579   9.260  0.7942  1.3331 -1.6674
  109OSM   H11T11245   5.500   0.415   9.268 -0.0769  0.2337 -2.1806
  109OSM   C12S11246   5.630   0.449   9.098  0.4366 -0.0045 -0.2354
  109OSM   H12S11247   5.648   0.342   9.075  1.6196  0.3302 -0.9396
  109OSM   H12T11248   5.720   0.507   9.067  0.8588  0.5616  1.8441
  109OSM   C13S11249   5.519   0.503   9.006  0.8148 -0.0944 -0.2910
  109OSM   H13S11250   5.557   0.493   8.902  0.0930  0.3361 -0.6040
  109OSM   H13T11251   5.490   0.609   9.023  1.5777  0.1411 -0.4148
  109OSM   C14S11252   5.394   0.419   9.026 -0.2289 -0.3791 -0.0392
  109OSM   H14S11253   5.352   0.434   9.128 -0.6651  1.4059 -0.4368
  109OSM   H14T11254   5.400   0.310   9.009  0.5927 -0.0748 -2.0523
  109OSM   C15S11255   5.288   0.457   8.923 -0.2675  0.0202 -0.3838
  109OSM   H15S11256   5.191   0.406   8.941 -0.7581  1.5123  1.6237
  109OSM   H15T11257   5.319   0.427   8.821 -0.6739 -1.4922 -0.0812
  109OSM   C16S11258   5.267   0.609   8.926  0.1434 -0.2915  0.2758
  109OSM   H16S11259   5.346   0.664   8.871 -0.4062 -0.2555 -0.4847
  109OSM   H16T11260   5.246   0.625   9.034 -2.2956 -0.8238 -0.0616
  109OSM   C17S11261   5.137   0.660   8.854 -1.1249  0.4965  0.0014
  109OSM   H17S11262   5.050   0.601   8.890  0.3509 -1.5367  0.3833
  109OSM   H17T11263   5.144   0.645   8.744  0.7308 -0.8255  0.2642
  109OSM   C18S11264   5.106   0.802   8.897 -0.1342  0.0521  0.0955
  109OSM   H18S11265   5.195   0.868   8.888 -0.6435  0.7688  0.1868
  109OSM   H18T11266   5.066   0.793   9.001  0.4775  1.5296  0.4990
  109OSM   H18U11267   5.027   0.850   8.835  0.0781 -0.5148 -0.6179
  109OSM    C1F11268   5.824   0.755  10.190  0.1968 -0.4066  0.5216
  109OSM     OF11269   5.906   0.711  10.269 -0.2567  0.1662  0.7510
  109OSM    C2F11270   5.842   0.887  10.120 -0.1709 -0.5145 -1.0054
  109OSM    H2F11271   5.810   0.964  10.193  1.3952 -0.6227 -0.1651
  109OSM    H2G11272   5.761   0.899  10.045  0.0461 -0.2274 -1.1977
  109OSM    C3F11273   5.984   0.909  10.067  0.3760  0.5731 -0.2031
  109OSM    H3F11274   6.030   0.812  10.038 -0.5103  0.5879 -1.7820
  109OSM    H3G11275   6.054   0.947  10.144  3.0097 -1.3083 -1.5231
  109OSM    C4F11276   5.989   0.995   9.942  1.1856  0.3842 -0.2113
  109OSM    H4F11277   5.937   0.935   9.864 -1.1713  0.9674  0.7977
  109OSM    H4G11278   6.095   1.005   9.911  1.1469 -0.8410 -0.7716
  109OSM    C5F11279   5.919   1.135   9.955 -0.1128 -0.1265  0.1848
  109OSM    H5F11280   5.959   1.181  10.048  0.7281  1.3654 -0.8755
  109OSM    H5G11281   5.809   1.128   9.964 -0.0849  0.2781  0.8985
  109OSM    C6F11282   5.980   1.237   9.856  0.5362  0.5167 -0.2866
  109OSM    H6F11283   5.942   1.202   9.757  0.3943  0.9581 -0.3872
  109OSM    H6G11284   6.089   1.236   9.877 -0.0621  0.1068  3.3830
  109OSM    C7F11285   5.919   1.376   9.871 -0.0799 -0.6355  0.2621
  109OSM    H7F11286   5.914   1.422   9.972  2.1056  0.4961 -0.0811
  109OSM    H7G11287   5.813   1.376   9.837  0.5700 -0.1349 -1.8983
  109OSM    C8F11288   5.992   1.477   9.774 -0.1399 -0.7091  0.3965
  109OSM    H8F11289   5.920   1.561   9.761 -0.7913 -0.8230  2.8603
  109OSM    H8G11290   6.009   1.423   9.678  0.3678  1.3328 -0.7370
  109OSM    C9F11291   6.130   1.514   9.835 -0.4217  0.2457 -0.1614
  109OSM    H9F11292   6.115   1.577   9.924  0.9720  1.3285 -0.6813
  109OSM   C10F11293   6.249   1.476   9.788  0.7087  0.0686 -0.0943
  109OSM   H10F11294   6.341   1.501   9.843  1.9813 -2.0148 -1.1355
  109OSM   C11F11295   6.270   1.392   9.663 -0.1537  0.0050  0.2456
  109OSM   H11F11296   6.199   1.423   9.583  0.1054  1.4627  0.5506
  109OSM   H11G11297   6.261   1.283   9.682  1.7209  0.0735  1.8523
  109OSM   C12F11298   6.412   1.420   9.601 -0.1499  0.1342 -0.1736
  109OSM   H12F11299   6.409   1.372   9.501  2.1798 -2.7675  1.0059
  109OSM   H12G11300   6.491   1.363   9.654 -0.6025  1.1018  1.6518
  109OSM   C13F11301   6.451   1.567   9.593 -0.0582  0.0144  0.2258
  109OSM   H13F11302   6.506   1.609   9.679  2.6556 -2.1981 -0.2739
  109OSM   H13G11303   6.357   1.626   9.585  0.6748  1.1729 -0.0032
  109OSM   C14F11304   6.530   1.605   9.456  0.0931  0.1064  0.0183
  109OSM   H14F11305   6.633   1.564   9.451 -0.4190 -1.6880  2.2734
  109OSM   H14G11306   6.548   1.714   9.469  1.6172 -0.3322  2.1832
  109OSM   C15F11307   6.459   1.589   9.321  0.1968 -0.1983 -0.3004
  109OSM   H15F11308   6.374   1.659   9.334  3.0921  3.1527  2.4419
  109OSM   H15G11309   6.423   1.485   9.305  0.6569 -0.5789  1.0226
  109OSM   C16F11310   6.540   1.644   9.210 -0.3287 -0.8904 -0.2709
  109OSM   H16F11311   6.636   1.592   9.194  2.5775  3.7223  0.1718
  109OSM   H16G11312   6.573   1.746   9.241 -1.4463 -0.9380  1.1646
  109OSM   C17F11313   6.469   1.663   9.072 -0.0330  0.0277  0.1915
  109OSM   H17F11314   6.520   1.719   8.991 -0.7749 -0.5352 -0.6825
  109OSM   H17G11315   6.379   1.728   9.084  0.3117  0.8044 -1.1803
  109OSM   C18F11316   6.409   1.531   9.017  0.0942 -0.5213  0.5663
  109OSM   H18F11317   6.486   1.468   8.967  0.6947  0.5964  0.0174
  109OSM   H18G11318   6.332   1.563   8.943  0.2748 -1.1523  0.0959
  109OSM   H18H11319   6.368   1.480   9.106  0.4173  1.8072  2.1292
  110OSM      N11320   1.036   1.082  10.901 -0.2216 -0.1974 -0.2658
  110OSM    C1511321   0.934   1.182  10.868  0.0751  0.0608  0.1517
  110OSM   H15A11322   0.851   1.145  10.809 -1.2825  1.8977  0.7850
  110OSM   H15B11323   0.978   1.265  10.815 -1.4109 -0.2652 -1.6814
  110OSM   H15C11324   0.881   1.216  10.956  0.7231  2.1497 -0.2211
  110OSM    C1411325   1.159   1.147  10.959  0.3836  0.7535  0.1845
  110OSM   H14A11326   1.219   1.193  10.882  1.1926 -1.8036 -0.7891
  110OSM   H14B11327   1.227   1.071  10.993 -0.0229 -0.0538 -0.7490
  110OSM   H14C11328   1.129   1.210  11.042 -1.3573  0.5825 -0.2850
  110OSM    C1311329   0.984   0.988  11.002 -0.4024 -0.1504 -0.4739
  110OSM   H13A11330   0.954   1.046  11.088 -0.1397 -0.6569 -0.0371
  110OSM   H13B11331   1.066   0.930  11.041  0.0201  1.6156  1.4441
  110OSM   H13C11332   0.903   0.929  10.961 -2.1966 -0.1376  2.6741
  110OSM    C1211333   1.081   1.006  10.771 -0.0628 -0.6724 -0.1311
  110OSM   H12A11334   1.178   0.962  10.789 -0.0204 -0.1026  1.1791
  110OSM   H12B11335   1.109   1.081  10.698 -0.3947  1.5908  1.9393
  110OSM    C1111336   0.993   0.895  10.709 -0.2397  0.1562  0.1163
  110OSM   H11A11337   1.035   0.867  10.610  0.1544  1.4993 -0.1105
  110OSM   H11B11338   0.895   0.948  10.701 -1.0626 -1.1294  1.1565
  110OSM      P11339   0.840   0.710  10.807 -0.5386 -0.2750  0.0962
  110OSM    O1311340   0.878   0.575  10.863  0.3750 -0.2151  0.2941
  110OSM    O1411341   0.744   0.790  10.886 -0.3559  0.4798  0.0206
  110OSM    O1111342   0.790   0.698  10.663 -0.1576  0.5539  0.0050
  110OSM    O1211343   0.975   0.789  10.798 -0.0703 -0.5390  0.3757
  110OSM    C1S11344   0.869   0.630  10.573  0.2672 -0.6011  0.9755
  110OSM    H1S11345   0.891   0.528  10.611 -0.5621 -1.2902 -0.3352
  110OSM    H1T11346   0.966   0.684  10.562 -0.3422  0.1185 -1.4254
  110OSM     NF11347   0.860   0.523  10.349  0.1432 -0.3684  0.1054
  110OSM    HNF11348   0.936   0.561  10.297 -1.4208  0.4151 -1.7096
  110OSM    C2S11349   0.798   0.627  10.435  0.3982  0.1165 -0.5023
  110OSM    H2S11350   0.690   0.603  10.447 -0.6765  3.0955 -3.0145
  110OSM    C3S11351   0.798   0.778  10.385  0.2358  0.3110  0.3051
  110OSM    H3S11352   0.901   0.818  10.395  0.3954  0.0409 -0.2331
  110OSM     O311353   0.720   0.867  10.469  0.1880  0.4830 -0.1756
  110OSM    HO311354   0.708   0.808  10.545  0.2818 -0.6640 -1.0175
  110OSM    C4S11355   0.746   0.789  10.244  0.1687  0.6908 -0.3822
  110OSM    H4S11356   0.636   0.799  10.240  0.2334  0.8578 -2.4157
  110OSM    C5S11357   0.820   0.807  10.134 -0.1147 -0.2143 -0.3187
  110OSM    H5S11358   0.930   0.801  10.146 -0.0464  0.9870 -0.2444
  110OSM    C6S11359   0.772   0.819   9.994  0.2961  0.1294  0.0788
  110OSM    H6S11360   0.812   0.917   9.960  2.8869 -1.4339 -1.6575
  110OSM    H6T11361   0.662   0.809   9.981  0.2384 -3.0606  1.9812
  110OSM    C7S11362   0.829   0.715   9.895 -0.5216  0.3580  0.3546
  110OSM    H7S11363   0.797   0.613   9.925 -0.7461 -0.0577 -1.1920
  110OSM    H7T11364   0.940   0.721   9.897 -0.5645  1.0721  1.0038
  110OSM    C8S11365   0.784   0.723   9.749 -0.1234 -0.2331  0.1121
  110OSM    H8S11366   0.806   0.826   9.714 -0.9094 -0.3423 -0.7443
  110OSM    H8T11367   0.674   0.713   9.744 -0.3115  0.3841  2.1602
  110OSM    C9S11368   0.849   0.619   9.655  0.8459 -0.1873  0.2400
  110OSM    H9S11369   0.807   0.519   9.678 -0.0347  0.3836  1.1858
  110OSM    H9T11370   0.959   0.607   9.672  0.8236 -0.7243  0.0161
  110OSM   C10S11371   0.809   0.629   9.505  0.1697  0.2309 -0.3876
  110OSM   H10S11372   0.700   0.644   9.495 -0.2322 -2.1145 -0.0995
  110OSM   H10T11373   0.843   0.540   9.448  0.4648 -0.6787  1.1447
  110OSM   C11S11374   0.879   0.747   9.438 -0.2078  0.2044 -0.2588
  110OSM   H11S11375   0.984   0.749   9.475 -0.2826  0.3739 -0.0537
  110OSM   H11T11376   0.827   0.837   9.475  0.6375  0.5342  0.1484
  110OSM   C12S11377   0.897   0.727   9.282  0.3246 -0.0733  0.1642
  110OSM   H12S11378   0.803   0.711   9.225  0.7552  1.0162 -0.8944
  110OSM   H12T11379   0.967   0.642   9.270 -1.0972 -1.2001 -0.4209
  110OSM   C13S11380   0.958   0.848   9.220  0.0744  0.0337  0.2078
  110OSM   H13S11381   0.993   0.916   9.300  1.7486 -2.4713  1.7569
  110OSM   H13T11382   0.873   0.893   9.164 -0.9323 -0.2611  1.4514
  110OSM   C14S11383   1.086   0.816   9.134 -0.5508  0.3455  0.8326
  110OSM   H14S11384   1.056   0.732   9.068 -3.1595  1.7793  0.0332
  110OSM   H14T11385   1.172   0.788   9.198  1.1083  2.3276 -0.3877
  110OSM   C15S11386   1.125   0.941   9.045  0.0947  0.3901  0.1342
  110OSM   H15S11387   1.134   1.029   9.112 -0.7494  1.5959 -1.2782
  110OSM   H15T11388   1.044   0.947   8.969 -1.4442 -0.1568  1.6613
  110OSM   C16S11389   1.265   0.915   8.976 -0.2657  0.4156 -0.7271
  110OSM   H16S11390   1.342   0.880   9.047 -0.3804 -1.1323 -1.3248
  110OSM   H16T11391   1.302   1.014   8.941  1.5172 -0.0023 -0.1220
  110OSM   C17S11392   1.256   0.828   8.843 -0.3361 -0.6226 -0.0125
  110OSM   H17S11393   1.171   0.871   8.786  0.5311 -0.0694 -0.9195
  110OSM   H17T11394   1.230   0.723   8.868  0.5903 -1.2899 -1.7161
  110OSM   C18S11395   1.385   0.833   8.760  0.5984  0.7308 -0.2349
  110OSM   H18S11396   1.376   0.822   8.649  0.5490  2.1364 -0.3833
  110OSM   H18T11397   1.463   0.761   8.791 -0.0341 -0.1766 -0.6867
  110OSM   H18U11398   1.436   0.928   8.784 -0.2100  0.5891  2.2859
  110OSM    C1F11399   0.849   0.388  10.372 -0.5019  0.1957  0.3075
  110OSM     OF11400   0.776   0.352  10.459  0.4323 -0.5051 -1.0829
  110OSM    C2F11401   0.932   0.301  10.286  0.2196  0.7204 -0.5357
  110OSM    H2F11402   1.026   0.282  10.342 -0.7185 -3.8737 -0.1294
  110OSM    H2G11403   0.951   0.351  10.189  0.0978  0.7691 -0.5344
  110OSM    C3F11404   0.861   0.164  10.260  0.6836  0.8954 -0.7386
  110OSM    H3F11405   0.751   0.177  10.251  0.1673 -1.9440  0.1799
  110OSM    H3G11406   0.882   0.101  10.350  1.9055  0.4078 -1.3498
  110OSM    C4F11407   0.901   0.100  10.128 -0.6420 -0.2592  0.4174
  110OSM    H4F11408   0.887  -0.010  10.127  1.0141 -0.4998  0.1232
  110OSM    H4G11409   1.012   0.105  10.122 -0.7422  0.0822 -1.5348
  110OSM    C5F11410   0.826   0.145  10.002 -0.3140 -0.0563  0.2616
  110OSM    H5F11411   0.836   0.256   9.993 -0.4481 -0.1210 -0.8405
  110OSM    H5G11412   0.721   0.118  10.028 -1.5381  2.3888 -1.6474
  110OSM    C6F11413   0.866   0.080   9.870  0.2580  0.4382  0.1187
  110OSM    H6F11414   0.841  -0.028   9.873  0.5713  0.3352 -0.6228
  110OSM    H6G11415   0.977   0.088   9.866  0.4538 -1.5674  0.6812
  110OSM    C7F11416   0.825   0.150   9.740  0.2827 -0.0492  0.0123
  110OSM    H7F11417   0.849   0.258   9.739  1.5564 -0.3034  0.7158
  110OSM    H7G11418   0.714   0.137   9.744  0.4324 -1.2208  3.5418
  110OSM    C8F11419   0.895   0.089   9.612  0.6090 -0.1081  0.3515
  110OSM    H8F11420   0.855  -0.010   9.581  0.0613  0.7183 -1.7885
  110OSM    H8G11421   1.003   0.079   9.635  1.1374 -0.6047 -2.1013
  110OSM    C9F11422   0.889   0.190   9.505 -0.5778 -0.0285  0.5263
  110OSM    H9F11423   0.965   0.266   9.527 -3.0133  1.8460  3.1323
  110OSM   C10F11424   0.804   0.210   9.400  0.1630 -0.3949 -0.4933
  110OSM   H10F11425   0.815   0.302   9.340 -1.4548  1.8135  2.3381
  110OSM   C11F11426   0.694   0.118   9.358  0.4856  0.0906  0.3634
  110OSM   H11F11427   0.640   0.166   9.273 -2.6772 -2.6271  0.6235
  110OSM   H11G11428   0.626   0.090   9.441 -1.8832  1.7346 -0.9090
  110OSM   C12F11429   0.761  -0.009   9.297 -0.6048 -0.1362  0.1597
  110OSM   H12F11430   0.696  -0.099   9.302  0.3564 -0.8727 -0.2512
  110OSM   H12G11431   0.849  -0.044   9.354 -2.0813 -1.2853  1.8470
  110OSM   C13F11432   0.812   0.015   9.150 -0.3665 -0.3558  0.3753
  110OSM   H13F11433   0.897  -0.055   9.139  2.1597  2.2230  2.0634
  110OSM   H13G11434   0.843   0.121   9.134 -0.7235  0.0622  2.1581
  110OSM   C14F11435   0.701  -0.028   9.050 -0.6960 -0.2831 -0.3315
  110OSM   H14F11436   0.601  -0.002   9.091 -0.4800  0.0204  0.0143
  110OSM   H14G11437   0.700  -0.137   9.032  1.8915 -0.4274 -0.0399
  110OSM   C15F11438   0.724   0.043   8.913 -0.4218 -0.2079  0.6097
  110OSM   H15F11439   0.835   0.035   8.906 -0.5414 -0.5362 -1.4747
  110OSM   H15G11440   0.700   0.152   8.915 -1.0842 -0.2758 -1.5830
  110OSM   C16F11441   0.642  -0.024   8.797 -0.0175  0.0845 -0.4968
  110OSM   H16F11442   0.533  -0.018   8.816 -0.2981  2.3696 -2.2719
  110OSM   H16G11443   0.660  -0.132   8.782 -0.9811 -0.1941  0.2983
  110OSM   C17F11444   0.676   0.035   8.654 -0.8766 -0.4496 -0.1165
  110OSM   H17F11445   0.785   0.028   8.634 -0.9156 -1.8418  0.0181
  110OSM   H17G11446   0.642   0.141   8.654 -0.1248 -0.1813  1.2948
  110OSM   C18F11447   0.594  -0.035   8.547 -0.0683 -0.1812  0.1424
  110OSM   H18F11448   0.635  -0.137   8.531 -0.3948 -0.2800 -0.0624
  110OSM   H18G11449   0.605   0.013   8.447  0.5933 -3.6523 -1.5901
  110OSM   H18H11450   0.486  -0.050   8.564 -0.0668 -1.1341 -0.6074
  111OSM      N11451   1.614   3.231  11.004  0.9422 -0.0833 -0.6700
  111OSM    C1511452   1.485   3.304  11.004  0.6415 -0.3307 -0.0820
  111OSM   H15A11453   1.502   3.400  10.958  0.0689 -0.2432 -0.1136
  111OSM   H15B11454   1.439   3.330  11.098 -1.2292  1.3788 -1.3985
  111OSM   H15C11455   1.415   3.258  10.936 -0.8466  0.5094  0.8362
  111OSM    C1411456   1.717   3.307  11.088  0.1391  0.3918  0.1455
  111OSM   H14A11457   1.683   3.335  11.187  0.1175  0.1980  0.1936
  111OSM   H14B11458   1.720   3.408  11.048  0.5985  0.9823  1.6049
  111OSM   H14C11459   1.806   3.248  11.099 -1.6998 -2.4055  1.1867
  111OSM    C1311460   1.607   3.101  11.076  0.4013  0.1614  0.6890
  111OSM   H13A11461   1.700   3.046  11.076 -0.3921 -1.4526 -2.9373
  111OSM   H13B11462   1.538   3.033  11.028  2.0679 -1.9575  1.1119
  111OSM   H13C11463   1.557   3.117  11.170  0.4977  1.7199  0.4919
  111OSM    C1211464   1.669   3.217  10.861  0.7283  0.0184 -0.7122
  111OSM   H12A11465   1.758   3.155  10.865  0.0364 -1.1447 -2.1693
  111OSM   H12B11466   1.707   3.314  10.833 -0.7792  1.1458  0.9833
  111OSM    C1111467   1.582   3.152  10.757  0.0648  0.8657  0.2656
  111OSM   H11A11468   1.624   3.142  10.655 -1.6302 -1.3314 -0.2968
  111OSM   H11B11469   1.500   3.226  10.743 -1.0814 -0.2531  0.8241
  111OSM      P11470   1.377   2.983  10.782 -0.1122  0.1236 -0.0734
  111OSM    O1311471   1.359   2.846  10.834  0.2460 -0.0932  0.4480
  111OSM    O1411472   1.283   3.081  10.838  0.2761 -0.1487  0.3615
  111OSM    O1111473   1.377   2.993  10.621 -1.0806  0.2352  0.1084
  111OSM    O1211474   1.532   3.023  10.804 -0.1631 -0.4775  0.5130
  111OSM    C1S11475   1.463   2.907  10.544 -0.8160 -0.5539 -0.1071
  111OSM    H1S11476   1.462   2.804  10.585 -3.3995  0.1718  1.9279
  111OSM    H1T11477   1.567   2.944  10.549 -0.7442 -0.9437  3.0680
  111OSM     NF11478   1.489   2.790  10.328 -0.0575 -0.1941 -0.1508
  111OSM    HNF11479   1.567   2.817  10.272  0.2042 -1.2229 -0.3110
  111OSM    C2S11480   1.411   2.892  10.401  0.2688 -0.1583  0.0278
  111OSM    H2S11481   1.302   2.869  10.390 -0.5108  2.6104  1.1954
  111OSM    C3S11482   1.432   3.034  10.330 -0.0010  0.7934 -0.2696
  111OSM    H3S11483   1.543   3.042  10.334  0.6048 -3.3000 -2.6317
  111OSM     O311484   1.368   3.139  10.400 -0.2115 -0.1598  0.3459
  111OSM    HO311485   1.355   3.112  10.491 -3.1026  0.7962  0.3020
  111OSM    C4S11486   1.398   3.032  10.188 -0.4392 -0.9979 -0.2270
  111OSM    H4S11487   1.484   3.007  10.124  0.7651  0.9463  0.5210
  111OSM    C5S11488   1.278   3.047  10.137  0.2856  0.2730  0.0435
  111OSM    H5S11489   1.193   3.071  10.203  0.7234 -1.1507  1.1808
  111OSM    C6S11490   1.238   3.041   9.990 -0.1169  0.1699  0.1498
  111OSM    H6S11491   1.168   3.125   9.968  0.4660  1.9432  4.0649
  111OSM    H6T11492   1.182   2.945   9.992  1.1185 -0.5719 -0.2369
  111OSM    C7S11493   1.345   3.023   9.883  0.2708 -0.5447 -0.0845
  111OSM    H7S11494   1.306   2.977   9.790 -2.4512 -3.3606  2.1968
  111OSM    H7T11495   1.416   2.944   9.915  0.6611  0.3076  1.2607
  111OSM    C8S11496   1.422   3.149   9.852 -0.2889  0.5645 -0.1065
  111OSM    H8S11497   1.452   3.204   9.944 -0.5690  1.8235 -0.7344
  111OSM    H8T11498   1.359   3.223   9.797  0.0536 -0.5321 -2.0905
  111OSM    C9S11499   1.543   3.119   9.766  0.7180 -0.0679 -0.4979
  111OSM    H9S11500   1.608   3.031   9.786  0.5995 -0.6447 -2.4906
  111OSM    H9T11501   1.617   3.203   9.763  1.3466 -0.5423  0.7744
  111OSM   C10S11502   1.490   3.110   9.612  0.2192 -0.6164 -0.9265
  111OSM   H10S11503   1.445   3.205   9.575 -1.7298 -1.6639 -1.3747
  111OSM   H10T11504   1.416   3.027   9.606 -2.3390  1.5852 -1.6451
  111OSM   C11S11505   1.594   3.095   9.507  0.6683  0.3418 -0.2703
  111OSM   H11S11506   1.627   2.989   9.500  0.6865  0.0808  2.6509
  111OSM   H11T11507   1.687   3.151   9.532  1.1394 -0.2190 -0.7588
  111OSM   C12S11508   1.546   3.135   9.363  0.3452 -0.2751 -0.0290
  111OSM   H12S11509   1.635   3.123   9.297  1.1968  3.4159  0.1936
  111OSM   H12T11510   1.517   3.242   9.350  0.9487 -0.1254 -0.1979
  111OSM   C13S11511   1.430   3.048   9.312 -0.4244  0.5231  0.5450
  111OSM   H13S11512   1.330   3.076   9.352 -0.4340  1.2174  0.0571
  111OSM   H13T11513   1.462   2.945   9.337 -0.7246  0.2839 -0.0518
  111OSM   C14S11514   1.422   3.060   9.158  0.1029  0.0551 -0.0700
  111OSM   H14S11515   1.526   3.063   9.118  0.1379  0.1007  0.0251
  111OSM   H14T11516   1.371   3.154   9.128  0.0266 -0.3412 -1.2499
  111OSM   C15S11517   1.358   2.933   9.096  0.0660  0.4587 -0.0140
  111OSM   H15S11518   1.257   2.919   9.138  0.1461  0.7130  0.2667
  111OSM   H15T11519   1.422   2.848   9.127  0.5587  0.6533 -0.4805
  111OSM   C16S11520   1.367   2.944   8.945 -0.0047  0.4901 -0.2256
  111OSM   H16S11521   1.475   2.935   8.917 -0.1643  0.8740 -0.9986
  111OSM   H16T11522   1.333   3.044   8.909  2.2186  2.2210  2.1208
  111OSM   C17S11523   1.291   2.837   8.869 -0.6850 -0.4352  0.6160
  111OSM   H17S11524   1.182   2.835   8.892 -0.8312 -0.2039 -0.0275
  111OSM   H17T11525   1.341   2.743   8.901  0.1558  0.1570  1.0804
  111OSM   C18S11526   1.306   2.865   8.720 -0.0288 -0.0802 -0.1233
  111OSM   H18S11527   1.235   2.947   8.697 -1.2156 -0.9335  0.3544
  111OSM   H18T11528   1.275   2.778   8.658 -2.0702  0.4739  0.0441
  111OSM   H18U11529   1.411   2.891   8.697 -0.8085  2.5352 -1.0463
  111OSM    C1F11530   1.464   2.661  10.340 -0.0444  0.3547 -0.4764
  111OSM     OF11531   1.379   2.627  10.420  0.1987 -0.8284  0.4098
  111OSM    C2F11532   1.530   2.554  10.256 -0.7753 -0.0537  0.2760
  111OSM    H2F11533   1.625   2.607  10.232 -0.0692 -0.7527  1.3998
  111OSM    H2G11534   1.469   2.531  10.167 -1.5062 -0.7891  0.9474
  111OSM    C3F11535   1.560   2.423  10.340 -0.3450 -0.2519  0.4959
  111OSM    H3F11536   1.466   2.379  10.378 -0.8625 -1.6646 -2.1896
  111OSM    H3G11537   1.608   2.452  10.436 -0.0774 -1.0481  0.6059
  111OSM    C4F11538   1.647   2.335  10.251 -0.4565 -0.3642 -0.2033
  111OSM    H4F11539   1.592   2.319  10.156  1.6981  0.6473 -1.7161
  111OSM    H4G11540   1.647   2.238  10.305  0.3136 -0.0683  0.3428
  111OSM    C5F11541   1.793   2.380  10.238  0.1588  0.0082 -0.3526
  111OSM    H5F11542   1.833   2.389  10.341 -1.8683 -0.7439  0.5577
  111OSM    H5G11543   1.800   2.480  10.189 -0.4557  1.8182  2.9565
  111OSM    C6F11544   1.894   2.284  10.168  0.4173  0.2951 -0.5867
  111OSM    H6F11545   1.907   2.192  10.229 -1.8574  0.0619 -0.3419
  111OSM    H6G11546   1.988   2.343  10.174 -1.0950  2.9038 -0.8855
  111OSM    C7F11547   1.857   2.250  10.025 -0.3890 -0.4827 -0.3787
  111OSM    H7F11548   1.877   2.343   9.967  1.1600  0.6874  1.9015
  111OSM    H7G11549   1.751   2.217  10.026  0.2309 -3.0176  3.3543
  111OSM    C8F11550   1.939   2.135   9.978 -0.3993  0.3885 -0.0354
  111OSM    H8F11551   1.886   2.087   9.893  0.9343 -2.8099  0.7895
  111OSM    H8G11552   1.944   2.056  10.056  1.0704  1.8980  1.4600
  111OSM    C9F11553   2.082   2.171   9.937 -0.0198  0.8022 -0.2198
  111OSM    H9F11554   2.117   2.256   9.997  1.4131 -0.4990  0.8675
  111OSM   C10F11555   2.164   2.098   9.856 -0.2399  0.0243 -0.4607
  111OSM   H10F11556   2.266   2.137   9.844  0.1476 -1.2795 -1.6475
  111OSM   C11F11557   2.135   1.972   9.781 -0.3737 -0.3503 -0.2644
  111OSM   H11F11558   2.027   1.946   9.781 -0.4674  0.0343 -0.3980
  111OSM   H11G11559   2.194   1.889   9.827  0.2357 -0.3600 -1.0431
  111OSM   C12F11560   2.188   1.998   9.638  0.4304  0.4049  0.8793
  111OSM   H12F11561   2.299   2.008   9.633  0.2966  1.5031 -1.4023
  111OSM   H12G11562   2.142   2.086   9.587  2.0779  0.9544  0.2425
  111OSM   C13F11563   2.167   1.871   9.542  0.4100  0.6250  0.1561
  111OSM   H13F11564   2.216   1.780   9.581  1.5749  1.1127 -0.1218
  111OSM   H13G11565   2.214   1.885   9.442 -0.7121  0.2296 -0.4516
  111OSM   C14F11566   2.017   1.831   9.536 -0.0774  0.3043 -0.9313
  111OSM   H14F11567   1.959   1.904   9.475  0.1673 -0.8166 -2.5691
  111OSM   H14G11568   1.979   1.826   9.640 -1.0443  0.1138 -1.2901
  111OSM   C15F11569   1.987   1.696   9.467 -0.2781 -0.0796  0.3555
  111OSM   H15F11570   2.034   1.609   9.519 -0.8729  0.2911  1.5432
  111OSM   H15G11571   2.024   1.708   9.363  0.1679  2.1490  0.7246
  111OSM   C16F11572   1.830   1.674   9.464  0.1674  0.1383  0.3345
  111OSM   H16F11573   1.787   1.769   9.426 -0.5742 -0.6556 -0.8642
  111OSM   H16G11574   1.807   1.656   9.571 -0.7459 -1.5940 -0.1217
  111OSM   C17F11575   1.776   1.566   9.376 -0.9499  0.8211  0.3771
  111OSM   H17F11576   1.665   1.560   9.383 -1.3126  1.6479 -2.9352
  111OSM   H17G11577   1.831   1.478   9.417  1.2939  0.6754 -2.5868
  111OSM   C18F11578   1.821   1.563   9.231  0.2320 -0.7564 -0.0205
  111OSM   H18F11579   1.822   1.460   9.190  1.0242 -0.9398  0.4406
  111OSM   H18G11580   1.921   1.604   9.207 -1.0678  1.3201 -2.3467
  111OSM   H18H11581   1.750   1.622   9.168  0.5657  0.7840  0.9802
  112OSM      N11582   1.429   2.208  11.047 -0.4107 -0.5926 -0.7786
  112OSM    C1511583   1.415   2.302  10.928  0.1909 -0.1264  0.0449
  112OSM   H15A11584   1.433   2.403  10.964  0.6366 -1.0463  2.6666
  112OSM   H15B11585   1.314   2.295  10.891  0.5300  0.0525 -0.9551
  112OSM   H15C11586   1.481   2.270  10.849  1.1658  3.2864 -0.7042
  112OSM    C1411587   1.570   2.216  11.110  0.4852 -0.3435 -0.7395
  112OSM   H14A11588   1.648   2.188  11.041  2.0978 -1.0022  1.2514
  112OSM   H14B11589   1.569   2.142  11.189 -2.9593 -1.0502 -1.2865
  112OSM   H14C11590   1.592   2.315  11.147 -1.1322 -1.0290  2.4724
  112OSM    C1311591   1.341   2.261  11.154  0.3704  0.0393 -0.2374
  112OSM   H13A11592   1.243   2.224  11.125 -0.8910  3.6852 -1.2655
  112OSM   H13B11593   1.342   2.368  11.162  0.0489  0.1467 -1.4050
  112OSM   H13C11594   1.373   2.216  11.247  0.6382 -0.3472 -0.5099
  112OSM    C1211595   1.401   2.064  11.036  0.0998  0.4666  0.6901
  112OSM   H12A11596   1.294   2.053  11.023  0.1500 -1.8599  1.7487
  112OSM   H12B11597   1.419   2.006  11.126  0.2638 -0.9861 -0.2513
  112OSM    C1111598   1.465   1.967  10.929  0.2443 -0.2833 -0.0396
  112OSM   H11A11599   1.415   2.001  10.836 -1.1443  3.2779  1.8217
  112OSM   H11B11600   1.441   1.859  10.924 -0.3939 -0.0900 -2.8901
  112OSM      P11601   1.708   1.907  11.017 -0.0121  0.2005  0.3037
  112OSM    O1311602   1.782   2.007  11.102  0.1262 -0.6305  0.4462
  112OSM    O1411603   1.638   1.796  11.079 -0.1533  1.8364 -0.3987
  112OSM    O1111604   1.814   1.842  10.915  0.0804  0.3429 -0.2883
  112OSM    O1211605   1.612   1.988  10.915  0.3623  0.6233  0.3117
  112OSM    C1S11606   1.796   1.819  10.774  0.4140  0.5348 -0.0488
  112OSM    H1S11607   1.688   1.832  10.753 -0.0729 -1.9849  0.6310
  112OSM    H1T11608   1.815   1.713  10.745 -0.2369  0.1476  0.9078
  112OSM     NF11609   1.865   1.882  10.558 -0.4590 -0.0972  0.6324
  112OSM    HNF11610   1.929   1.813  10.526 -0.8588  0.3007 -1.1289
  112OSM    C2S11611   1.882   1.918  10.695  0.2835  0.0595  0.1323
  112OSM    H2S11612   1.836   2.019  10.700 -2.9913 -1.2198 -1.5911
  112OSM    C3S11613   2.029   1.911  10.740 -0.1680 -0.1439  0.0589
  112OSM    H3S11614   2.060   1.805  10.749 -1.5857 -0.5920  0.0039
  112OSM     O311615   2.047   1.967  10.866 -0.2808  0.1570 -0.0046
  112OSM    HO311616   1.956   1.978  10.894 -1.3070 -1.4892 -2.3206
  112OSM    C4S11617   2.126   1.989  10.652  0.0838  0.7501  0.3368
  112OSM    H4S11618   2.129   2.099  10.657 -0.0851  0.7570  0.3070
  112OSM    C5S11619   2.210   1.923  10.566 -0.5561 -0.6445 -0.6363
  112OSM    H5S11620   2.212   1.813  10.555  1.7645 -0.8319  0.9268
  112OSM    C6S11621   2.308   1.996  10.482 -0.1907 -0.6644 -0.1861
  112OSM    H6S11622   2.387   1.922  10.457  0.2854 -0.7079  1.3076
  112OSM    H6T11623   2.361   2.081  10.530  0.4393 -0.5995 -0.9765
  112OSM    C7S11624   2.242   2.047  10.351  0.1149  0.0286  0.2489
  112OSM    H7S11625   2.328   2.071  10.285  1.4809 -1.1030  1.5522
  112OSM    H7T11626   2.170   2.129  10.370 -3.9318 -3.2056  0.1475
  112OSM    C8S11627   2.160   1.950  10.264  0.3006  0.3979  0.0612
  112OSM    H8S11628   2.133   2.015  10.179  1.2848  2.5976  1.3460
  112OSM    H8T11629   2.061   1.920  10.304 -0.5504 -0.3622 -2.4433
  112OSM    C9S11630   2.237   1.819  10.228  0.2873  0.4730 -0.6125
  112OSM    H9S11631   2.239   1.751  10.316  1.2228 -0.1715 -1.1178
  112OSM    H9T11632   2.341   1.842  10.196  0.4400  0.0583 -0.4177
  112OSM   C10S11633   2.166   1.735  10.119 -0.3999 -0.1415 -0.2648
  112OSM   H10S11634   2.177   1.789  10.022  2.1464  0.5096  0.2990
  112OSM   H10T11635   2.057   1.731  10.138 -0.2154  0.8111  1.0963
  112OSM   C11S11636   2.219   1.591  10.123 -0.4372 -0.4608 -0.0157
  112OSM   H11S11637   2.134   1.527  10.090 -1.3258  1.8514 -2.5750
  112OSM   H11T11638   2.240   1.571  10.230  0.3314 -0.1583 -0.1081
  112OSM   C12S11639   2.342   1.575  10.041  0.0530  0.7343 -0.0291
  112OSM   H12S11640   2.402   1.487  10.076  1.9621  1.9473 -0.0992
  112OSM   H12T11641   2.410   1.661  10.057  0.3753  0.8671 -1.9024
  112OSM   C13S11642   2.312   1.563   9.893 -0.1608  0.7332 -0.0852
  112OSM   H13S11643   2.261   1.655   9.857 -0.5232  0.4988 -0.1649
  112OSM   H13T11644   2.244   1.476   9.882 -1.7771  1.7544  1.3167
  112OSM   C14S11645   2.440   1.543   9.805  0.5926  0.7014  0.0106
  112OSM   H14S11646   2.481   1.445   9.836  1.3975  1.1811  0.4986
  112OSM   H14T11647   2.503   1.627   9.840  1.0924  0.3593 -0.0606
  112OSM   C15S11648   2.424   1.575   9.658 -0.0614 -0.4720  0.0793
  112OSM   H15S11649   2.516   1.534   9.610  1.1197  2.2906 -0.1732
  112OSM   H15T11650   2.415   1.685   9.644  2.2460 -0.1948  0.3709
  112OSM   C16S11651   2.303   1.511   9.585 -0.6704 -0.1081  0.1828
  112OSM   H16S11652   2.201   1.535   9.623  0.1526  1.4935  1.5203
  112OSM   H16T11653   2.319   1.402   9.591  1.2810  0.1193 -0.2010
  112OSM   C17S11654   2.300   1.537   9.434  0.2725 -0.4719 -0.3126
  112OSM   H17S11655   2.320   1.645   9.422 -0.4993 -0.2179  0.5855
  112OSM   H17T11656   2.196   1.523   9.398 -0.7376  2.4818  1.1153
  112OSM   C18S11657   2.393   1.465   9.336 -0.7126 -0.1557  0.0459
  112OSM   H18S11658   2.398   1.355   9.352  4.1164 -0.4384 -1.6508
  112OSM   H18T11659   2.494   1.511   9.348 -0.0820 -1.3938 -0.3378
  112OSM   H18U11660   2.346   1.476   9.236 -2.7754 -1.5682  0.8114
  112OSM    C1F11661   1.760   1.912  10.487 -0.1061  0.1800  0.6227
  112OSM     OF11662   1.672   1.992  10.524  0.6021 -0.3774 -0.1159
  112OSM    C2F11663   1.753   1.836  10.351  0.7517  0.8101 -0.6069
  112OSM    H2F11664   1.730   1.730  10.371  3.1356  0.0682 -1.4841
  112OSM    H2G11665   1.846   1.850  10.292  1.7891  0.0206  0.8009
  112OSM    C3F11666   1.631   1.886  10.272  0.5083 -0.0926  0.5839
  112OSM    H3F11667   1.655   1.992  10.247  0.7734 -0.4779 -0.8841
  112OSM    H3G11668   1.532   1.881  10.321  0.0928 -0.3184 -0.2780
  112OSM    C4F11669   1.617   1.815  10.134 -0.8156  0.1011 -0.2641
  112OSM    H4F11670   1.592   1.709  10.154 -1.1305  0.1157 -0.5754
  112OSM    H4G11671   1.723   1.809  10.099 -0.4484  1.3413  0.5822
  112OSM    C5F11672   1.528   1.877  10.026 -0.3067  0.2599  0.0360
  112OSM    H5F11673   1.565   1.981  10.015 -0.1995  0.3365  1.0118
  112OSM    H5G11674   1.425   1.887  10.067  0.1888  1.5740  1.0518
  112OSM    C6F11675   1.524   1.803   9.895  0.3889 -0.2951 -0.2151
  112OSM    H6F11676   1.445   1.725   9.908 -2.4090  2.2399 -0.8138
  112OSM    H6G11677   1.618   1.754   9.862  0.6968  0.8776 -1.1370
  112OSM    C7F11678   1.457   1.891   9.776  0.4354  0.6253 -0.1762
  112OSM    H7F11679   1.502   1.992   9.787  0.1698  1.2739 -3.8587
  112OSM    H7G11680   1.349   1.891   9.802  0.1944 -0.5425 -1.1022
  112OSM    C8F11681   1.469   1.837   9.636 -0.1200  0.0282 -0.5565
  112OSM    H8F11682   1.576   1.809   9.624  0.5268  1.8013  0.6393
  112OSM    H8G11683   1.442   1.914   9.561 -0.1544  1.7668  1.1548
  112OSM    C9F11684   1.400   1.700   9.624 -0.4510 -0.0851 -0.8988
  112OSM    H9F11685   1.418   1.627   9.705 -1.2452  2.3725  1.6387
  112OSM   C10F11686   1.324   1.651   9.526 -0.5871 -0.4288  0.7307
  112OSM   H10F11687   1.283   1.549   9.524  0.9506 -1.0629 -0.3754
  112OSM   C11F11688   1.285   1.728   9.404  0.3169 -0.2293 -0.3877
  112OSM   H11F11689   1.270   1.838   9.417  0.0313 -0.0272 -2.1616
  112OSM   H11G11690   1.184   1.700   9.369 -0.4243  2.3369 -0.5369
  112OSM   C12F11691   1.387   1.711   9.290 -0.0409  0.2015 -0.1211
  112OSM   H12F11692   1.490   1.713   9.332 -0.6949  0.6220  1.5262
  112OSM   H12G11693   1.383   1.804   9.228  1.8966  0.4085 -0.0271
  112OSM   C13F11694   1.357   1.582   9.205  0.0047  0.3195 -0.0764
  112OSM   H13F11695   1.251   1.572   9.173 -0.0746 -2.1411  0.7339
  112OSM   H13G11696   1.384   1.489   9.259  1.5962 -1.5757 -3.8134
  112OSM   C14F11697   1.432   1.596   9.071 -0.5897 -0.2332 -0.3730
  112OSM   H14F11698   1.528   1.651   9.075 -0.4642 -0.4046 -0.9279
  112OSM   H14G11699   1.372   1.664   9.005  1.2271  1.9610  0.1003
  112OSM   C15F11700   1.448   1.457   8.993  0.2864  0.0019  0.0805
  112OSM   H15F11701   1.344   1.419   8.984  0.4127 -0.1183 -1.0391
  112OSM   H15G11702   1.492   1.376   9.054  0.0446 -0.3889 -0.2529
  112OSM   C16F11703   1.508   1.479   8.864 -0.2574  0.3208  0.4024
  112OSM   H16F11704   1.561   1.387   8.831  3.0494  2.6378 -1.3925
  112OSM   H16G11705   1.609   1.525   8.879 -0.5109  0.4525  1.8498
  112OSM   C17F11706   1.416   1.527   8.747 -0.5030  1.0117  0.2259
  112OSM   H17F11707   1.480   1.558   8.661  0.6146  1.2491  1.1133
  112OSM   H17G11708   1.352   1.612   8.781 -1.4276 -0.8334  3.5199
  112OSM   C18F11709   1.321   1.419   8.694 -1.2094  0.2292 -0.6805
  112OSM   H18F11710   1.270   1.447   8.599 -2.3863 -0.8869 -0.4043
  112OSM   H18G11711   1.246   1.394   8.772 -0.4952 -2.4563 -0.7535
  112OSM   H18H11712   1.377   1.327   8.663 -1.4652 -0.1609  0.0064
  113OSM      N11713   5.443   4.344  11.070 -0.4560  0.2436 -0.1019
  113OSM    C1511714   5.576   4.377  11.126  0.2312  0.6311  0.6361
  113OSM   H15A11715   5.610   4.471  11.084  0.5593  0.1304 -0.2492
  113OSM   H15B11716   5.656   4.308  11.104  1.3403  1.4753  1.8438
  113OSM   H15C11717   5.559   4.393  11.231 -4.8159 -0.6095  0.2256
  113OSM    C1411718   5.404   4.206  11.114  0.6877 -0.3299  0.0411
  113OSM   H14A11719   5.312   4.186  11.060  0.8249  0.1423 -0.3766
  113OSM   H14B11720   5.395   4.202  11.221  2.0607 -1.0896  0.1475
  113OSM   H14C11721   5.476   4.129  11.092  0.0796 -1.4671  1.8440
  113OSM    C1311722   5.343   4.439  11.118 -0.6675  0.2334  0.3748
  113OSM   H13A11723   5.346   4.443  11.226 -1.2770  1.2055  0.3667
  113OSM   H13B11724   5.244   4.411  11.084  0.7002 -0.1578 -3.8802
  113OSM   H13C11725   5.364   4.537  11.077  0.3523 -0.4974 -0.9184
  113OSM    C1211726   5.446   4.348  10.919 -0.2820 -0.2050  0.1640
  113OSM   H12A11727   5.351   4.323  10.874 -0.0371 -0.1725 -0.3774
  113OSM   H12B11728   5.513   4.271  10.884  1.4514  1.3459 -0.0869
  113OSM    C1111729   5.487   4.481  10.856 -0.1717 -0.3990  0.6278
  113OSM   H11A11730   5.424   4.557  10.907  0.3571  0.0625  0.5938
  113OSM   H11B11731   5.462   4.477  10.748 -2.5602  1.5997  1.0241
  113OSM      P11732   5.696   4.643  10.908  0.1855  0.3083 -0.2544
  113OSM    O1311733   5.715   4.634  11.054 -0.2904 -0.2343 -0.0750
  113OSM    O1411734   5.819   4.670  10.829  0.3613 -0.4849  0.0214
  113OSM    O1111735   5.581   4.743  10.868  0.3368  0.6216  0.0830
  113OSM    O1211736   5.629   4.509  10.866 -0.6952 -0.1501 -0.2690
  113OSM    C1S11737   5.574   4.789  10.733  0.1722 -0.7109  0.1968
  113OSM    H1S11738   5.572   4.708  10.658  0.6118 -2.2553  1.7795
  113OSM    H1T11739   5.659   4.857  10.708 -0.2811  0.5144  1.8287
  113OSM     NF11740   5.431   4.930  10.587 -0.3921 -0.5917 -0.5595
  113OSM    HNF11741   5.468   5.019  10.563 -3.4349  0.6172 -1.1333
  113OSM    C2S11742   5.448   4.875  10.721 -0.1191 -0.0359  0.4720
  113OSM    H2S11743   5.367   4.805  10.750  0.1793 -0.5814  0.0006
  113OSM    C3S11744   5.454   4.990  10.825  0.4352 -0.5198  0.3431
  113OSM    H3S11745   5.546   5.050  10.811 -0.9494  1.5387 -0.4158
  113OSM     O311746   5.445   4.951  10.960 -0.4300  0.2879  0.2052
  113OSM    HO311747   5.487   4.866  10.959 -0.6293  0.1100  2.3606
  113OSM    C4S11748   5.339   5.085  10.811 -0.0681 -0.6474  0.6173
  113OSM    H4S11749   5.241   5.036  10.814 -0.5961  0.4099  1.1372
  113OSM    C5S11750   5.350   5.214  10.781  0.4317  0.1579  0.8841
  113OSM    H5S11751   5.447   5.259  10.756  0.7014  0.6453  2.6787
  113OSM    C6S11752   5.231   5.300  10.754  0.8358  0.2727  0.9283
  113OSM    H6S11753   5.219   5.380  10.830  1.8856  1.9116 -0.5310
  113OSM    H6T11754   5.143   5.233  10.756  0.2934  0.8583 -1.0920
  113OSM    C7S11755   5.246   5.369  10.625 -0.1440 -0.7967 -0.3306
  113OSM    H7S11756   5.338   5.430  10.627 -1.0660  0.6555  1.9981
  113OSM    H7T11757   5.165   5.445  10.623 -0.3571 -0.9972  0.4551
  113OSM    C8S11758   5.235   5.275  10.503 -0.4689 -0.5953  0.2024
  113OSM    H8S11759   5.131   5.237  10.499 -0.8697  0.5527 -1.0032
  113OSM    H8T11760   5.303   5.188  10.509  1.2054  0.6120 -0.2596
  113OSM    C9S11761   5.268   5.350  10.370 -0.2127 -0.9920 -0.2762
  113OSM    H9S11762   5.379   5.357  10.369 -0.3026  1.9459  0.3018
  113OSM    H9T11763   5.228   5.453  10.376  3.2004  0.3797  2.8694
  113OSM   C10S11764   5.223   5.279  10.243 -0.6607  0.4144 -0.9758
  113OSM   H10S11765   5.117   5.300  10.215 -1.4135 -0.3174  1.0795
  113OSM   H10T11766   5.233   5.170  10.261 -2.2917  0.2980 -0.5905
  113OSM   C11S11767   5.312   5.316  10.130 -0.1067 -0.6413 -0.0702
  113OSM   H11S11768   5.403   5.254  10.145  0.3483  0.7289  3.8798
  113OSM   H11T11769   5.336   5.424  10.138 -0.4576 -0.6152  0.7395
  113OSM   C12S11770   5.247   5.287  10.002  0.0332  0.7475  0.4107
  113OSM   H12S11771   5.156   5.350   9.996  0.9014  1.9683 -0.4671
  113OSM   H12T11772   5.222   5.179   9.995 -2.0972  1.3065 -1.8178
  113OSM   C13S11773   5.325   5.314   9.870  0.7607 -0.3276 -0.1488
  113OSM   H13S11774   5.417   5.252   9.865  1.6269  0.8550  0.5033
  113OSM   H13T11775   5.347   5.423   9.875  0.4309 -0.2785  0.2374
  113OSM   C14S11776   5.241   5.274   9.746 -0.5104 -0.1227  0.0421
  113OSM   H14S11777   5.135   5.308   9.746 -0.5527 -0.2519 -0.2977
  113OSM   H14T11778   5.245   5.163   9.739 -0.0877 -0.2986  2.3626
  113OSM   C15S11779   5.301   5.322   9.613 -0.1606  0.2607 -1.1298
  113OSM   H15S11780   5.406   5.292   9.594 -0.3872  0.0235 -2.0632
  113OSM   H15T11781   5.302   5.433   9.622 -0.7823  0.1252  1.6768
  113OSM   C16S11782   5.215   5.269   9.492 -0.7536 -0.5362 -0.2005
  113OSM   H16S11783   5.109   5.302   9.495 -1.2443 -1.9873 -0.5819
  113OSM   H16T11784   5.209   5.158   9.502 -1.0277 -0.4835  0.3003
  113OSM   C17S11785   5.282   5.290   9.348 -0.6499  0.0650 -0.2601
  113OSM   H17S11786   5.388   5.261   9.363 -0.6997  1.3291  3.5951
  113OSM   H17T11787   5.286   5.400   9.328  0.8400  0.6314  2.5968
  113OSM   C18S11788   5.200   5.227   9.240 -0.7131  0.7866 -0.2815
  113OSM   H18S11789   5.092   5.248   9.258 -1.2279 -2.1995  0.8164
  113OSM   H18T11790   5.193   5.116   9.237  0.7425  0.6043  1.4837
  113OSM   H18U11791   5.222   5.261   9.137 -0.2423 -2.2571 -1.2875
  113OSM    C1F11792   5.402   4.848  10.487 -0.2662  0.2151 -0.1104
  113OSM     OF11793   5.370   4.729  10.507  0.3240  0.2273  0.5511
  113OSM    C2F11794   5.416   4.891  10.345 -0.4850  0.6133 -0.2847
  113OSM    H2F11795   5.523   4.910  10.323  0.1344 -0.6006  1.4310
  113OSM    H2G11796   5.365   4.988  10.328 -1.0194 -0.0202 -2.8363
  113OSM    C3F11797   5.356   4.799  10.240 -1.2026 -0.3072  0.1562
  113OSM    H3F11798   5.251   4.770  10.263 -1.2577  0.0318  0.3580
  113OSM    H3G11799   5.428   4.715  10.243 -1.4630 -0.5407 -0.1064
  113OSM    C4F11800   5.373   4.855  10.099  0.1987 -0.4170  0.6429
  113OSM    H4F11801   5.475   4.898  10.088  0.8041 -1.5587  1.5849
  113OSM    H4G11802   5.312   4.948  10.095  0.8723  0.0672  1.3066
  113OSM    C5F11803   5.334   4.758   9.984  0.0644  0.9183  0.4741
  113OSM    H5F11804   5.227   4.735  10.001 -0.3081  2.1719 -0.0696
  113OSM    H5G11805   5.380   4.658  10.000 -2.1433 -0.4629 -1.2356
  113OSM    C6F11806   5.365   4.817   9.850  0.0139  0.1776  0.1665
  113OSM    H6F11807   5.468   4.857   9.840 -0.1909  0.9922  1.1756
  113OSM    H6G11808   5.298   4.902   9.823 -0.8527 -0.0295  1.5736
  113OSM    C7F11809   5.339   4.708   9.742 -0.4548 -0.6864 -0.1080
  113OSM    H7F11810   5.230   4.687   9.748 -0.3806 -0.8315  0.9372
  113OSM    H7G11811   5.379   4.608   9.769  0.9297 -0.6721 -1.9175
  113OSM    C8F11812   5.380   4.749   9.594 -0.9372 -0.6085  0.0490
  113OSM    H8F11813   5.490   4.764   9.597 -0.9937  0.0218 -0.7319
  113OSM    H8G11814   5.336   4.846   9.562  1.8680  0.4486 -0.9278
  113OSM    C9F11815   5.351   4.644   9.486 -0.2131  0.2279  0.0244
  113OSM    H9F11816   5.383   4.544   9.521 -1.8831 -0.7351 -1.0458
  113OSM   C10F11817   5.288   4.659   9.367 -0.3171  1.0957  0.5189
  113OSM   H10F11818   5.275   4.575   9.297  0.6298 -1.7231  3.4800
  113OSM   C11F11819   5.235   4.786   9.312  0.0152  0.0108  0.2978
  113OSM   H11F11820   5.248   4.872   9.380  1.0440  1.9085 -2.1368
  113OSM   H11G11821   5.127   4.768   9.290 -0.2741  0.2859  1.4264
  113OSM   C12F11822   5.294   4.822   9.172  0.1862 -0.4274 -0.4185
  113OSM   H12F11823   5.405   4.826   9.167  0.1362  0.0543 -1.5411
  113OSM   H12G11824   5.264   4.924   9.141 -0.5675 -0.5127 -0.0064
  113OSM   C13F11825   5.259   4.730   9.057 -1.4229  0.2647 -0.2661
  113OSM   H13F11826   5.282   4.625   9.083 -0.2415  0.2448 -1.2994
  113OSM   H13G11827   5.326   4.762   8.974 -1.3979 -0.4472 -0.5295
  113OSM   C14F11828   5.115   4.755   9.011  0.4202  0.2607 -0.0393
  113OSM   H14F11829   5.103   4.862   8.982 -1.2571  0.6862  1.9998
  113OSM   H14G11830   5.038   4.728   9.087 -2.5848 -1.0368 -3.2271
  113OSM   C15F11831   5.081   4.666   8.892  0.9570 -0.0788  0.0342
  113OSM   H15F11832   4.972   4.643   8.886  0.9535 -0.0758  0.0951
  113OSM   H15G11833   5.140   4.572   8.899 -0.7464 -1.2222 -0.1119
  113OSM   C16F11834   5.107   4.740   8.757 -0.2256 -0.1927  0.1999
  113OSM   H16F11835   5.211   4.778   8.744  0.1262 -1.7956 -2.7820
  113OSM   H16G11836   5.037   4.825   8.743  1.7004  1.5805  0.9112
  113OSM   C17F11837   5.075   4.651   8.629  0.6266  0.1487 -0.0548
  113OSM   H17F11838   4.965   4.667   8.616  0.5730  1.8659  2.0469
  113OSM   H17G11839   5.091   4.541   8.638  0.4499 -0.0913 -2.1021
  113OSM   C18F11840   5.148   4.704   8.506  0.3192 -0.5213  0.8432
  113OSM   H18F11841   5.257   4.688   8.516  0.3124 -1.4769 -0.4002
  113OSM   H18G11842   5.122   4.810   8.486 -1.7892 -1.3982 -1.5738
  113OSM   H18H11843   5.126   4.641   8.417  0.3252 -0.2721  0.6643
  114OSM      N11844   0.190   0.784  11.053  0.6766  0.2825 -0.1769
  114OSM    C1511845   0.150   0.869  11.167  0.5027 -0.2390  0.2476
  114OSM   H15A11846   0.235   0.900  11.227  0.8848  2.0454 -1.3478
  114OSM   H15B11847   0.084   0.812  11.232  1.6324 -0.8552  0.8884
  114OSM   H15C11848   0.110   0.960  11.125  2.1846 -0.1184 -1.2183
  114OSM    C1411849   0.283   0.678  11.097  0.1144 -1.2487  0.8677
  114OSM   H14A11850   0.326   0.627  11.013  1.3734  0.8969  0.1371
  114OSM   H14B11851   0.249   0.605  11.169 -0.5050 -1.5111  0.3093
  114OSM   H14C11852   0.369   0.718  11.149 -1.4269  1.2784  1.7042
  114OSM    C1311853   0.073   0.712  11.002  0.3644 -0.7304 -0.5770
  114OSM   H13A11854  -0.001   0.776  10.956  0.9308  0.4639  0.1273
  114OSM   H13B11855   0.047   0.633  11.070 -1.4701 -2.3828 -3.0183
  114OSM   H13C11856   0.102   0.648  10.920 -1.2723  0.2890 -2.0223
  114OSM    C1211857   0.252   0.862  10.935 -0.3340  0.3544 -0.1707
  114OSM   H12A11858   0.304   0.793  10.871  0.9006 -0.1484  1.3087
  114OSM   H12B11859   0.327   0.935  10.965 -1.2468  2.3382 -2.3470
  114OSM    C1111860   0.156   0.946  10.839 -0.3534  0.1375 -0.1230
  114OSM   H11A11861   0.081   0.876  10.796  0.3419 -1.6283  1.3802
  114OSM   H11B11862   0.217   0.999  10.763 -0.2234  0.1092 -0.0402
  114OSM      P11863   0.166   1.185  10.966  0.0674 -0.0534  0.2205
  114OSM    O1311864   0.089   1.248  11.076  0.2517  0.0907 -0.8557
  114OSM    O1411865   0.309   1.153  10.999 -0.0945  0.0469 -0.1048
  114OSM    O1111866   0.153   1.288  10.835 -0.1563 -0.2761  0.0466
  114OSM    O1211867   0.095   1.050  10.923  0.0299  0.5835 -0.4372
  114OSM    C1S11868   0.239   1.269  10.723 -0.3364 -0.2528 -0.5616
  114OSM    H1S11869   0.202   1.184  10.662 -0.0065  0.1860 -1.3771
  114OSM    H1T11870   0.347   1.253  10.747 -0.3890  2.0316  1.7092
  114OSM     NF11871   0.252   1.372  10.498 -0.0667  0.7193  0.1248
  114OSM    HNF11872   0.342   1.391  10.460 -0.5646  1.1158 -0.8956
  114OSM    C2S11873   0.229   1.399  10.636 -0.6090  0.4890  0.4153
  114OSM    H2S11874   0.126   1.440  10.643 -1.1720 -0.9114  0.7527
  114OSM    C3S11875   0.329   1.504  10.692  0.1882  0.0349  0.2343
  114OSM    H3S11876   0.428   1.457  10.675  0.0025 -0.5294  0.6730
  114OSM     O311877   0.307   1.528  10.827  0.2596 -0.4155 -0.4198
  114OSM    HO311878   0.238   1.464  10.845 -1.2238  1.2324  0.0437
  114OSM    C4S11879   0.327   1.626  10.611  0.1110 -0.5123  0.0209
  114OSM    H4S11880   0.236   1.686  10.616  0.1585 -0.5183  2.3020
  114OSM    C5S11881   0.424   1.671  10.526  0.6225 -1.1730  0.1011
  114OSM    H5S11882   0.515   1.613  10.504 -0.0131 -1.3648 -2.4326
  114OSM    C6S11883   0.400   1.794  10.444 -0.6183  0.8635 -0.4967
  114OSM    H6S11884   0.499   1.841  10.432  0.1639  0.0364  2.0916
  114OSM    H6T11885   0.337   1.878  10.480  0.7402  1.7638 -0.1603
  114OSM    C7S11886   0.354   1.756  10.301  0.0930  1.0465 -0.3374
  114OSM    H7S11887   0.352   1.859  10.259 -2.4449  1.5365  0.8040
  114OSM    H7T11888   0.253   1.711  10.296  0.2759  0.6821 -0.8120
  114OSM    C8S11889   0.458   1.675  10.226 -0.4797 -0.3746 -0.5069
  114OSM    H8S11890   0.461   1.575  10.274 -2.5460  0.4045  1.3828
  114OSM    H8T11891   0.560   1.716  10.243 -0.3777 -0.2518 -1.3408
  114OSM    C9S11892   0.450   1.657  10.076  0.5748 -0.4429 -0.3529
  114OSM    H9S11893   0.357   1.600  10.054 -0.5551  1.3389 -0.3379
  114OSM    H9T11894   0.536   1.595  10.042  0.6966 -0.4851  0.0240
  114OSM   C10S11895   0.448   1.792   9.999 -0.7526  0.4165 -0.7498
  114OSM   H10S11896   0.518   1.873  10.030  0.5417 -1.2592  0.9499
  114OSM   H10T11897   0.353   1.850  10.001  0.9212  3.3586 -0.4173
  114OSM   C11S11898   0.496   1.766   9.854  0.0039 -0.3133 -0.1487
  114OSM   H11S11899   0.417   1.696   9.819 -1.0562 -0.3926  2.2046
  114OSM   H11T11900   0.588   1.704   9.858 -0.1852 -0.6422 -0.8097
  114OSM   C12S11901   0.515   1.898   9.774  0.0557 -0.0122  0.5663
  114OSM   H12S11902   0.595   1.968   9.808  0.5312  2.0912 -4.0834
  114OSM   H12T11903   0.421   1.957   9.784 -0.0525 -0.2349  0.8879
  114OSM   C13S11904   0.546   1.868   9.625  0.7811 -0.0160  0.1190
  114OSM   H13S11905   0.476   1.800   9.573  1.9552 -0.9417 -0.3103
  114OSM   H13T11906   0.641   1.809   9.625  0.2432 -0.9190 -0.9338
  114OSM   C14S11907   0.576   1.991   9.540 -0.8927 -0.2724 -0.2442
  114OSM   H14S11908   0.632   2.068   9.599 -1.7509 -0.7837  1.2854
  114OSM   H14T11909   0.490   2.058   9.521  0.5413  1.7828  0.0844
  114OSM   C15S11910   0.671   1.970   9.419 -0.4682  0.5135 -0.3825
  114OSM   H15S11911   0.744   1.887   9.434 -1.7848 -1.0637 -2.1269
  114OSM   H15T11912   0.722   2.064   9.390 -0.0377  1.4607  3.0112
  114OSM   C16S11913   0.591   1.924   9.297 -0.0466 -0.1712 -0.2149
  114OSM   H16S11914   0.505   1.993   9.289 -0.6709 -0.8272  0.6401
  114OSM   H16T11915   0.559   1.819   9.317  0.8936 -0.4143  0.0676
  114OSM   C17S11916   0.670   1.935   9.170  0.1929 -0.5531  0.5864
  114OSM   H17S11917   0.764   1.877   9.157  0.9858  0.8355 -0.1097
  114OSM   H17T11918   0.678   2.046   9.164  1.1646 -0.6407 -0.1026
  114OSM   C18S11919   0.587   1.905   9.047  0.4520  0.1285 -0.3877
  114OSM   H18S11920   0.645   1.918   8.953  1.2808 -0.7206 -0.0120
  114OSM   H18T11921   0.494   1.966   9.048 -0.2611 -0.7257  4.1939
  114OSM   H18U11922   0.547   1.801   9.046 -1.0449  0.6721 -0.0058
  114OSM    C1F11923   0.166   1.299  10.420  0.1971 -0.7380 -0.1010
  114OSM     OF11924   0.054   1.268  10.472 -0.4835 -0.5163 -0.2145
  114OSM    C2F11925   0.208   1.263  10.285  0.1595 -0.5365  0.3307
  114OSM    H2F11926   0.319   1.275  10.278  0.0403  0.3897 -0.1331
  114OSM    H2G11927   0.155   1.325  10.210 -0.1052  0.2546  1.1693
  114OSM    C3F11928   0.180   1.121  10.237 -0.0571 -0.7279 -0.5536
  114OSM    H3F11929   0.072   1.112  10.265  0.3798  0.3499  1.6925
  114OSM    H3G11930   0.248   1.059  10.298 -1.1814 -0.1648  1.3725
  114OSM    C4F11931   0.211   1.085  10.091 -0.6454 -0.1391  0.2543
  114OSM    H4F11932   0.151   1.142  10.017 -0.4874  0.9445  0.9435
  114OSM    H4G11933   0.191   0.977  10.075  0.8245 -0.3352 -0.4105
  114OSM    C5F11934   0.357   1.112  10.046  0.3399 -0.6860 -0.4117
  114OSM    H5F11935   0.412   1.059  10.127 -2.4230 -2.2609  0.5828
  114OSM    H5G11936   0.385   1.219  10.054 -2.3838  0.1647 -1.0332
  114OSM    C6F11937   0.395   1.053   9.909 -0.3262 -0.7990 -0.2267
  114OSM    H6F11938   0.382   0.943   9.915  2.1258 -1.3798 -3.0179
  114OSM    H6G11939   0.504   1.074   9.900 -0.1316 -1.0987  1.1464
  114OSM    C7F11940   0.325   1.121   9.793  0.0292  0.5708  0.9488
  114OSM    H7F11941   0.345   1.229   9.808  3.2449  0.0035  1.5933
  114OSM    H7G11942   0.216   1.102   9.801  0.1530 -0.6382  0.0338
  114OSM    C8F11943   0.385   1.078   9.657 -0.4441  0.0664 -0.2782
  114OSM    H8F11944   0.496   1.084   9.659 -0.3495 -0.7609 -1.5686
  114OSM    H8G11945   0.338   1.137   9.576 -1.1774 -1.0355 -0.6824
  114OSM    C9F11946   0.345   0.934   9.623 -0.0664 -0.5039 -0.2709
  114OSM    H9F11947   0.257   0.887   9.670 -0.7923 -0.4350 -1.5044
  114OSM   C10F11948   0.407   0.868   9.528  0.2998  0.6316  0.3636
  114OSM   H10F11949   0.364   0.772   9.495 -1.5888  1.7575 -0.6082
  114OSM   C11F11950   0.516   0.915   9.430  0.1501  0.7417 -0.1304
  114OSM   H11F11951   0.610   0.861   9.450 -0.3871  0.1416  0.8409
  114OSM   H11G11952   0.544   1.022   9.442  1.2995  0.3307  0.9792
  114OSM   C12F11953   0.461   0.892   9.290 -0.2414 -0.1788 -0.0037
  114OSM   H12F11954   0.360   0.935   9.277 -1.4227 -2.7648 -0.0182
  114OSM   H12G11955   0.454   0.781   9.280  4.8440 -0.6547 -1.1236
  114OSM   C13F11956   0.552   0.967   9.187 -0.1053 -0.2157 -0.3099
  114OSM   H13F11957   0.658   0.936   9.192 -0.0265 -0.1081 -1.1252
  114OSM   H13G11958   0.540   1.077   9.197  2.2777  0.2624 -1.9200
  114OSM   C14F11959   0.502   0.939   9.040  0.0643  0.1446  0.7881
  114OSM   H14F11960   0.528   0.832   9.027  1.4110  0.7032 -1.7976
  114OSM   H14G11961   0.575   0.993   8.976 -0.8429  0.1121 -0.3024
  114OSM   C15F11962   0.357   0.984   9.016 -0.3584 -0.4334 -0.5347
  114OSM   H15F11963   0.347   1.088   9.056  1.4316 -0.8246  1.0705
  114OSM   H15G11964   0.291   0.906   9.060  2.6229 -1.7903  1.9345
  114OSM   C16F11965   0.322   0.986   8.867  0.7974 -0.7699  0.5523
  114OSM   H16F11966   0.402   1.048   8.820  2.7800 -0.6207  3.7866
  114OSM   H16G11967   0.223   1.035   8.859  0.3883 -0.8595  3.6908
  114OSM   C17F11968   0.316   0.845   8.808  0.0488 -0.3761 -0.0082
  114OSM   H17F11969   0.231   0.798   8.863 -1.3509 -0.7267 -2.3157
  114OSM   H17G11970   0.408   0.787   8.828  1.1947  0.6422 -2.0112
  114OSM   C18F11971   0.297   0.849   8.658 -0.5158 -0.9670 -0.6350
  114OSM   H18F11972   0.226   0.930   8.631  0.4495 -0.0960 -0.6116
  114OSM   H18G11973   0.254   0.751   8.625 -0.4990 -0.5821 -1.8395
  114OSM   H18H11974   0.395   0.866   8.611 -0.0674 -0.8979  0.2934
  115OSM      N11975   4.708   6.716  11.156  0.3907  0.0342  0.0910
  115OSM    C1511976   4.602   6.655  11.070  0.0124 -0.3785  0.1177
  115OSM   H15A11977   4.579   6.716  10.984  0.0835 -1.2859 -0.5589
  115OSM   H15B11978   4.503   6.643  11.113  0.5621 -0.8984  1.2974
  115OSM   H15C11979   4.610   6.554  11.032  0.3187 -0.9159  1.5316
  115OSM    C1411980   4.823   6.738  11.062 -0.0364 -0.0858  0.0739
  115OSM   H14A11981   4.807   6.800  10.975  0.5185 -1.8480 -1.3399
  115OSM   H14B11982   4.866   6.648  11.022  0.4711  0.1928 -0.0150
  115OSM   H14C11983   4.901   6.783  11.122 -0.3003  1.5548 -0.7703
  115OSM    C1311984   4.660   6.852  11.202 -0.2511  0.1859 -0.7431
  115OSM   H13A11985   4.728   6.892  11.276  1.9190 -0.3134 -2.3510
  115OSM   H13B11986   4.563   6.844  11.248 -0.7922 -0.9289 -2.0245
  115OSM   H13C11987   4.647   6.923  11.122  0.0260  2.1751  0.9161
  115OSM    C1211988   4.742   6.626  11.281  0.2131  0.1046  0.0804
  115OSM   H12A11989   4.650   6.602  11.332 -0.0975  2.5246  0.7794
  115OSM   H12B11990   4.792   6.696  11.347  2.3196 -0.9733 -0.2846
  115OSM    C1111991   4.830   6.500  11.266  0.7814  0.1848  0.0936
  115OSM   H11A11992   4.828   6.441  11.360  4.4184 -2.1101 -1.0354
  115OSM   H11B11993   4.933   6.542  11.262  0.9405 -0.0544  1.1619
  115OSM      P11994   4.853   6.304  11.092 -0.1312  0.6661 -0.1905
  115OSM    O1311995   4.998   6.317  11.065 -0.0426 -0.3381 -1.4565
  115OSM    O1411996   4.811   6.182  11.168  0.0168  0.4725 -0.4071
  115OSM    O1111997   4.769   6.279  10.958  0.1960  0.2999 -0.4119
  115OSM    O1211998   4.792   6.433  11.147 -0.0403  0.0036  0.5637
  115OSM    C1S11999   4.764   6.378  10.856 -0.2426 -0.1358  0.6091
  115OSM    H1S12000   4.858   6.436  10.845  1.0982 -2.0980  1.3227
  115OSM    H1T12001   4.680   6.447  10.879  1.4384  2.1015  0.4008
  115OSM     NF12002   4.771   6.402  10.604 -0.1050 -0.3110 -0.5565
  115OSM    HNF12003   4.696   6.414  10.539 -1.3276 -0.4736  0.7814
  115OSM    C2S12004   4.749   6.316  10.715 -0.4279  0.2501  0.5318
  115OSM    H2S12005   4.826   6.235  10.714  0.7251  1.2551 -1.9164
  115OSM    C3S12006   4.611   6.241  10.698  0.2226 -0.2525 -0.2856
  115OSM    H3S12007   4.526   6.307  10.673  2.1372  1.6633 -2.2673
  115OSM     O312008   4.562   6.168  10.809 -0.5680 -0.0546 -0.3120
  115OSM    HO312009   4.628   6.192  10.873 -0.8278 -0.9028  0.2831
  115OSM    C4S12010   4.623   6.146  10.582  0.7215 -0.3215 -0.2208
  115OSM    H4S12011   4.614   6.192  10.483  1.5782 -1.2548 -0.7414
  115OSM    C5S12012   4.657   6.009  10.584  0.1334 -0.2712 -0.2424
  115OSM    H5S12013   4.683   5.954  10.676 -4.2638 -2.4542 -0.0697
  115OSM    C6S12014   4.672   5.926  10.462 -0.0524 -0.1633  0.2953
  115OSM    H6S12015   4.596   5.845  10.470 -0.1423 -0.4123 -2.1780
  115OSM    H6T12016   4.771   5.876  10.469 -1.1275 -2.2858  1.1909
  115OSM    C7S12017   4.654   5.996  10.321  0.3010  0.7750  0.1166
  115OSM    H7S12018   4.700   6.098  10.323  1.5751  0.2089  1.3096
  115OSM    H7T12019   4.547   6.000  10.293  0.0166 -0.5198  0.9553
  115OSM    C8S12020   4.703   5.918  10.202 -0.5410 -0.4393 -0.2917
  115OSM    H8S12021   4.691   5.809  10.219  2.2354 -0.5760  1.3834
  115OSM    H8T12022   4.811   5.938  10.189 -0.6679 -0.6802 -2.1174
  115OSM    C9S12023   4.634   5.957  10.068  0.3218  0.1176  0.4891
  115OSM    H9S12024   4.673   6.054  10.029 -2.4212  0.3417 -2.0634
  115OSM    H9T12025   4.523   5.958  10.075  0.0691 -2.4620 -1.4197
  115OSM   C10S12026   4.666   5.857   9.951  0.0143  0.0245 -0.3635
  115OSM   H10S12027   4.624   5.757   9.971  1.5460 -1.1251 -2.5206
  115OSM   H10T12028   4.777   5.847   9.952 -0.0570 -0.8009  1.0732
  115OSM   C11S12029   4.622   5.898   9.804 -0.0216  0.1293  0.3134
  115OSM   H11S12030   4.662   6.001   9.789  1.9236 -0.7807 -1.2212
  115OSM   H11T12031   4.512   5.899   9.793 -0.2847 -1.1531  2.3100
  115OSM   C12S12032   4.686   5.810   9.698 -0.3137 -0.2993 -0.1330
  115OSM   H12S12033   4.677   5.702   9.725  1.4844 -0.5368 -0.3886
  115OSM   H12T12034   4.796   5.816   9.697 -0.3553  0.8730 -1.4512
  115OSM   C13S12035   4.638   5.838   9.556  0.6336 -0.2189 -0.2898
  115OSM   H13S12036   4.664   5.941   9.524  0.8077 -0.9082 -2.5689
  115OSM   H13T12037   4.527   5.835   9.551  0.6894 -0.9463 -2.1475
  115OSM   C14S12038   4.679   5.738   9.453  0.2394  0.0602 -0.0965
  115OSM   H14S12039   4.683   5.644   9.512  2.5232 -0.8290 -1.5284
  115OSM   H14T12040   4.784   5.760   9.424  1.1053 -2.1786  1.0934
  115OSM   C15S12041   4.593   5.742   9.328 -0.0684 -0.1126 -0.6772
  115OSM   H15S12042   4.490   5.705   9.348  0.5930 -1.0712  1.2240
  115OSM   H15T12043   4.634   5.665   9.259  0.5654 -0.4232  0.0250
  115OSM   C16S12044   4.601   5.874   9.260  0.4568 -0.3710  0.3749
  115OSM   H16S12045   4.698   5.927   9.262 -0.0103  0.5387 -0.4989
  115OSM   H16T12046   4.541   5.940   9.327 -0.4716 -1.7269  0.9265
  115OSM   C17S12047   4.547   5.880   9.112 -0.2344  0.0977 -0.5437
  115OSM   H17S12048   4.611   5.819   9.045  2.2260  1.5019  0.3721
  115OSM   H17T12049   4.558   5.988   9.089  2.0789  0.5093  1.9887
  115OSM   C18S12050   4.413   5.812   9.104 -0.1426 -0.4224  0.1964
  115OSM   H18S12051   4.369   5.845   9.008  0.0993 -0.5712  0.0339
  115OSM   H18T12052   4.334   5.859   9.167 -1.0657  0.5710 -1.6193
  115OSM   H18U12053   4.419   5.701   9.115  0.0588 -0.8671 -3.2622
  115OSM    C1F12054   4.891   6.451  10.581 -0.1028 -0.0719  0.3960
  115OSM     OF12055   4.983   6.407  10.647  0.2173  0.2825 -0.1776
  115OSM    C2F12056   4.917   6.542  10.460 -0.2395 -0.4754 -0.4122
  115OSM    H2F12057   4.844   6.625  10.472 -0.3789 -0.4731 -1.2123
  115OSM    H2G12058   4.895   6.488  10.365 -0.4452 -0.6833 -0.2445
  115OSM    C3F12059   5.053   6.607  10.457 -1.3856 -0.2204 -0.1104
  115OSM    H3F12060   5.128   6.525  10.458 -0.1116  0.8907  1.2669
  115OSM    H3G12061   5.074   6.665  10.550 -1.5067 -3.4587  2.0926
  115OSM    C4F12062   5.098   6.677  10.325 -0.4486  0.0992 -0.8991
  115OSM    H4F12063   5.096   6.608  10.237  0.6543  0.6776 -1.3963
  115OSM    H4G12064   5.204   6.709  10.331 -0.4935  0.4704 -1.8947
  115OSM    C5F12065   5.019   6.795  10.272  0.6855 -0.2004  0.1286
  115OSM    H5F12066   5.026   6.870  10.353 -0.9732 -1.0002  1.0552
  115OSM    H5G12067   4.910   6.774  10.263  1.1482 -2.9435 -0.1315
  115OSM    C6F12068   5.076   6.843  10.140  0.0160  0.1957 -0.0264
  115OSM    H6F12069   5.087   6.764  10.063  0.4330 -0.0130  0.2465
  115OSM    H6G12070   5.181   6.876  10.150  0.5441 -1.3349 -0.2927
  115OSM    C7F12071   4.985   6.957  10.082 -0.3400 -0.0932  0.5152
  115OSM    H7F12072   4.981   7.051  10.142  0.8040  0.3118 -0.0300
  115OSM    H7G12073   4.885   6.909  10.072  0.4427 -1.2402 -2.7900
  115OSM    C8F12074   5.026   7.015   9.941 -0.0639  0.4150  0.0162
  115OSM    H8F12075   5.131   7.050   9.930  0.9536 -2.5159 -0.6505
  115OSM    H8G12076   4.979   7.115   9.935  0.8437  0.9798  1.8065
  115OSM    C9F12077   4.997   6.921   9.827  0.7908  0.4568  0.3374
  115OSM    H9F12078   5.058   6.830   9.832 -0.2136 -0.2115  0.8161
  115OSM   C10F12079   4.905   6.933   9.729 -0.9088 -0.4110  0.0687
  115OSM   H10F12080   4.907   6.859   9.648  3.0912 -1.3250  0.7714
  115OSM   C11F12081   4.810   7.047   9.703  0.0284  0.1218  0.1819
  115OSM   H11F12082   4.789   7.108   9.793  0.5015  0.6411 -0.0558
  115OSM   H11G12083   4.714   7.000   9.670  0.7233 -2.1131  1.1107
  115OSM   C12F12084   4.877   7.133   9.595  0.1844  0.0990  0.3672
  115OSM   H12F12085   4.913   7.067   9.513  0.5430  0.6354  0.0892
  115OSM   H12G12086   4.968   7.179   9.640  0.7298  0.7843 -1.3604
  115OSM   C13F12087   4.783   7.241   9.546  0.1131 -0.0378  0.3670
  115OSM   H13F12088   4.848   7.310   9.488 -0.3686 -0.3590 -0.5668
  115OSM   H13G12089   4.730   7.296   9.628 -0.0821 -1.7874  1.4625
  115OSM   C14F12090   4.684   7.182   9.440 -0.5665  0.5539  0.3469
  115OSM   H14F12091   4.599   7.142   9.499 -0.2289  0.1867  0.5886
  115OSM   H14G12092   4.739   7.094   9.400 -0.1674  0.5946  0.7876
  115OSM   C15F12093   4.622   7.275   9.341  0.2606 -0.0993 -0.0318
  115OSM   H15F12094   4.695   7.332   9.278  1.7375 -0.8147  0.9813
  115OSM   H15G12095   4.556   7.347   9.394  1.4696  1.0508 -0.0209
  115OSM   C16F12096   4.536   7.197   9.244  0.4090  0.1240  0.5372
  115OSM   H16F12097   4.468   7.136   9.307  1.2174 -1.9739 -0.5155
  115OSM   H16G12098   4.598   7.125   9.186 -1.3543  0.9674 -2.6640
  115OSM   C17F12099   4.466   7.283   9.137 -0.0913  0.6429 -0.5418
  115OSM   H17F12100   4.413   7.368   9.186  0.1117  0.3689  0.1683
  115OSM   H17G12101   4.379   7.235   9.087  0.5612 -0.6679 -0.4414
  115OSM   C18F12102   4.556   7.347   9.038 -0.4479  0.0511  0.6343
  115OSM   H18F12103   4.615   7.284   8.969 -0.8207 -0.4853  0.8007
  115OSM   H18G12104   4.639   7.409   9.080  0.4648 -0.4598 -0.3816
  115OSM   H18H12105   4.494   7.417   8.978 -1.2617  0.3879  1.8100
  116OSM      N12106   1.436   4.005  10.770 -0.2254 -0.4415 -0.3591
  116OSM    C1512107   1.393   4.085  10.650 -0.1478 -0.3224 -0.3814
  116OSM   H15A12108   1.464   4.156  10.610  1.0058 -1.0532  0.3042
  116OSM   H15B12109   1.309   4.149  10.670  0.6830  1.0092 -1.0349
  116OSM   H15C12110   1.350   4.030  10.568 -0.7242  1.2222 -1.1500
  116OSM    C1412111   1.475   4.096  10.878 -0.3795  0.3126 -0.1596
  116OSM   H14A12112   1.395   4.165  10.898 -1.8548 -1.0781 -0.9353
  116OSM   H14B12113   1.559   4.162  10.863 -0.1543  0.2143  0.6531
  116OSM   H14C12114   1.491   4.045  10.972  0.2144 -1.1526 -1.0137
  116OSM    C1312115   1.317   3.924  10.815 -0.1597  0.4218 -0.2860
  116OSM   H13A12116   1.345   3.877  10.909 -0.7794  0.9300  0.1668
  116OSM   H13B12117   1.298   3.849  10.739 -3.5244  1.1654 -0.3248
  116OSM   H13C12118   1.233   3.984  10.849  0.5952  0.6511  1.2640
  116OSM    C1212119   1.550   3.910  10.727  0.5541 -0.2985 -0.2406
  116OSM   H12A12120   1.579   3.869  10.822 -0.6279  0.9758  0.7103
  116OSM   H12B12121   1.636   3.966  10.694  1.0528  0.8768  2.7357
  116OSM    C1112122   1.519   3.788  10.638  0.0698  0.2173 -0.4931
  116OSM   H11A12123   1.620   3.743  10.627  0.6171  1.2523  0.0677
  116OSM   H11B12124   1.485   3.831  10.541  0.9213  1.1395 -0.4092
  116OSM      P12125   1.430   3.587  10.776 -0.0290  0.1231 -0.0696
  116OSM    O1312126   1.507   3.628  10.890  0.2101  0.4367 -0.5390
  116OSM    O1412127   1.303   3.527  10.811  0.1344 -0.1308  0.4337
  116OSM    O1112128   1.503   3.483  10.685  0.0147 -0.1619 -0.4472
  116OSM    O1212129   1.405   3.712  10.679  0.0596 -0.2603  0.5637
  116OSM    C1S12130   1.420   3.452  10.568  0.0616 -0.2947 -0.6833
  116OSM    H1S12131   1.329   3.512  10.551 -0.7203 -1.2052  0.1755
  116OSM    H1T12132   1.384   3.347  10.568 -1.2452  0.1396 -0.1462
  116OSM     NF12133   1.432   3.456  10.318  0.1389 -0.8338  0.3533
  116OSM    HNF12134   1.458   3.384  10.255  4.6772  1.0049 -0.2941
  116OSM    C2S12135   1.509   3.469  10.441  0.0186 -0.2249  0.0536
  116OSM    H2S12136   1.546   3.574  10.437 -1.2968  0.2937  0.6137
  116OSM    C3S12137   1.637   3.377  10.461  0.3436  0.1939  0.1470
  116OSM    H3S12138   1.619   3.270  10.484 -0.4540  0.3596  0.3038
  116OSM     O312139   1.734   3.413  10.556 -0.2780  0.4764 -0.7249
  116OSM    HO312140   1.679   3.451  10.625 -1.2168 -0.4428 -0.9392
  116OSM    C4S12141   1.705   3.357  10.326 -0.5959 -0.6339  0.4975
  116OSM    H4S12142   1.675   3.259  10.288 -0.2748 -1.1225  1.4801
  116OSM    C5S12143   1.795   3.440  10.259 -0.5971 -0.2599 -1.0817
  116OSM    H5S12144   1.836   3.532  10.303 -2.4299 -0.3875  1.0628
  116OSM    C6S12145   1.854   3.403  10.127 -0.2096 -0.1763 -0.2151
  116OSM    H6S12146   1.819   3.304  10.091 -0.0838  0.6647 -2.8390
  116OSM    H6T12147   1.965   3.405  10.123 -0.1924 -1.8685 -2.9147
  116OSM    C7S12148   1.801   3.500  10.023 -0.4491  0.3068  0.2559
  116OSM    H7S12149   1.850   3.599  10.017 -2.1016  1.1073 -0.8598
  116OSM    H7T12150   1.693   3.526  10.033  0.2183  2.9967  1.1502
  116OSM    C8S12151   1.821   3.449   9.883  0.2822 -0.1538 -0.0078
  116OSM    H8S12152   1.767   3.352   9.883  1.6900 -0.9725  0.8174
  116OSM    H8T12153   1.928   3.437   9.857 -0.3899  1.7276 -4.5968
  116OSM    C9S12154   1.763   3.543   9.779  0.0962 -0.0268 -0.1509
  116OSM    H9S12155   1.809   3.642   9.757 -1.5122  0.4065 -1.8373
  116OSM    H9T12156   1.660   3.572   9.812 -0.4952 -0.4562 -1.5675
  116OSM   C10S12157   1.746   3.479   9.642  0.6614 -1.0188  0.4967
  116OSM   H10S12158   1.681   3.389   9.648 -0.4582 -0.1689  1.6011
  116OSM   H10T12159   1.844   3.459   9.594  1.6458  2.0209  1.0345
  116OSM   C11S12160   1.680   3.573   9.544  0.3148 -0.5698  0.3063
  116OSM   H11S12161   1.724   3.674   9.547  0.5508 -0.6192 -0.8870
  116OSM   H11T12162   1.575   3.581   9.581  0.2542 -5.1173  1.7211
  116OSM   C12S12163   1.675   3.518   9.400 -1.5890 -0.4298 -0.0721
  116OSM   H12S12164   1.609   3.429   9.403  0.5009 -2.0495  0.0342
  116OSM   H12T12165   1.776   3.494   9.360 -1.7770 -1.1459 -0.1379
  116OSM   C13S12166   1.619   3.614   9.301 -0.4393  0.0086 -0.2551
  116OSM   H13S12167   1.704   3.668   9.254 -0.1121  1.2652  1.6923
  116OSM   H13T12168   1.572   3.693   9.363  1.9377  0.7538  0.6964
  116OSM   C14S12169   1.511   3.561   9.205  1.3844 -0.5555  0.6470
  116OSM   H14S12170   1.458   3.651   9.167 -1.1416 -1.2578  2.2307
  116OSM   H14T12171   1.433   3.498   9.254 -1.4889  0.7132 -1.9923
  116OSM   C15S12172   1.564   3.484   9.088 -0.3515  1.2231  0.1742
  116OSM   H15S12173   1.605   3.390   9.130 -0.7235  1.8741  2.0829
  116OSM   H15T12174   1.652   3.537   9.047  2.2714 -3.5092 -1.1512
  116OSM   C16S12175   1.452   3.463   8.984  0.4356 -0.4676  0.0939
  116OSM   H16S12176   1.420   3.562   8.948  1.2424 -0.3341 -0.2821
  116OSM   H16T12177   1.364   3.412   9.029 -0.6305  2.1101  1.0907
  116OSM   C17S12178   1.493   3.389   8.855  0.2320  0.5272 -0.0044
  116OSM   H17S12179   1.400   3.385   8.794 -0.6789  1.2450  1.2862
  116OSM   H17T12180   1.510   3.283   8.881 -0.4359  0.1427 -1.0957
  116OSM   C18S12181   1.622   3.436   8.795  0.1946 -0.6890  0.4213
  116OSM   H18S12182   1.600   3.535   8.749 -1.4239 -0.6908  1.1306
  116OSM   H18T12183   1.638   3.378   8.701  1.4016 -0.3841  0.4245
  116OSM   H18U12184   1.708   3.446   8.864 -0.9400 -2.2343  2.1288
  116OSM    C1F12185   1.337   3.549  10.277 -0.1226  0.0324 -0.1182
  116OSM     OF12186   1.317   3.654  10.344  0.2756 -0.1299 -0.8365
  116OSM    C2F12187   1.255   3.524  10.150  0.6435  0.2457  0.0271
  116OSM    H2F12188   1.176   3.602  10.151  0.7514  0.3708 -0.6419
  116OSM    H2G12189   1.213   3.422  10.163  2.4916 -0.7403 -1.2383
  116OSM    C3F12190   1.338   3.532  10.016 -0.1604  0.5470  0.9188
  116OSM    H3F12191   1.427   3.466  10.022  0.5554  1.2965 -0.8599
  116OSM    H3G12192   1.375   3.635   9.995 -0.4511  0.6622  0.9644
  116OSM    C4F12193   1.254   3.483   9.893  0.2128 -0.0835 -0.7404
  116OSM    H4F12194   1.165   3.549   9.892 -0.8395 -1.4398  0.4104
  116OSM    H4G12195   1.215   3.380   9.903  0.6953 -0.1644  0.5099
  116OSM    C5F12196   1.320   3.492   9.757  0.4032  0.1944 -0.6120
  116OSM    H5F12197   1.399   3.414   9.747 -0.0158 -0.7815  2.7402
  116OSM    H5G12198   1.373   3.590   9.749  0.9858 -0.2545 -3.9069
  116OSM    C6F12199   1.223   3.466   9.644  0.1044  0.2737  0.9023
  116OSM    H6F12200   1.128   3.521   9.665  0.7536  1.9349 -0.2752
  116OSM    H6G12201   1.202   3.357   9.645  0.7106  0.0898  3.6462
  116OSM    C7F12202   1.269   3.514   9.508  0.5396 -0.0545  0.5306
  116OSM    H7F12203   1.372   3.476   9.489  1.1503  2.1752 -0.9543
  116OSM    H7G12204   1.286   3.622   9.523 -0.2345 -0.0512  1.4525
  116OSM    C8F12205   1.175   3.485   9.387  0.3931 -0.7527 -0.4835
  116OSM    H8F12206   1.203   3.541   9.295  0.2791  0.9027  0.4611
  116OSM    H8G12207   1.065   3.498   9.397  0.2799 -1.6076 -0.4715
  116OSM    C9F12208   1.177   3.336   9.356 -0.9433 -0.2513  0.5290
  116OSM    H9F12209   1.249   3.279   9.417  0.3694  3.0318  2.2795
  116OSM   C10F12210   1.121   3.278   9.246  0.0679 -0.1818  0.4278
  116OSM   H10F12211   1.138   3.170   9.235  0.0731 -0.0350 -1.1712
  116OSM   C11F12212   1.028   3.354   9.150 -0.1274 -0.2116  1.1073
  116OSM   H11F12213   1.044   3.464   9.158  0.7873 -0.2867  0.4661
  116OSM   H11G12214   0.924   3.351   9.188 -1.0516  0.5146 -1.1965
  116OSM   C12F12215   1.042   3.310   9.000  0.4681  0.0647  0.0360
  116OSM   H12F12216   1.149   3.305   8.974  1.0231  1.4836  1.8116
  116OSM   H12G12217   0.999   3.399   8.949  0.2071  1.0044  1.8133
  116OSM   C13F12218   0.967   3.183   8.951 -0.5699  0.1617  0.2328
  116OSM   H13F12219   0.860   3.197   8.976 -1.1631 -2.4489 -0.5306
  116OSM   H13G12220   1.015   3.093   8.995  0.3849  0.8677  0.6485
  116OSM   C14F12221   0.993   3.161   8.796 -0.0912  0.7308 -0.3337
  116OSM   H14F12222   1.102   3.139   8.793  0.2268  2.0361  0.4277
  116OSM   H14G12223   0.969   3.259   8.749 -1.6956  1.1344  1.2116
  116OSM   C15F12224   0.908   3.042   8.753  0.6383  0.3584  0.1850
  116OSM   H15F12225   0.801   3.071   8.764  0.2888 -1.0550  0.7114
  116OSM   H15G12226   0.937   2.948   8.805 -1.9196 -1.1459 -0.8978
  116OSM   C16F12227   0.928   3.023   8.603 -1.0327  0.2270 -0.0354
  116OSM   H16F12228   0.874   2.928   8.582  1.4381 -1.3734  0.3644
  116OSM   H16G12229   1.038   3.010   8.593 -0.0876  5.0699  1.5076
  116OSM   C17F12230   0.880   3.132   8.508  0.6842  0.3120  0.8345
  116OSM   H17F12231   0.896   3.231   8.554  0.2143  0.8302 -0.0915
  116OSM   H17G12232   0.770   3.120   8.504  0.7358 -0.4590  1.4199
  116OSM   C18F12233   0.947   3.123   8.364 -0.2131  0.5612  0.7739
  116OSM   H18F12234   0.905   3.034   8.313  0.1156  0.9212 -0.1451
  116OSM   H18G12235   1.057   3.116   8.375  0.2977 -0.9412 -3.4514
  116OSM   H18H12236   0.927   3.211   8.298  1.0997  0.2426 -0.0813
  117OSM      N12237   5.795   3.659  10.719 -0.4657  0.2606 -0.0884
  117OSM    C1512238   5.869   3.752  10.808 -0.8137 -0.5561  0.4663
  117OSM   H15A12239   5.882   3.714  10.909  0.8627  1.7149  1.1642
  117OSM   H15B12240   5.824   3.850  10.802  0.1939 -0.1820 -1.7347
  117OSM   H15C12241   5.969   3.767  10.772 -0.9067 -1.6780 -0.3216
  117OSM    C1412242   5.657   3.642  10.772  0.3648 -0.8115  0.4443
  117OSM   H14A12243   5.588   3.595  10.703  0.8683 -1.1645  0.1725
  117OSM   H14B12244   5.612   3.739  10.786  0.5955 -1.0325  3.3619
  117OSM   H14C12245   5.663   3.580  10.860  0.3393 -1.5301 -0.0503
  117OSM    C1312246   5.783   3.710  10.582 -0.7627 -0.1775 -0.0569
  117OSM   H13A12247   5.729   3.804  10.586 -0.0864  0.2085  0.3123
  117OSM   H13B12248   5.730   3.647  10.513 -4.2460 -1.6878  3.5860
  117OSM   H13C12249   5.876   3.738  10.536 -0.4015 -1.3884 -0.0830
  117OSM    C1212250   5.870   3.528  10.710 -0.1854 -0.2653 -0.3226
  117OSM   H12A12251   5.971   3.539  10.674  0.3330 -1.7461  0.5568
  117OSM   H12B12252   5.816   3.470  10.637  0.0590 -0.3222 -0.4582
  117OSM    C1112253   5.873   3.430  10.830 -0.3692 -0.0668 -0.1474
  117OSM   H11A12254   5.898   3.480  10.926 -0.9951 -1.3099  0.6895
  117OSM   H11B12255   5.951   3.353  10.815 -2.0225 -2.3318  1.9893
  117OSM      P12256   5.689   3.255  10.758  0.0291 -0.4841 -0.5899
  117OSM    O1312257   5.756   3.134  10.801 -0.2577 -0.4054 -0.0769
  117OSM    O1412258   5.542   3.249  10.778 -0.3846 -0.1153 -0.5206
  117OSM    O1112259   5.723   3.287  10.612 -0.3875  0.4073  0.9204
  117OSM    O1212260   5.745   3.372  10.844 -0.5589 -0.1019 -0.0614
  117OSM    C1S12261   5.621   3.279  10.508  0.6980 -0.0946  0.3211
  117OSM    H1S12262   5.540   3.351  10.533  0.6434 -1.3747  4.5280
  117OSM    H1T12263   5.561   3.185  10.507  1.7242 -0.7699  0.9896
  117OSM     NF12264   5.564   3.369  10.281 -0.5845 -0.1192 -0.2653
  117OSM    HNF12265   5.522   3.316  10.208 -1.7491  0.8309 -0.3152
  117OSM    C2S12266   5.673   3.313  10.361 -0.5007 -0.5746 -0.5591
  117OSM    H2S12267   5.750   3.392  10.375 -1.1607 -0.3343  2.3062
  117OSM    C3S12268   5.737   3.181  10.308  0.2827  0.7631  0.0781
  117OSM    H3S12269   5.662   3.100  10.318 -0.0872  1.2019  0.9866
  117OSM     O312270   5.847   3.141  10.389  0.0600  0.8546 -0.5873
  117OSM    HO312271   5.827   3.190  10.469 -0.9891 -0.6647  0.1369
  117OSM    C4S12272   5.796   3.211  10.167  0.8837 -0.2790 -0.1387
  117OSM    H4S12273   5.877   3.285  10.159 -0.0502  0.9230  1.0661
  117OSM    C5S12274   5.762   3.147  10.053 -0.1210  0.1431  0.0704
  117OSM    H5S12275   5.680   3.074  10.053 -1.5608  1.7112  0.4747
  117OSM    C6S12276   5.808   3.179   9.913  0.1012  0.1599  0.2600
  117OSM    H6S12277   5.851   3.095   9.855 -1.3421 -1.1625  1.0412
  117OSM    H6T12278   5.893   3.251   9.912  0.2329  0.0101  0.5334
  117OSM    C7S12279   5.691   3.228   9.828  0.0873  0.0872 -0.7508
  117OSM    H7S12280   5.642   3.324   9.855  0.7224  0.8558 -2.2270
  117OSM    H7T12281   5.618   3.144   9.827  0.1200 -0.0179  1.3090
  117OSM    C8S12282   5.750   3.259   9.685  1.0471 -0.1741 -0.2268
  117OSM    H8S12283   5.817   3.181   9.644  1.9071  0.4007  0.0576
  117OSM    H8T12284   5.815   3.349   9.697 -0.7966  0.9667  2.0301
  117OSM    C9S12285   5.647   3.276   9.572  0.5544 -0.2366 -0.1876
  117OSM    H9S12286   5.711   3.295   9.483  3.1689 -1.3675  1.2980
  117OSM    H9T12287   5.580   3.363   9.584 -0.0614 -0.6396 -0.6186
  117OSM   C10S12288   5.560   3.151   9.544  0.7651 -0.6085 -1.0183
  117OSM   H10S12289   5.509   3.120   9.638  1.8802  1.1571  0.2573
  117OSM   H10T12290   5.633   3.079   9.503  1.7370  0.5034 -1.3061
  117OSM   C11S12291   5.445   3.180   9.448 -0.3881 -0.1810  0.1247
  117OSM   H11S12292   5.492   3.223   9.357 -1.8483  1.2055 -0.0203
  117OSM   H11T12293   5.373   3.257   9.485  0.1688  0.7955 -0.7554
  117OSM   C12S12294   5.361   3.054   9.432 -0.0455  0.0470  0.1843
  117OSM   H12S12295   5.299   3.034   9.522  1.2676  0.6524  1.2553
  117OSM   H12T12296   5.427   2.968   9.410  2.9227  1.9225  1.2082
  117OSM   C13S12297   5.259   3.060   9.312  0.5576 -0.3962 -0.8460
  117OSM   H13S12298   5.294   3.086   9.210 -0.8686  1.9369 -0.8099
  117OSM   H13T12299   5.196   3.148   9.336  0.9221  0.2400 -2.1348
  117OSM   C14S12300   5.176   2.932   9.305  0.5991 -0.4634 -0.4591
  117OSM   H14S12301   5.129   2.918   9.404  0.2555  2.6119 -0.0827
  117OSM   H14T12302   5.245   2.852   9.269  1.6784  0.5219 -0.6466
  117OSM   C15S12303   5.042   2.939   9.219 -0.5769 -0.6335  0.0007
  117OSM   H15S12304   4.982   3.024   9.258  2.3383  1.6754 -0.2318
  117OSM   H15T12305   4.998   2.837   9.226 -1.1093 -0.4310 -0.3198
  117OSM   C16S12306   5.056   2.971   9.073 -0.4570  0.3517  0.2411
  117OSM   H16S12307   5.127   2.904   9.022 -0.1398  1.2667 -0.5443
  117OSM   H16T12308   5.090   3.075   9.054  0.2405 -0.1436 -1.3604
  117OSM   C17S12309   4.936   2.941   8.995  0.1832  0.9368  0.4476
  117OSM   H17S12310   4.944   2.979   8.891 -0.3884  0.3118  0.1653
  117OSM   H17T12311   4.839   2.987   9.024  0.6181  1.3340  1.3243
  117OSM   C18S12312   4.905   2.794   8.973  0.3806 -0.0230 -0.2023
  117OSM   H18S12313   4.984   2.719   8.996 -0.2190 -0.9021 -0.9094
  117OSM   H18T12314   4.861   2.773   8.873 -1.5662  1.3529  0.2915
  117OSM   H18U12315   4.819   2.776   9.041  1.6980  0.4237  1.6634
  117OSM    C1F12316   5.533   3.502  10.293 -0.1224 -0.0093  0.4611
  117OSM     OF12317   5.593   3.573  10.370  0.2895  0.0294  0.1872
  117OSM    C2F12318   5.425   3.557  10.210 -0.3321  0.5901  0.2257
  117OSM    H2F12319   5.390   3.653  10.253  0.3524  1.5479 -1.2714
  117OSM    H2G12320   5.346   3.479  10.203 -0.1936  0.5583 -1.3787
  117OSM    C3F12321   5.474   3.576  10.066 -0.9182 -0.2433 -0.0717
  117OSM    H3F12322   5.384   3.606  10.009 -2.8153 -0.7953  2.4766
  117OSM    H3G12323   5.514   3.478  10.030  1.6839  0.5341  0.4689
  117OSM    C4F12324   5.583   3.687  10.049 -0.1606  0.1118 -0.1678
  117OSM    H4F12325   5.665   3.667  10.122  0.7101 -1.2141 -1.4419
  117OSM    H4G12326   5.535   3.784  10.073 -0.2976 -0.0592  0.2596
  117OSM    C5F12327   5.651   3.688   9.913  0.4275 -0.2377  0.7662
  117OSM    H5F12328   5.726   3.606   9.914  0.9901  0.2804  1.1718
  117OSM    H5G12329   5.720   3.775   9.914 -2.0661  1.9069 -0.9424
  117OSM    C6F12330   5.564   3.667   9.789  0.3889 -0.2679  0.7541
  117OSM    H6F12331   5.470   3.724   9.804 -0.1018 -1.0556  0.6903
  117OSM    H6G12332   5.523   3.565   9.778 -1.5963  0.5659 -0.0312
  117OSM    C7F12333   5.625   3.707   9.649 -0.0646 -0.7987  0.0579
  117OSM    H7F12334   5.703   3.636   9.613  0.3675 -0.3660  0.1241
  117OSM    H7G12335   5.677   3.803   9.669 -0.9539 -0.5349  1.2244
  117OSM    C8F12336   5.516   3.723   9.541  0.3701 -0.3037  0.2007
  117OSM    H8F12337   5.437   3.794   9.575 -0.9545 -3.0748  3.5096
  117OSM    H8G12338   5.460   3.628   9.528 -0.0433 -0.0255 -0.0934
  117OSM    C9F12339   5.564   3.768   9.406  0.2989  0.0271  0.2952
  117OSM    H9F12340   5.611   3.868   9.396  1.2375 -0.5005 -0.7759
  117OSM   C10F12341   5.539   3.703   9.286 -0.4845  0.9381  0.3628
  117OSM   H10F12342   5.580   3.745   9.193 -3.5209 -0.3431 -1.7146
  117OSM   C11F12343   5.457   3.577   9.260 -0.2345 -0.3262 -0.2914
  117OSM   H11F12344   5.372   3.596   9.192 -1.2397 -2.4325  0.3035
  117OSM   H11G12345   5.401   3.554   9.353 -4.2229  2.9702 -1.5685
  117OSM   C12F12346   5.539   3.462   9.211  0.3402 -0.3785 -0.1183
  117OSM   H12F12347   5.476   3.371   9.219 -2.3155  1.5154  2.2947
  117OSM   H12G12348   5.616   3.436   9.287 -1.7643 -2.9862  1.2908
  117OSM   C13F12349   5.584   3.489   9.069  0.6797  0.5311  0.7351
  117OSM   H13F12350   5.648   3.579   9.065  0.6613  0.5688  1.2228
  117OSM   H13G12351   5.497   3.511   9.004 -0.3711 -0.9524  1.5631
  117OSM   C14F12352   5.663   3.371   9.007  0.2617  0.0298 -0.7743
  117OSM   H14F12353   5.625   3.268   9.022  1.2336 -0.6171 -2.5224
  117OSM   H14G12354   5.765   3.360   9.050  1.4342 -0.3912 -3.4660
  117OSM   C15F12355   5.673   3.377   8.857 -0.3646 -0.5692 -0.0038
  117OSM   H15F12356   5.745   3.305   8.812  1.1783  1.1563 -0.4328
  117OSM   H15G12357   5.701   3.480   8.826  1.5001 -1.1900 -0.5199
  117OSM   C16F12358   5.539   3.345   8.789  0.4853 -0.6739 -0.5946
  117OSM   H16F12359   5.460   3.418   8.817 -0.2151 -1.3763 -0.7028
  117OSM   H16G12360   5.509   3.247   8.829  0.8021  0.3859  2.4576
  117OSM   C17F12361   5.559   3.346   8.638  0.4011  0.2566  0.4471
  117OSM   H17F12362   5.459   3.321   8.596  1.5455 -2.9702 -0.6614
  117OSM   H17G12363   5.636   3.270   8.616  0.8071  0.4774  1.0880
  117OSM   C18F12364   5.608   3.479   8.576 -0.1563  0.3515 -0.2655
  117OSM   H18F12365   5.714   3.502   8.598 -0.4236 -0.1490  1.7641
  117OSM   H18G12366   5.549   3.560   8.624 -0.1336  0.1526  0.0980
  117OSM   H18H12367   5.594   3.488   8.466 -0.6061 -0.1263 -0.2536
  118OSM      N12368   6.017   4.906  11.012  0.0859  0.5973 -0.1911
  118OSM    C1512369   5.883   4.911  11.083 -0.0343 -0.3317  1.2135
  118OSM   H15A12370   5.847   5.013  11.086 -1.4074 -0.8167  1.9787
  118OSM   H15B12371   5.885   4.869  11.182  0.6516  2.1673  2.3521
  118OSM   H15C12372   5.810   4.856  11.026 -0.9477 -0.1544  2.1919
  118OSM    C1412373   6.115   5.009  11.049 -1.0830  0.3867 -0.0133
  118OSM   H14A12374   6.134   5.015  11.155  0.0705 -1.3058 -0.0811
  118OSM   H14B12375   6.068   5.100  11.015 -0.8056  0.4259 -0.3013
  118OSM   H14C12376   6.207   5.001  10.993 -0.7730 -0.2612  0.5847
  118OSM    C1312377   6.075   4.771  11.032  0.2446 -0.2717  0.4015
  118OSM   H13A12378   6.175   4.753  10.995  0.5312 -1.9401  1.8671
  118OSM   H13B12379   6.008   4.692  11.000  0.1870  0.3004 -0.9478
  118OSM   H13C12380   6.084   4.754  11.139  1.8864  1.3611  0.5669
  118OSM    C1212381   5.979   4.922  10.866 -0.0971 -0.4488 -1.0344
  118OSM   H12A12382   5.927   4.833  10.834 -0.7249 -0.4646 -0.0135
  118OSM   H12B12383   6.070   4.931  10.809  1.2265 -0.9694  0.8889
  118OSM    C1112384   5.887   5.037  10.826  0.7721 -0.2201 -0.1418
  118OSM   H11A12385   5.783   5.010  10.852 -0.1274  2.5908 -0.4714
  118OSM   H11B12386   5.883   5.043  10.715 -1.5777  0.7230 -0.0648
  118OSM      P12387   5.825   5.279  10.925  0.1273 -0.0184 -0.3222
  118OSM    O1312388   5.747   5.226  11.040  0.0828 -0.0651 -0.3955
  118OSM    O1412389   5.899   5.403  10.953  0.8028  0.3057 -0.0698
  118OSM    O1112390   5.730   5.292  10.802 -0.4311  0.0307  0.2005
  118OSM    O1212391   5.916   5.158  10.884 -0.5454  0.0235  0.5591
  118OSM    C1S12392   5.737   5.393  10.703 -0.4511 -0.4973 -0.0810
  118OSM    H1S12393   5.811   5.471  10.732  0.1568 -0.8422 -0.6696
  118OSM    H1T12394   5.637   5.439  10.690 -0.5881 -0.8340 -0.2057
  118OSM     NF12395   5.809   5.464  10.477  0.3505 -0.0833 -0.6817
  118OSM    HNF12396   5.740   5.470  10.404  0.7639  1.2802 -0.9843
  118OSM    C2S12397   5.786   5.347  10.563 -0.3321  0.0186 -0.2766
  118OSM    H2S12398   5.884   5.297  10.577 -0.6701 -0.2108  1.6117
  118OSM    C3S12399   5.671   5.258  10.503  0.1128  0.7012 -0.3487
  118OSM    H3S12400   5.580   5.322  10.489 -0.7704 -0.6211 -0.8267
  118OSM     O312401   5.630   5.154  10.586 -0.2379  0.6108  0.7299
  118OSM    HO312402   5.659   5.179  10.674  1.6868 -0.1069  0.3561
  118OSM    C4S12403   5.714   5.212  10.368 -0.2209  0.0967  0.5337
  118OSM    H4S12404   5.668   5.273  10.289 -0.0860  0.6161  0.8504
  118OSM    C5S12405   5.789   5.113  10.322  0.2927  0.4253 -0.3116
  118OSM    H5S12406   5.814   5.037  10.398  0.0273 -0.0651 -0.7068
  118OSM    C6S12407   5.814   5.071  10.184 -0.2220  1.0822  0.0114
  118OSM    H6S12408   5.826   4.961  10.170  0.7481  0.9138  1.8706
  118OSM    H6T12409   5.913   5.107  10.149 -0.9026  1.0453 -2.1190
  118OSM    C7S12410   5.711   5.111  10.077  0.5668  0.6648 -0.3753
  118OSM    H7S12411   5.705   5.222  10.072 -1.5250  0.8435  3.0170
  118OSM    H7T12412   5.610   5.072  10.102  0.9736 -0.3361 -0.2360
  118OSM    C8S12413   5.744   5.056   9.938 -0.2474  0.4155  0.3255
  118OSM    H8S12414   5.761   4.946   9.946  2.0035  0.3631 -3.3040
  118OSM    H8T12415   5.849   5.090   9.924  0.2752 -1.2860 -0.1268
  118OSM    C9S12416   5.646   5.084   9.822 -0.2464  0.0606  0.3686
  118OSM    H9S12417   5.639   5.194   9.804  0.9917  0.4817  2.2091
  118OSM    H9T12418   5.548   5.046   9.856 -2.9608  2.0774 -4.2904
  118OSM   C10S12419   5.692   5.036   9.682  0.0696  0.3083  0.2657
  118OSM   H10S12420   5.710   4.926   9.687  1.5793  0.3996 -1.9583
  118OSM   H10T12421   5.787   5.082   9.650  0.7210 -2.1537 -1.5752
  118OSM   C11S12422   5.592   5.071   9.570  0.5919  0.2767 -0.3978
  118OSM   H11S12423   5.582   5.180   9.556  1.2647  0.1561 -2.0780
  118OSM   H11T12424   5.494   5.028   9.597  0.0421  0.6191 -1.7775
  118OSM   C12S12425   5.626   5.021   9.426  0.3713 -0.8477 -0.2140
  118OSM   H12S12426   5.529   5.018   9.373  0.8742  0.9561 -1.3028
  118OSM   H12T12427   5.670   4.919   9.435 -0.8925 -1.5236 -1.3717
  118OSM   C13S12428   5.721   5.112   9.346  0.0264 -0.7712  0.3058
  118OSM   H13S12429   5.827   5.089   9.370  0.7698  0.6820 -1.2753
  118OSM   H13T12430   5.700   5.220   9.361  0.4258 -0.8451  1.4454
  118OSM   C14S12431   5.701   5.071   9.195 -0.9702 -0.0071  0.0952
  118OSM   H14S12432   5.716   4.963   9.176 -0.0567  0.0996  0.1638
  118OSM   H14T12433   5.782   5.122   9.138 -0.8457  1.3569  1.4149
  118OSM   C15S12434   5.567   5.124   9.129  0.1498  0.5295 -0.4762
  118OSM   H15S12435   5.565   5.235   9.134 -1.7069  0.4599  2.4093
  118OSM   H15T12436   5.475   5.097   9.185  1.1716  1.1465  1.6169
  118OSM   C16S12437   5.566   5.080   8.981  0.0272 -0.1688  0.5582
  118OSM   H16S12438   5.564   4.969   8.987  0.8909 -0.2813 -0.6962
  118OSM   H16T12439   5.663   5.110   8.935  0.0788  0.5468  1.1241
  118OSM   C17S12440   5.468   5.138   8.884  0.6536 -0.8671  0.3114
  118OSM   H17S12441   5.362   5.115   8.912  1.1670 -0.9943  2.3147
  118OSM   H17T12442   5.493   5.082   8.791 -0.9889 -1.1356 -0.0149
  118OSM   C18S12443   5.469   5.286   8.858 -0.1981 -0.2062  0.6826
  118OSM   H18S12444   5.428   5.298   8.756  3.1177 -0.4842 -0.8211
  118OSM   H18T12445   5.578   5.311   8.860 -0.5136  1.5120 -1.1091
  118OSM   H18U12446   5.418   5.345   8.937 -0.1048 -1.0291  1.3787
  118OSM    C1F12447   5.902   5.557  10.491 -0.2934  0.7844 -0.6214
  118OSM     OF12448   6.004   5.537  10.563  0.5535 -0.8448  0.0122
  118OSM    C2F12449   5.870   5.693  10.429 -0.5245  0.1326  0.1562
  118OSM    H2F12450   5.815   5.747  10.509 -0.3206  1.6671 -0.7040
  118OSM    H2G12451   5.799   5.672  10.345  0.7761 -2.8850 -0.3290
  118OSM    C3F12452   5.985   5.772  10.369 -0.6530  0.1147  0.3547
  118OSM    H3F12453   6.027   5.703  10.293  0.7372  1.6878 -0.3678
  118OSM    H3G12454   6.062   5.784  10.448 -1.2666  0.3744  0.9199
  118OSM    C4F12455   5.929   5.896  10.306 -0.0587  0.8100  0.3965
  118OSM    H4F12456   5.900   5.966  10.387 -2.8618  1.0357 -0.6814
  118OSM    H4G12457   5.838   5.879  10.245  0.9715 -1.5933 -0.6169
  118OSM    C5F12458   6.028   5.960  10.216  0.0776  0.1678  1.0025
  118OSM    H5F12459   6.118   5.997  10.269  1.0635  0.3877 -0.7637
  118OSM    H5G12460   5.975   6.050  10.179  1.0173 -0.7473 -3.0996
  118OSM    C6F12461   6.059   5.876  10.092  0.0050  0.1539  0.1774
  118OSM    H6F12462   5.962   5.845  10.047 -0.6218 -1.6135  2.5375
  118OSM    H6G12463   6.104   5.781  10.128  1.6490  0.4515 -0.9715
  118OSM    C7F12464   6.150   5.951  10.001 -0.0005 -0.5488 -0.2335
  118OSM    H7F12465   6.228   5.995  10.067 -0.4388 -0.8989  0.5297
  118OSM    H7G12466   6.097   6.019   9.931  0.4294 -0.0410 -0.0737
  118OSM    C8F12467   6.215   5.864   9.891  0.0333 -0.2406 -1.0152
  118OSM    H8F12468   6.271   5.776   9.932 -1.2189 -0.3433  0.5917
  118OSM    H8G12469   6.291   5.922   9.835  0.8022  1.1189  1.3106
  118OSM    C9F12470   6.102   5.795   9.810 -0.2222  0.7125  0.0616
  118OSM    H9F12471   6.060   5.711   9.867  0.4642  1.3004  1.4751
  118OSM   C10F12472   6.040   5.845   9.697  0.4328 -0.3500  0.1342
  118OSM   H10F12473   5.967   5.774   9.655 -0.6178 -0.9804  2.7986
  118OSM   C11F12474   6.072   5.962   9.612 -1.1644 -0.6844 -0.2284
  118OSM   H11F12475   6.147   6.023   9.668 -1.0750 -1.0635  0.0711
  118OSM   H11G12476   5.977   6.020   9.617 -1.8615 -1.8595  1.2190
  118OSM   C12F12477   6.114   5.938   9.469  0.4045  0.2512 -0.6764
  118OSM   H12F12478   6.185   5.854   9.457  0.6457  0.1357  1.2964
  118OSM   H12G12479   6.161   6.031   9.430 -1.2049  1.3872 -0.0055
  118OSM   C13F12480   5.991   5.932   9.379  0.6029  0.2347 -0.6887
  118OSM   H13F12481   5.947   6.034   9.371  0.3324  0.3054  1.1750
  118OSM   H13G12482   5.915   5.861   9.419  0.7227  1.3456  1.6787
  118OSM   C14F12483   6.038   5.890   9.238 -0.5821  0.4832  1.0607
  118OSM   H14F12484   6.076   5.787   9.257  0.2736  0.3376 -1.1037
  118OSM   H14G12485   6.123   5.956   9.211 -0.7785  0.5674  0.6390
  118OSM   C15F12486   5.936   5.913   9.119 -0.5262  0.4491 -0.5996
  118OSM   H15F12487   5.898   6.017   9.127  1.8996  1.4633 -1.1198
  118OSM   H15G12488   5.848   5.849   9.139  0.4707 -0.5051  1.0210
  118OSM   C16F12489   5.995   5.881   8.985 -0.2117  0.2746 -0.8311
  118OSM   H16F12490   6.059   5.790   8.988 -0.9796 -0.2687  0.1678
  118OSM   H16G12491   6.059   5.964   8.951  1.9249 -0.9809 -0.0735
  118OSM   C17F12492   5.881   5.852   8.891  0.2117  0.2487  0.2402
  118OSM   H17F12493   5.824   5.759   8.916 -1.1081  1.6459  2.7543
  118OSM   H17G12494   5.929   5.838   8.791  0.3639  0.1913  0.3214
  118OSM   C18F12495   5.786   5.970   8.883  0.1446 -0.5049 -0.1603
  118OSM   H18F12496   5.849   6.062   8.875  0.1636 -0.5761 -0.9297
  118OSM   H18G12497   5.732   5.966   8.980  0.4058 -0.7781 -0.0237
  118OSM   H18H12498   5.724   5.961   8.791 -0.8355  2.4558  0.0842
  119OSM      N12499   6.779   5.644  11.270  0.5568 -0.1547  0.0109
  119OSM    C1512500   6.885   5.745  11.296 -0.2947 -0.6952  0.1712
  119OSM   H15A12501   6.958   5.751  11.217  0.4820  1.1110  0.9682
  119OSM   H15B12502   6.941   5.724  11.386  1.1424  0.1570 -0.4799
  119OSM   H15C12503   6.842   5.843  11.309  0.7361 -0.3443  1.0849
  119OSM    C1412504   6.837   5.506  11.267 -0.4647  0.3207  0.0250
  119OSM   H14A12505   6.908   5.477  11.190  2.5307  0.3134  2.5882
  119OSM   H14B12506   6.765   5.427  11.281 -1.1639  1.0181  0.4554
  119OSM   H14C12507   6.898   5.495  11.355  0.3429 -1.7218 -0.7270
  119OSM    C1312508   6.669   5.673  11.368 -0.3917  0.3194  0.0740
  119OSM   H13A12509   6.706   5.673  11.470 -1.4251  1.3299  0.4703
  119OSM   H13B12510   6.600   5.591  11.359 -1.2361  0.8996  1.1040
  119OSM   H13C12511   6.614   5.765  11.354 -0.1723  0.5380  0.5865
  119OSM    C1212512   6.714   5.665  11.134 -0.1658 -0.0340  0.5256
  119OSM   H12A12513   6.687   5.769  11.128  1.2693  0.2888 -1.4409
  119OSM   H12B12514   6.630   5.598  11.122 -0.3553  0.1503  0.8147
  119OSM    C1112515   6.805   5.641  11.014  0.7403 -0.2965  0.2723
  119OSM   H11A12516   6.750   5.664  10.920  2.9052  1.3627 -0.6636
  119OSM   H11B12517   6.833   5.534  11.005 -0.8966 -0.6064 -1.9365
  119OSM      P12518   7.054   5.656  10.969 -0.1677 -0.2924  0.5553
  119OSM    O1312519   7.169   5.748  10.986 -0.0191 -0.8974  0.0545
  119OSM    O1412520   7.068   5.525  11.037 -0.1602 -0.0187  0.6754
  119OSM    O1112521   7.031   5.627  10.819 -0.0370  0.1779  0.0080
  119OSM    O1212522   6.927   5.724  11.024  0.5085  0.3990  0.5575
  119OSM    C1S12523   7.025   5.744  10.732 -0.4768 -0.2412  0.0730
  119OSM    H1S12524   7.125   5.792  10.733  0.2387 -1.6613  1.7945
  119OSM    H1T12525   6.953   5.825  10.757  0.2423  0.2698  0.5484
  119OSM     NF12526   7.024   5.809  10.487 -0.0277 -0.0897 -0.0318
  119OSM    HNF12527   6.940   5.855  10.458  0.4175  1.4887  1.0146
  119OSM    C2S12528   6.998   5.702  10.587  0.5161 -0.1067 -0.7364
  119OSM    H2S12529   7.065   5.617  10.559 -0.9852 -1.0504 -1.6181
  119OSM    C3S12530   6.854   5.637  10.586  1.2070 -0.8300  0.5396
  119OSM    H3S12531   6.785   5.719  10.616  1.5738 -0.8057  1.3452
  119OSM     O312532   6.841   5.529  10.676 -0.2845 -0.0630 -0.9000
  119OSM    HO312533   6.917   5.538  10.733 -1.1218  1.1960  0.0784
  119OSM    C4S12534   6.820   5.578  10.455  0.4475  0.0876  0.7758
  119OSM    H4S12535   6.884   5.495  10.421 -0.0100  0.3153 -0.6704
  119OSM    C5S12536   6.721   5.625  10.371  0.0656  0.3626 -0.2202
  119OSM    H5S12537   6.654   5.696  10.422 -0.4212 -1.2814  1.5528
  119OSM    C6S12538   6.672   5.577  10.237  0.3920 -0.2346  0.4927
  119OSM    H6S12539   6.658   5.670  10.177  1.2705 -0.0493  0.5573
  119OSM    H6T12540   6.572   5.536  10.261  0.1229  1.1395  1.9068
  119OSM    C7S12541   6.742   5.463  10.161  0.4158  0.1425 -0.4561
  119OSM    H7S12542   6.762   5.387  10.239 -0.7238 -0.5676 -0.8248
  119OSM    H7T12543   6.840   5.499  10.124  2.0622 -0.4446  2.9872
  119OSM    C8S12544   6.669   5.414  10.036  0.5349 -0.0875  0.3107
  119OSM    H8S12545   6.576   5.361  10.065  0.1318 -0.5496 -1.6761
  119OSM    H8T12546   6.738   5.340   9.991  2.3807  2.4123 -1.2157
  119OSM    C9S12547   6.630   5.524   9.942 -0.0863  0.2222  0.9456
  119OSM    H9S12548   6.717   5.583   9.905 -0.1604  0.5374  1.2637
  119OSM    H9T12549   6.557   5.592   9.993 -1.0879  1.0930 -1.4719
  119OSM   C10S12550   6.566   5.474   9.804  0.1973 -0.4141 -0.1148
  119OSM   H10S12551   6.462   5.442   9.826  0.0891  0.6694  1.0158
  119OSM   H10T12552   6.624   5.381   9.786  0.3409 -0.4381  0.4518
  119OSM   C11S12553   6.590   5.571   9.687 -0.0721 -0.3502  0.1532
  119OSM   H11S12554   6.699   5.586   9.670  0.3856 -0.1795  2.8588
  119OSM   H11T12555   6.547   5.673   9.697  0.3275 -0.2471  0.9480
  119OSM   C12S12556   6.538   5.513   9.550  0.4507  0.1595  0.2163
  119OSM   H12S12557   6.601   5.431   9.509 -0.1319  1.1904 -3.0607
  119OSM   H12T12558   6.547   5.597   9.478 -0.5550  0.2941  0.2278
  119OSM   C13S12559   6.392   5.477   9.558  0.4775  0.4821  0.2677
  119OSM   H13S12560   6.335   5.563   9.599  3.9973  3.0959  0.1263
  119OSM   H13T12561   6.377   5.388   9.623 -1.9455 -1.0860 -2.2393
  119OSM   C14S12562   6.335   5.451   9.413 -0.6431  0.6936 -0.1718
  119OSM   H14S12563   6.387   5.369   9.360 -1.8995  0.0516 -0.4432
  119OSM   H14T12564   6.357   5.551   9.368 -1.5863  0.4139 -1.3004
  119OSM   C15S12565   6.190   5.421   9.417  0.3733  0.2918 -0.5530
  119OSM   H15S12566   6.130   5.494   9.475 -2.7983  0.0061 -3.1725
  119OSM   H15T12567   6.168   5.322   9.463 -0.3713  0.5916 -0.2358
  119OSM   C16S12568   6.115   5.438   9.281 -0.1568  0.3804  0.4640
  119OSM   H16S12569   6.143   5.354   9.213 -0.8338  0.8186 -0.3844
  119OSM   H16T12570   6.152   5.529   9.227 -2.1602 -1.2980 -4.2924
  119OSM   C17S12571   5.965   5.451   9.303 -0.3175 -0.2141  0.5517
  119OSM   H17S12572   5.934   5.550   9.341  1.1705 -0.0955  1.5488
  119OSM   H17T12573   5.929   5.367   9.367 -0.4304 -0.5193  0.0969
  119OSM   C18S12574   5.893   5.425   9.168 -0.2471 -0.1551 -0.7750
  119OSM   H18S12575   5.932   5.480   9.080 -1.5515 -0.3716 -1.5111
  119OSM   H18T12576   5.783   5.432   9.182 -0.1108  0.5887  0.0005
  119OSM   H18U12577   5.915   5.321   9.134 -0.3544  0.7138 -3.7446
  119OSM    C1F12578   7.142   5.858  10.465  0.5677  0.8073  0.2905
  119OSM     OF12579   7.245   5.801  10.508  0.4369 -0.4497 -0.0159
  119OSM    C2F12580   7.148   5.992  10.395 -0.2946 -0.0844 -0.2267
  119OSM    H2F12581   7.247   6.038  10.418 -1.2026  0.9734  1.8680
  119OSM    H2G12582   7.075   6.060  10.445 -1.0098 -0.2668 -1.0049
  119OSM    C3F12583   7.127   5.969  10.242  0.1005 -0.7749 -0.3546
  119OSM    H3F12584   7.027   5.923  10.225 -0.1553 -0.1849 -0.4815
  119OSM    H3G12585   7.208   5.896  10.224  0.8621 -0.3779  1.2393
  119OSM    C4F12586   7.135   6.091  10.147  0.0360 -0.4341 -0.3980
  119OSM    H4F12587   7.217   6.159  10.177 -1.2212  2.1440 -2.3309
  119OSM    H4G12588   7.047   6.159  10.140 -0.3977 -1.0510 -1.1322
  119OSM    C5F12589   7.148   6.038  10.003  0.3782  1.0651  0.5102
  119OSM    H5F12590   7.075   5.957   9.982 -1.1148  2.4571  0.0873
  119OSM    H5G12591   7.247   5.988   9.991  0.0487 -0.4851  3.3390
  119OSM    C6F12592   7.123   6.146   9.900 -0.1023 -0.1592  0.5383
  119OSM    H6F12593   7.181   6.239   9.922 -1.7222  1.1470 -0.4771
  119OSM    H6G12594   7.015   6.169   9.891  0.1161  0.8719  0.3670
  119OSM    C7F12595   7.179   6.115   9.759 -0.2050 -0.3337 -0.2710
  119OSM    H7F12596   7.142   6.013   9.735 -2.4515  0.5076 -0.6172
  119OSM    H7G12597   7.290   6.108   9.758 -0.2385 -0.7714 -1.3582
  119OSM    C8F12598   7.132   6.216   9.648  0.0735  0.0396  0.6509
  119OSM    H8F12599   7.021   6.214   9.644  0.1226 -1.3576 -2.2439
  119OSM    H8G12600   7.160   6.172   9.550 -1.3517 -0.8307  0.6119
  119OSM    C9F12601   7.201   6.352   9.660  0.1658  0.7946 -0.5613
  119OSM    H9F12602   7.148   6.426   9.722 -1.3729 -1.0918  0.4883
  119OSM   C10F12603   7.321   6.386   9.601 -0.5101 -0.6722  0.2039
  119OSM   H10F12604   7.366   6.483   9.625 -0.8949 -0.3397 -0.3882
  119OSM   C11F12605   7.406   6.293   9.519  0.7059  0.1356  0.9658
  119OSM   H11F12606   7.373   6.186   9.514 -0.5166  0.4835  1.2025
  119OSM   H11G12607   7.506   6.295   9.567  1.1016  2.4039  0.1302
  119OSM   C12F12608   7.441   6.341   9.368 -0.5249  0.0331  0.1163
  119OSM   H12F12609   7.523   6.279   9.326  0.2175  0.4206  0.9658
  119OSM   H12G12610   7.476   6.446   9.369 -3.9506  1.3578 -2.0440
  119OSM   C13F12611   7.319   6.349   9.265 -0.5918  0.6477  0.5453
  119OSM   H13F12612   7.257   6.437   9.293 -1.0692  0.6534 -0.4933
  119OSM   H13G12613   7.250   6.262   9.269  0.5457 -0.3431 -0.7260
  119OSM   C14F12614   7.370   6.369   9.118 -0.1400 -0.2288  0.9550
  119OSM   H14F12615   7.429   6.278   9.092 -2.2290 -1.3635 -0.0518
  119OSM   H14G12616   7.450   6.446   9.112  0.4964 -0.9164  0.3755
  119OSM   C15F12617   7.254   6.377   9.018 -0.1059 -0.6110 -1.0334
  119OSM   H15F12618   7.161   6.417   9.064 -0.1097 -0.2071 -1.3937
  119OSM   H15G12619   7.228   6.270   9.000  0.8761 -0.9646 -0.4540
  119OSM   C16F12620   7.303   6.449   8.891  0.4203 -0.0413  0.2036
  119OSM   H16F12621   7.369   6.371   8.847 -0.6713 -0.3873 -0.8860
  119OSM   H16G12622   7.360   6.541   8.917 -1.4142  0.9387  1.0076
  119OSM   C17F12623   7.188   6.484   8.795 -0.8216 -0.3769 -1.0193
  119OSM   H17F12624   7.223   6.548   8.711  2.5955  1.3565  1.4480
  119OSM   H17G12625   7.113   6.539   8.856  0.4837  0.3990 -0.0503
  119OSM   C18F12626   7.116   6.364   8.730 -0.0619  0.0168 -0.2537
  119OSM   H18F12627   7.037   6.404   8.662  0.5105 -0.5141 -1.2585
  119OSM   H18G12628   7.071   6.302   8.810 -1.6673  3.3627  1.6185
  119OSM   H18H12629   7.189   6.310   8.666 -0.5465 -0.7493 -0.1761
  120OSM      N12630   5.443   1.306  10.699  0.3924 -0.4702 -0.0048
  120OSM    C1512631   5.588   1.278  10.682  0.6077 -0.5844 -0.3233
  120OSM   H15A12632   5.611   1.276  10.576  1.0309 -1.9797 -0.2295
  120OSM   H15B12633   5.624   1.183  10.719 -0.3674 -1.1852 -0.8835
  120OSM   H15C12634   5.638   1.359  10.733 -3.8576  0.3009  3.2522
  120OSM    C1412635   5.401   1.312  10.843 -1.1133 -0.2114  0.3851
  120OSM   H14A12636   5.295   1.329  10.851 -1.5462 -2.9181  1.2428
  120OSM   H14B12637   5.450   1.391  10.897  0.0951 -1.5046  1.2593
  120OSM   H14C12638   5.431   1.218  10.888 -1.4754 -0.7920 -0.5441
  120OSM    C1312639   5.433   1.447  10.637 -0.0830  0.1734 -0.3831
  120OSM   H13A12640   5.335   1.464  10.596 -0.3300  0.3500  0.2621
  120OSM   H13B12641   5.515   1.455  10.567  0.9846 -0.0940  0.8039
  120OSM   H13C12642   5.463   1.520  10.712 -0.0979 -0.7601  0.5541
  120OSM    C1212643   5.359   1.207  10.614 -0.1603  0.5754 -0.1380
  120OSM   H12A12644   5.252   1.220  10.619 -0.6215 -2.4226 -0.3379
  120OSM   H12B12645   5.358   1.106  10.654  1.6760  0.6023  0.0325
  120OSM    C1112646   5.390   1.189  10.467 -1.3071  0.6587  0.8098
  120OSM   H11A12647   5.398   1.287  10.416  1.3339  1.2434  2.1687
  120OSM   H11B12648   5.315   1.119  10.424 -1.6732 -0.4118  3.0400
  120OSM      P12649   5.540   0.980  10.475  0.0185  0.1674 -0.2728
  120OSM    O1312650   5.684   0.951  10.444  0.4212 -0.1409 -0.1281
  120OSM    O1412651   5.495   0.949  10.607 -0.8931  0.6777  0.1690
  120OSM    O1112652   5.440   0.927  10.372 -0.0511  0.8192  0.5562
  120OSM    O1212653   5.522   1.129  10.456 -0.0154 -0.1531  0.1639
  120OSM    C1S12654   5.454   0.944  10.229 -0.8604  0.4889  0.0076
  120OSM    H1S12655   5.553   0.904  10.200 -1.3042 -2.0798  1.6137
  120OSM    H1T12656   5.449   1.052  10.204  0.5982  0.3960 -0.7500
  120OSM     NF12657   5.363   0.904   9.999 -0.0917 -0.3054  0.2041
  120OSM    HNF12658   5.289   0.950   9.950 -0.2006 -0.1278  0.5356
  120OSM    C2S12659   5.339   0.880  10.140  0.3102 -0.1294 -0.6149
  120OSM    H2S12660   5.356   0.770  10.146  0.6603 -0.1005 -1.0121
  120OSM    C3S12661   5.196   0.920  10.191  0.0866 -0.3643  0.4739
  120OSM    H3S12662   5.195   1.031  10.194 -0.9424 -0.3394 -0.1587
  120OSM     O312663   5.164   0.877  10.327 -0.0679 -0.0956  0.7517
  120OSM    HO312664   5.251   0.856  10.362 -1.0664 -1.7366  2.4419
  120OSM    C4S12665   5.090   0.868  10.085 -0.4021  0.4861  0.0513
  120OSM    H4S12666   5.044   0.951  10.029  0.3426  1.0731  0.2784
  120OSM    C5S12667   5.023   0.751  10.076  0.8131 -0.1891 -0.1226
  120OSM    H5S12668   5.040   0.690  10.166  2.5248  0.2403 -0.1174
  120OSM    C6S12669   4.922   0.704   9.981 -0.4733  0.1751 -0.2393
  120OSM    H6S12670   4.834   0.772   9.985  0.2208  1.1447 -0.8690
  120OSM    H6T12671   4.880   0.608  10.018 -0.2952  0.3428  0.4019
  120OSM    C7S12672   4.970   0.707   9.834  0.2512  0.9540  0.0749
  120OSM    H7S12673   4.973   0.814   9.807 -0.1163  0.6249 -1.3187
  120OSM    H7T12674   4.894   0.654   9.773  1.4210 -0.5586 -0.1308
  120OSM    C8S12675   5.110   0.650   9.802  0.1310  0.1551  0.8262
  120OSM    H8S12676   5.116   0.544   9.837 -1.2381 -0.5340 -0.8727
  120OSM    H8T12677   5.188   0.707   9.857 -0.3802  0.5967  1.1098
  120OSM    C9S12678   5.128   0.666   9.654  0.5630  0.0622  0.4044
  120OSM    H9S12679   5.145   0.775   9.638  1.2496  0.3377  2.7045
  120OSM    H9T12680   5.043   0.633   9.590  1.1917  1.7868 -1.4517
  120OSM   C10S12681   5.259   0.607   9.598 -0.1804 -0.9099 -0.5701
  120OSM   H10S12682   5.258   0.497   9.610  1.0939 -0.9262 -0.4873
  120OSM   H10T12683   5.339   0.653   9.660 -2.8307  2.7198  0.4939
  120OSM   C11S12684   5.296   0.645   9.457 -0.3742  0.1979  0.2387
  120OSM   H11S12685   5.397   0.604   9.438 -0.4514 -0.0898  0.4465
  120OSM   H11T12686   5.315   0.755   9.453  0.9260 -0.0373 -1.1082
  120OSM   C12S12687   5.200   0.600   9.352  0.3811 -0.8779 -0.0750
  120OSM   H12S12688   5.243   0.632   9.255 -0.0271 -1.4149 -0.4422
  120OSM   H12T12689   5.109   0.663   9.367  0.5245 -0.9507  1.2222
  120OSM   C13S12690   5.164   0.454   9.348  0.7018 -0.1903  0.1607
  120OSM   H13S12691   5.120   0.418   9.443 -0.6050  0.7346 -0.0643
  120OSM   H13T12692   5.252   0.387   9.337 -0.7607 -2.0645 -0.5326
  120OSM   C14S12693   5.058   0.449   9.235  0.2184  0.7658  0.1422
  120OSM   H14S12694   5.096   0.496   9.142 -1.6730 -1.3821 -1.8292
  120OSM   H14T12695   4.964   0.499   9.268 -0.4949 -0.2280 -0.3257
  120OSM   C15S12696   5.012   0.306   9.216 -0.3073 -0.5797 -0.2916
  120OSM   H15S12697   4.972   0.272   9.314 -3.0553  1.7755 -0.4710
  120OSM   H15T12698   5.096   0.243   9.181  2.2621  2.3857  0.0835
  120OSM   C16S12699   4.888   0.295   9.125  0.1927  0.6106 -0.1215
  120OSM   H16S12700   4.912   0.340   9.027 -1.5558  0.3476 -0.7053
  120OSM   H16T12701   4.803   0.358   9.159 -1.3469 -0.1399 -2.3236
  120OSM   C17S12702   4.831   0.157   9.123 -0.7797  0.3114  0.2369
  120OSM   H17S12703   4.731   0.155   9.075 -1.3953 -1.0323  1.4925
  120OSM   H17T12704   4.817   0.120   9.227 -1.1259  1.3459  0.5724
  120OSM   C18S12705   4.915   0.053   9.055 -0.3760  1.0370  0.1504
  120OSM   H18S12706   4.946   0.074   8.951  1.8331 -1.7963  0.1224
  120OSM   H18T12707   4.860  -0.043   9.053  0.7194  0.4022 -0.0872
  120OSM   H18U12708   5.007   0.024   9.110 -0.2993  1.1783  0.0987
  120OSM    C1F12709   5.470   0.860   9.930 -0.3054  0.1744  0.5033
  120OSM     OF12710   5.558   0.782   9.967 -0.4436  0.1502  0.1227
  120OSM    C2F12711   5.472   0.912   9.791  0.4517  0.1391  0.3922
  120OSM    H2F12712   5.445   1.019   9.798 -0.6616 -0.1650  1.1722
  120OSM    H2G12713   5.394   0.879   9.719 -0.2698  1.1073  0.7073
  120OSM    C3F12714   5.609   0.887   9.717 -0.2924 -0.2603 -0.2369
  120OSM    H3F12715   5.636   0.780   9.727 -1.0600 -0.2820  2.3198
  120OSM    H3G12716   5.695   0.943   9.760 -0.8208 -0.1282  0.6861
  120OSM    C4F12717   5.593   0.912   9.568 -0.3201  0.3846  0.2668
  120OSM    H4F12718   5.543   1.010   9.552 -1.6552 -0.3574 -0.3277
  120OSM    H4G12719   5.531   0.828   9.528 -0.5601  0.1453  1.1286
  120OSM    C5F12720   5.733   0.925   9.496  0.6657 -0.6036 -0.1298
  120OSM    H5F12721   5.751   0.829   9.443  0.6137 -1.3563  1.1640
  120OSM    H5G12722   5.805   0.939   9.579  1.4286 -0.1709 -0.8539
  120OSM    C6F12723   5.730   1.035   9.385 -0.4732 -0.0965  0.5413
  120OSM    H6F12724   5.826   1.038   9.329 -1.4757  1.2544 -1.1955
  120OSM    H6G12725   5.713   1.140   9.419  1.3167  0.4502 -0.1757
  120OSM    C7F12726   5.639   1.000   9.267 -0.3117 -0.0872  0.0688
  120OSM    H7F12727   5.636   1.097   9.213 -1.0709  0.8197  1.6583
  120OSM    H7G12728   5.540   0.973   9.309  0.2919 -0.8530  1.0377
  120OSM    C8F12729   5.669   0.876   9.179 -0.5787 -0.2665  0.0388
  120OSM    H8F12730   5.583   0.850   9.113 -0.7171  4.5885 -2.1286
  120OSM    H8G12731   5.695   0.787   9.240  1.7158 -0.7117 -1.4400
  120OSM    C9F12732   5.790   0.905   9.089  0.2023 -0.0325 -0.4895
  120OSM    H9F12733   5.880   0.951   9.131 -0.6899  3.6873 -2.2573
  120OSM   C10F12734   5.791   0.883   8.954  0.1468 -0.1749  0.4482
  120OSM   H10F12735   5.886   0.902   8.903 -1.0212 -0.2736 -1.8650
  120OSM   C11F12736   5.687   0.818   8.871 -0.3634  0.4395 -0.8348
  120OSM   H11F12737   5.588   0.813   8.922 -0.7393  0.7577 -1.5314
  120OSM   H11G12738   5.712   0.712   8.849  1.3322  0.7390 -0.4788
  120OSM   C12F12739   5.655   0.898   8.749 -0.4644  0.4744 -0.0428
  120OSM   H12F12740   5.595   0.829   8.686 -0.2838 -0.5262  0.8574
  120OSM   H12G12741   5.753   0.919   8.700 -0.2611 -0.8713 -0.2517
  120OSM   C13F12742   5.572   1.026   8.768  0.2984 -0.1817 -0.0761
  120OSM   H13F12743   5.600   1.083   8.859 -1.1091 -2.4062  1.8715
  120OSM   H13G12744   5.465   0.999   8.777 -0.6283  2.4310 -1.8752
  120OSM   C14F12745   5.586   1.112   8.639  0.4945 -0.8969 -0.7823
  120OSM   H14F12746   5.495   1.175   8.634  0.7434  0.0054  3.0614
  120OSM   H14G12747   5.584   1.048   8.548  0.7326 -2.3007  0.1703
  120OSM   C15F12748   5.713   1.193   8.637  0.5831 -0.5339 -0.6057
  120OSM   H15F12749   5.796   1.125   8.666 -1.2516 -3.0332 -0.8270
  120OSM   H15G12750   5.713   1.277   8.709 -0.6841 -0.3916 -0.7497
  120OSM   C16F12751   5.728   1.261   8.504  0.2027  0.0571  0.1735
  120OSM   H16F12752   5.647   1.328   8.468  0.5781  0.6078  0.3397
  120OSM   H16G12753   5.728   1.180   8.428  1.7098  0.8685 -0.7344
  120OSM   C17F12754   5.856   1.335   8.464  0.8436  0.0434  0.1750
  120OSM   H17F12755   5.843   1.440   8.498 -0.8756 -0.0611 -0.0914
  120OSM   H17G12756   5.860   1.327   8.353  1.2621 -1.2420  0.2706
  120OSM   C18F12757   5.980   1.279   8.528 -0.3559 -0.5115  0.8118
  120OSM   H18F12758   5.992   1.171   8.504  0.7580  0.1895 -2.2619
  120OSM   H18G12759   5.979   1.293   8.638  2.1942 -1.1024  0.9562
  120OSM   H18H12760   6.072   1.329   8.492 -1.0754  1.1911  1.2089
  121OSM      N12761   4.615   4.159  10.839 -0.6207  0.3370  0.2122
  121OSM    C1512762   4.580   4.302  10.871  0.5062 -0.1528  0.1963
  121OSM   H15A12763   4.549   4.341  10.775  0.3636 -1.1706 -0.1793
  121OSM   H15B12764   4.667   4.363  10.893  1.1810 -0.7090 -0.8964
  121OSM   H15C12765   4.513   4.311  10.956  1.3917  0.5859  0.8375
  121OSM    C1412766   4.659   4.086  10.965  0.2201 -0.3919  0.0485
  121OSM   H14A12767   4.592   4.121  11.041 -1.6757  1.9305 -2.4808
  121OSM   H14B12768   4.764   4.107  10.980  0.4490 -0.2366 -1.5761
  121OSM   H14C12769   4.645   3.979  10.963  2.4370 -0.7521  0.6491
  121OSM    C1312770   4.487   4.093  10.787  0.1608  0.3346 -0.5506
  121OSM   H13A12771   4.490   3.986  10.780  2.1360  0.0907  2.1477
  121OSM   H13B12772   4.453   4.137  10.695 -0.5396 -1.3188 -1.1073
  121OSM   H13C12773   4.408   4.110  10.859  1.0597 -0.2260  0.6154
  121OSM    C1212774   4.724   4.147  10.733 -0.3678  0.4909 -0.5796
  121OSM   H12A12775   4.688   4.174  10.636  1.2956  1.8598 -0.8736
  121OSM   H12B12776   4.757   4.044  10.725 -2.5823 -0.3050 -0.0408
  121OSM    C1112777   4.859   4.228  10.763  0.4581  0.0641 -0.0392
  121OSM   H11A12778   4.835   4.336  10.751 -0.9159 -0.1931  0.1787
  121OSM   H11B12779   4.927   4.201  10.680  0.7355  0.1927  0.1406
  121OSM      P12780   5.031   4.288  10.948 -0.3725  0.3779 -0.3122
  121OSM    O1312781   4.991   4.340  11.084 -0.3722  0.0926  0.0433
  121OSM    O1412782   5.149   4.205  10.935 -0.2637  0.2351 -0.1306
  121OSM    O1112783   5.047   4.413  10.857 -0.6252  0.4006 -0.4612
  121OSM    O1212784   4.912   4.200  10.889  0.0822 -0.1152  0.0443
  121OSM    C1S12785   5.151   4.428  10.759  0.4805 -0.3579  0.9451
  121OSM    H1S12786   5.181   4.332  10.712  0.0537  0.0530 -0.2113
  121OSM    H1T12787   5.240   4.481  10.799  0.0842  0.2919  0.9827
  121OSM     NF12788   5.189   4.528  10.533  0.0937  0.0245 -0.1216
  121OSM    HNF12789   5.265   4.592  10.530  0.2367 -0.1658 -2.0557
  121OSM    C2S12790   5.096   4.525  10.641  0.4237  0.3194 -0.4758
  121OSM    H2S12791   5.007   4.470  10.604  0.2852 -0.6602  1.2046
  121OSM    C3S12792   5.060   4.667  10.697  0.2632 -0.5522  0.3856
  121OSM    H3S12793   5.154   4.707  10.740  1.3292 -0.9067 -1.5097
  121OSM     O312794   4.953   4.677  10.793  0.7259  0.5126  0.0643
  121OSM    HO312795   4.970   4.596  10.842  0.5541  0.0266 -0.6487
  121OSM    C4S12796   5.028   4.753  10.583  0.2245  0.4687 -1.0583
  121OSM    H4S12797   4.980   4.695  10.503  0.9275  0.4245 -1.4614
  121OSM    C5S12798   5.049   4.885  10.566 -0.1980  0.4511  0.8694
  121OSM    H5S12799   5.100   4.946  10.642  0.8311  0.1744  0.4131
  121OSM    C6S12800   5.013   4.972  10.447  0.6347 -0.3535  0.3503
  121OSM    H6S12801   5.092   4.965  10.370  0.5696 -0.9152  0.3235
  121OSM    H6T12802   5.001   5.079  10.474 -0.0801 -0.4428  0.4288
  121OSM    C7S12803   4.890   4.917  10.367  0.6718 -0.0746 -0.1396
  121OSM    H7S12804   4.808   4.918  10.443  0.3460  2.8768 -0.3948
  121OSM    H7T12805   4.903   4.816  10.324 -1.6614 -0.1188 -0.9054
  121OSM    C8S12806   4.848   4.995  10.246 -0.1124 -0.1016  0.0569
  121OSM    H8S12807   4.882   5.097  10.274  1.8395 -1.2121  2.0526
  121OSM    H8T12808   4.738   4.999  10.231 -0.0045  0.3242 -0.6687
  121OSM    C9S12809   4.911   4.932  10.121 -0.0941 -0.1251 -0.1191
  121OSM    H9S12810   4.856   4.836  10.107  1.5663 -1.2280  0.5844
  121OSM    H9T12811   5.018   4.908  10.139 -0.3622 -0.0982  1.6796
  121OSM   C10S12812   4.892   5.005   9.988  0.3431 -0.0770 -0.0401
  121OSM   H10S12813   4.928   5.110   9.986  0.4495 -0.1265 -0.9587
  121OSM   H10T12814   4.783   5.027   9.990 -0.0323 -1.8062 -0.0141
  121OSM   C11S12815   4.934   4.911   9.872  0.2505 -0.1604  0.4677
  121OSM   H11S12816   4.863   4.826   9.883 -0.0941  0.0160 -0.3191
  121OSM   H11T12817   5.034   4.884   9.913  0.3167  2.8421  2.5566
  121OSM   C12S12818   4.932   4.980   9.736 -0.2960  0.6279 -0.2271
  121OSM   H12S12819   5.014   5.054   9.735 -0.9167  1.3312  0.2989
  121OSM   H12T12820   4.838   5.037   9.721  0.4004  2.4548  1.9259
  121OSM   C13S12821   4.955   4.889   9.610 -0.3255  0.3384  0.0768
  121OSM   H13S12822   4.903   4.792   9.621  3.4882 -1.8494  0.5750
  121OSM   H13T12823   5.064   4.871   9.594 -0.5235 -0.8985 -0.0007
  121OSM   C14S12824   4.928   4.960   9.483 -0.4667 -0.3225 -0.1402
  121OSM   H14S12825   5.016   4.999   9.427 -0.3236 -2.3955 -1.4738
  121OSM   H14T12826   4.861   5.047   9.498 -0.9309 -0.7559  0.3194
  121OSM   C15S12827   4.859   4.855   9.388  0.4772  0.3095  0.0755
  121OSM   H15S12828   4.761   4.826   9.430 -0.3497  1.1092 -1.2293
  121OSM   H15T12829   4.925   4.766   9.378 -1.0474 -1.1980  2.4206
  121OSM   C16S12830   4.844   4.919   9.247  0.5527 -0.8572 -0.5542
  121OSM   H16S12831   4.949   4.943   9.217  0.7301 -0.7691  0.1355
  121OSM   H16T12832   4.794   5.019   9.252  2.7836  0.2515  1.6137
  121OSM   C17S12833   4.774   4.825   9.145 -0.3647 -0.2591 -0.1741
  121OSM   H17S12834   4.677   4.798   9.193 -0.6842 -0.6093 -1.0041
  121OSM   H17T12835   4.824   4.727   9.143  0.1892  0.0134  0.1689
  121OSM   C18S12836   4.762   4.881   9.005 -0.0842 -0.4503 -0.6122
  121OSM   H18S12837   4.859   4.897   8.953  0.5333 -1.1722  0.2711
  121OSM   H18T12838   4.712   4.980   9.011  2.4661  0.8452  1.0178
  121OSM   H18U12839   4.692   4.818   8.946 -2.9846  0.4461  1.6216
  121OSM    C1F12840   5.190   4.428  10.443  0.3883 -0.2642  0.0009
  121OSM     OF12841   5.087   4.355  10.425 -0.4964 -0.2069 -0.5240
  121OSM    C2F12842   5.311   4.410  10.352  0.0566  0.2986  0.2846
  121OSM    H2F12843   5.407   4.418  10.408  0.8834  0.1676 -1.0487
  121OSM    H2G12844   5.314   4.496  10.281  0.9148  1.3585  1.5539
  121OSM    C3F12845   5.321   4.268  10.289 -0.0242  0.2608 -0.0393
  121OSM    H3F12846   5.248   4.258  10.206  0.1412 -0.2038 -0.1293
  121OSM    H3G12847   5.321   4.189  10.368 -1.4373  0.8867  0.6251
  121OSM    C4F12848   5.458   4.272  10.212 -0.0956 -0.3368  0.2787
  121OSM    H4F12849   5.552   4.262  10.272  0.8971 -1.4616 -1.3821
  121OSM    H4G12850   5.464   4.370  10.161  0.8657 -1.0946 -1.1225
  121OSM    C5F12851   5.467   4.168  10.097 -0.1924  0.5929  0.4363
  121OSM    H5F12852   5.365   4.137  10.066  1.3157 -2.0048 -2.3672
  121OSM    H5G12853   5.521   4.078  10.134  0.0883  0.0606 -1.2091
  121OSM    C6F12854   5.537   4.235   9.980 -0.3937 -0.0488  0.1700
  121OSM    H6F12855   5.638   4.272  10.006 -0.0415  0.5372 -1.8277
  121OSM    H6G12856   5.480   4.319   9.934  1.6460  1.2414 -0.1452
  121OSM    C7F12857   5.553   4.133   9.863  0.0460 -0.6063  0.2901
  121OSM    H7F12858   5.596   4.041   9.908  0.1243 -1.0485 -0.6635
  121OSM    H7G12859   5.627   4.186   9.798  0.2487  0.9197  1.7109
  121OSM    C8F12860   5.426   4.104   9.774 -0.4091  0.5615 -0.4871
  121OSM    H8F12861   5.350   4.061   9.842  0.6234  0.9024  0.9322
  121OSM    H8G12862   5.445   4.019   9.705  0.4942 -0.3870  0.8841
  121OSM    C9F12863   5.364   4.213   9.694  0.3051  0.0715  0.2662
  121OSM    H9F12864   5.279   4.257   9.748 -0.4729 -1.2562  0.1860
  121OSM   C10F12865   5.398   4.267   9.568 -0.5366  0.2373 -0.3655
  121OSM   H10F12866   5.329   4.340   9.522 -2.0439 -0.0266  1.3676
  121OSM   C11F12867   5.504   4.220   9.476  0.3021  0.1358 -0.0094
  121OSM   H11F12868   5.546   4.120   9.500 -0.8770 -0.2995  0.2586
  121OSM   H11G12869   5.585   4.297   9.477 -1.6723  2.3447 -0.4003
  121OSM   C12F12870   5.436   4.216   9.332 -0.0982 -0.3277  0.0832
  121OSM   H12F12871   5.401   4.319   9.311 -0.1256 -0.1561  0.9353
  121OSM   H12G12872   5.346   4.152   9.332  0.4751 -1.1643  0.8249
  121OSM   C13F12873   5.538   4.169   9.236 -0.2469 -0.1447  0.2529
  121OSM   H13F12874   5.576   4.065   9.249  0.8556  0.1431 -0.5162
  121OSM   H13G12875   5.629   4.231   9.250  0.1230 -0.7430  0.5563
  121OSM   C14F12876   5.495   4.186   9.093  0.0037 -0.2626 -0.2607
  121OSM   H14F12877   5.407   4.121   9.074  0.5116 -0.9313 -0.3515
  121OSM   H14G12878   5.579   4.156   9.027  1.0706  2.2705 -0.1493
  121OSM   C15F12879   5.449   4.332   9.066 -0.4148 -0.5016 -0.2040
  121OSM   H15F12880   5.522   4.414   9.084 -1.4587 -0.2304  3.5997
  121OSM   H15G12881   5.358   4.373   9.115 -0.0268 -0.4108  0.4538
  121OSM   C16F12882   5.407   4.341   8.913 -0.1993  0.6377 -0.5233
  121OSM   H16F12883   5.485   4.285   8.857  0.2466  0.9383 -0.2029
  121OSM   H16G12884   5.391   4.447   8.887 -0.0330  0.6868 -0.4244
  121OSM   C17F12885   5.267   4.273   8.891 -0.1322 -0.5834  0.3161
  121OSM   H17F12886   5.201   4.310   8.972  0.4224 -1.0943  1.0170
  121OSM   H17G12887   5.278   4.165   8.918 -1.5981 -0.9006 -0.2749
  121OSM   C18F12888   5.194   4.283   8.756 -0.3857 -0.0413 -0.0026
  121OSM   H18F12889   5.264   4.268   8.671 -0.3017 -1.2356  0.2672
  121OSM   H18G12890   5.145   4.382   8.765  0.8644  0.5089  1.1424
  121OSM   H18H12891   5.113   4.207   8.755  0.5883 -1.1159 -1.4232
  122OSM      N12892   5.798   1.992  10.890  0.1418  0.0355 -0.8658
  122OSM    C1512893   5.876   2.113  10.902 -0.5014  0.0065 -0.3691
  122OSM   H15A12894   5.937   2.115  10.813 -0.6151  0.0359 -0.4474
  122OSM   H15B12895   5.924   2.125  10.998 -1.8720 -0.1536  0.3659
  122OSM   H15C12896   5.813   2.202  10.898  0.2368  0.6314  1.1591
  122OSM    C1412897   5.897   1.883  10.903 -0.1671 -0.1158  0.3499
  122OSM   H14A12898   5.854   1.786  10.881  2.4649 -1.6452  1.4830
  122OSM   H14B12899   5.947   1.868  10.998  0.2924  2.5230  0.5946
  122OSM   H14C12900   5.976   1.899  10.832 -0.4269  1.0838  0.3096
  122OSM    C1312901   5.690   1.979  10.994 -0.7540  0.8078  0.2071
  122OSM   H13A12902   5.622   2.062  11.000 -2.2889 -0.1418 -2.4002
  122OSM   H13B12903   5.732   1.971  11.093  1.0604 -1.8120 -0.6367
  122OSM   H13C12904   5.625   1.894  10.983 -0.4627  0.9092 -4.0678
  122OSM    C1212905   5.743   1.990  10.745  0.1374 -0.0568  0.0218
  122OSM   H12A12906   5.713   1.886  10.734  0.6098 -0.1524 -0.3867
  122OSM   H12B12907   5.827   2.009  10.680  1.4526  2.3864  2.2353
  122OSM    C1112908   5.629   2.089  10.705  0.8490 -0.0944 -0.0698
  122OSM   H11A12909   5.619   2.084  10.594  0.1532 -0.0770 -0.0118
  122OSM   H11B12910   5.643   2.196  10.732  0.4224 -0.0841  0.1091
  122OSM      P12911   5.428   1.914  10.738 -0.0788 -0.3889  0.3392
  122OSM    O1312912   5.504   1.806  10.803  0.5928  0.0557 -0.3647
  122OSM    O1412913   5.287   1.930  10.780  0.2578  0.2465  0.7313
  122OSM    O1112914   5.436   1.898  10.579  0.2022  0.2287  0.5995
  122OSM    O1212915   5.499   2.051  10.757 -0.4755  0.3470  0.3574
  122OSM    C1S12916   5.359   1.984  10.491 -0.0139  0.0594 -0.1825
  122OSM    H1S12917   5.388   2.090  10.504  1.9394 -0.6453  1.8108
  122OSM    H1T12918   5.253   1.984  10.523  0.6796  0.8046  2.3193
  122OSM     NF12919   5.301   2.033  10.251 -0.1882 -0.0289 -0.2417
  122OSM    HNF12920   5.213   2.011  10.210 -0.7226  0.5934  0.5309
  122OSM    C2S12921   5.359   1.937  10.348 -0.3482 -0.1612  0.1028
  122OSM    H2S12922   5.465   1.935  10.315 -0.2566  3.3656 -0.1473
  122OSM    C3S12923   5.301   1.786  10.333 -0.2538  0.8284  0.1263
  122OSM    H3S12924   5.191   1.780  10.350 -0.1164 -2.8033  0.5685
  122OSM     O312925   5.367   1.694  10.422  0.0096  0.2716  0.1439
  122OSM    HO312926   5.423   1.746  10.480  0.8721 -1.1134  0.5952
  122OSM    C4S12927   5.332   1.732  10.191  0.0820 -0.3641  0.0224
  122OSM    H4S12928   5.434   1.695  10.176  0.4184  1.1002 -1.5712
  122OSM    C5S12929   5.242   1.723  10.091 -0.2546 -0.1404 -0.4206
  122OSM    H5S12930   5.145   1.765  10.123  0.3839  0.6293  0.5915
  122OSM    C6S12931   5.261   1.662   9.955  1.0576  0.1774  0.2934
  122OSM    H6S12932   5.181   1.586   9.944  1.5402 -0.4649  1.0638
  122OSM    H6T12933   5.355   1.604   9.946  0.9677 -0.3117  2.1227
  122OSM    C7S12934   5.254   1.751   9.830 -0.2549  0.9032  0.3099
  122OSM    H7S12935   5.341   1.820   9.826  1.2537 -0.9793 -0.7328
  122OSM    H7T12936   5.157   1.806   9.828 -1.4683 -1.1474  0.5381
  122OSM    C8S12937   5.274   1.670   9.696 -0.1772  0.3123  0.0114
  122OSM    H8S12938   5.202   1.586   9.691  0.5980 -0.3217 -0.8201
  122OSM    H8T12939   5.374   1.624   9.709 -0.2698  0.7093  2.6224
  122OSM    C9S12940   5.275   1.759   9.567 -0.1238  0.6373 -0.1387
  122OSM    H9S12941   5.357   1.832   9.582  0.4738 -0.1708  0.6339
  122OSM    H9T12942   5.174   1.805   9.567  0.3446  1.7085 -0.6954
  122OSM   C10S12943   5.305   1.671   9.440 -0.2026  0.3679 -0.3478
  122OSM   H10S12944   5.234   1.586   9.438  0.5072 -0.2599  0.5345
  122OSM   H10T12945   5.399   1.612   9.446  0.6970  1.7173 -0.7389
  122OSM   C11S12946   5.300   1.761   9.308 -0.4096 -0.3181  0.4633
  122OSM   H11S12947   5.337   1.693   9.228 -0.7346  0.3989 -0.3132
  122OSM   H11T12948   5.359   1.853   9.326  1.3573 -1.3698  0.2546
  122OSM   C12S12949   5.156   1.806   9.269 -0.7224 -0.3590  0.1580
  122OSM   H12S12950   5.137   1.899   9.327  1.0325  1.5046 -2.0782
  122OSM   H12T12951   5.093   1.716   9.283 -1.5978  0.0068 -1.2680
  122OSM   C13S12952   5.143   1.847   9.115  0.0979 -0.0244  0.1723
  122OSM   H13S12953   5.162   1.753   9.058  0.5633  0.2680 -0.1647
  122OSM   H13T12954   5.217   1.926   9.091  0.6412 -0.5652  0.0300
  122OSM   C14S12955   4.999   1.888   9.087 -0.4352  0.1256  0.1113
  122OSM   H14S12956   4.990   1.998   9.072 -0.2467 -0.1938 -3.0169
  122OSM   H14T12957   4.921   1.854   9.158  0.2178 -0.8145  0.4045
  122OSM   C15S12958   4.963   1.830   8.947 -0.4282 -0.7565 -0.5782
  122OSM   H15S12959   4.980   1.721   8.955  2.4909 -0.5777 -2.5730
  122OSM   H15T12960   5.040   1.857   8.871 -0.2419  0.9235  0.1482
  122OSM   C16S12961   4.825   1.888   8.911 -0.2690 -0.4508  0.3562
  122OSM   H16S12962   4.809   1.991   8.950 -2.0068 -0.6237  0.1694
  122OSM   H16T12963   4.745   1.841   8.972 -1.3228 -2.7264 -2.5777
  122OSM   C17S12964   4.793   1.891   8.762 -0.0342  0.2104 -0.1489
  122OSM   H17S12965   4.862   1.957   8.705 -0.3418  0.4668 -0.2290
  122OSM   H17T12966   4.695   1.943   8.753  0.9931  2.1733 -0.5822
  122OSM   C18S12967   4.778   1.756   8.690  0.3716  0.1385  0.7889
  122OSM   H18S12968   4.687   1.700   8.722 -0.1890  1.2140  1.1238
  122OSM   H18T12969   4.871   1.696   8.695 -0.7304 -1.7503 -0.1277
  122OSM   H18U12970   4.746   1.766   8.584 -1.5673 -1.0487  1.2021
  122OSM    C1F12971   5.358   2.149  10.230 -0.0898 -0.4220 -0.2230
  122OSM     OF12972   5.468   2.188  10.279  0.0545 -0.5190  0.1904
  122OSM    C2F12973   5.281   2.245  10.139 -0.4412 -0.4177 -0.5001
  122OSM    H2F12974   5.256   2.337  10.196 -0.0077 -1.7285  1.9411
  122OSM    H2G12975   5.188   2.197  10.103  0.1553 -1.3685 -0.8008
  122OSM    C3F12976   5.367   2.281  10.013  0.0145 -0.4124  0.2779
  122OSM    H3F12977   5.446   2.345  10.056 -1.9209  0.7414  2.2912
  122OSM    H3G12978   5.304   2.349   9.952 -2.9559  0.7631  4.2405
  122OSM    C4F12979   5.423   2.161   9.929  0.3889 -0.4257  0.5650
  122OSM    H4F12980   5.341   2.087   9.919  0.0940  0.0882 -1.2433
  122OSM    H4G12981   5.497   2.105   9.989 -1.1013 -1.0048  1.9119
  122OSM    C5F12982   5.486   2.201   9.801 -0.3614 -0.7688  0.4577
  122OSM    H5F12983   5.520   2.116   9.738  0.8051  0.1813 -0.2320
  122OSM    H5G12984   5.570   2.271   9.819 -2.9342  2.6437  0.1956
  122OSM    C6F12985   5.394   2.275   9.702 -0.4948  0.2241 -0.4442
  122OSM    H6F12986   5.377   2.377   9.742  0.5069  0.0283  0.5419
  122OSM    H6G12987   5.298   2.220   9.694 -0.4864  0.1168  0.2086
  122OSM    C7F12988   5.460   2.287   9.567  0.1887  0.7353  0.6057
  122OSM    H7F12989   5.568   2.315   9.565  0.6173 -0.4108 -4.2587
  122OSM    H7G12990   5.422   2.375   9.511 -0.3488 -0.5624 -1.1619
  122OSM    C8F12991   5.417   2.169   9.476  0.1724  0.2230 -0.0786
  122OSM    H8F12992   5.347   2.209   9.400  0.4899  0.2592 -0.3548
  122OSM    H8G12993   5.351   2.107   9.541 -0.5526  0.7428 -0.3087
  122OSM    C9F12994   5.526   2.087   9.414  0.2327  0.3054  0.4453
  122OSM    H9F12995   5.598   2.062   9.494  2.1403  0.5593 -1.1134
  122OSM   C10F12996   5.562   2.059   9.289 -0.1391 -0.1856 -0.1325
  122OSM   H10F12997   5.649   1.993   9.277  1.5083  1.7642  0.4628
  122OSM   C11F12998   5.492   2.094   9.162  0.3948 -0.7457  0.1783
  122OSM   H11F12999   5.490   2.204   9.153 -2.7954 -0.5484  1.7195
  122OSM   H11G13000   5.386   2.059   9.167  0.2865 -0.7481 -1.6416
  122OSM   C12F13001   5.543   2.047   9.027  0.4718 -0.4073  0.4521
  122OSM   H12F13002   5.547   1.937   9.018  0.8354 -0.4459  1.0208
  122OSM   H12G13003   5.648   2.081   9.027  0.3521 -0.0048  1.1210
  122OSM   C13F13004   5.444   2.122   8.925 -0.1856  0.6971 -0.3084
  122OSM   H13F13005   5.462   2.232   8.931  0.8581  0.5030  0.2926
  122OSM   H13G13006   5.342   2.099   8.962  0.9664 -2.4172  1.2780
  122OSM   C14F13007   5.460   2.074   8.786 -0.2470 -0.4900 -0.0406
  122OSM   H14F13008   5.440   1.965   8.797 -0.4047 -0.2802  2.1960
  122OSM   H14G13009   5.558   2.078   8.732 -0.5705  0.4836 -0.5778
  122OSM   C15F13010   5.338   2.126   8.701 -0.9319 -0.5133  0.6977
  122OSM   H15F13011   5.362   2.233   8.679  4.8120 -1.5515  0.5012
  122OSM   H15G13012   5.249   2.117   8.767 -1.7381 -0.8780 -0.3958
  122OSM   C16F13013   5.312   2.059   8.569  0.0040  0.2034  0.3503
  122OSM   H16F13014   5.201   2.052   8.564 -0.0076 -1.1174  1.6322
  122OSM   H16G13015   5.356   1.957   8.573 -1.1713 -0.2909  1.6862
  122OSM   C17F13016   5.364   2.140   8.446  0.1511  0.6289 -0.6588
  122OSM   H17F13017   5.332   2.246   8.445 -0.8921  0.3939  1.7790
  122OSM   H17G13018   5.310   2.084   8.366 -0.0041 -2.9109  1.7037
  122OSM   C18F13019   5.520   2.128   8.424  0.2945 -0.3101 -0.8074
  122OSM   H18F13020   5.572   2.171   8.511  0.7039  0.9312 -1.6382
  122OSM   H18G13021   5.550   2.189   8.336  0.0861 -0.9623 -1.3502
  122OSM   H18H13022   5.557   2.025   8.403  2.7174  0.9007 -2.9696
  123OSM      N13023   1.031   0.929   6.155 -0.0285  0.1260  0.4188
  123OSM    C1513024   0.878   0.907   6.153  0.2961  0.5190 -0.4059
  123OSM   H15A13025   0.832   0.965   6.231 -2.5490 -2.6583  0.5174
  123OSM   H15B13026   0.853   0.803   6.172 -0.0415  0.3340 -1.7327
  123OSM   H15C13027   0.836   0.936   6.058  0.2115  0.3757 -0.4131
  123OSM    C1413028   1.050   1.076   6.137 -0.1173 -1.1253 -1.1468
  123OSM   H14A13029   1.011   1.129   6.223  0.3816  1.2504 -2.2943
  123OSM   H14B13030   1.012   1.110   6.042 -1.6544  0.2372 -0.1004
  123OSM   H14C13031   1.151   1.116   6.131 -0.1962 -0.8271 -0.6330
  123OSM    C1313032   1.082   0.889   6.284 -0.3917 -0.2925 -0.4579
  123OSM   H13A13033   1.033   0.943   6.363  0.3535  0.7643 -0.6922
  123OSM   H13B13034   1.190   0.899   6.291 -0.2908 -1.8205  0.7137
  123OSM   H13C13035   1.066   0.784   6.304  0.6299 -0.3762 -0.0256
  123OSM    C1213036   1.106   0.854   6.042 -0.0728 -0.5638 -0.2764
  123OSM   H12A13037   1.065   0.899   5.953  0.4060  0.0448 -0.1989
  123OSM   H12B13038   1.082   0.749   6.038  1.3093 -0.8699 -1.2143
  123OSM    C1113039   1.258   0.866   6.030  0.2533  0.4939  0.0103
  123OSM   H11A13040   1.284   0.800   5.944 -2.3612 -1.0005  0.2651
  123OSM   H11B13041   1.312   0.824   6.118  3.0833 -1.3732 -2.3963
  123OSM      P13042   1.426   1.066   6.031  0.0467  0.1879 -0.0007
  123OSM    O1313043   1.533   1.027   5.941 -0.6762  0.3501 -0.1737
  123OSM    O1413044   1.391   1.208   6.046 -0.2290  0.1221 -0.0176
  123OSM    O1113045   1.452   1.003   6.166 -0.3855 -0.0349 -0.4460
  123OSM    O1213046   1.286   1.001   5.992 -0.1913  0.1416  0.2297
  123OSM    C1S13047   1.559   1.048   6.255  0.0616 -0.3113  0.0166
  123OSM    H1S13048   1.544   1.158   6.256 -0.5305 -0.3889  1.0371
  123OSM    H1T13049   1.664   1.027   6.223  0.7858  0.4045  1.8017
  123OSM     NF13050   1.614   1.070   6.494 -0.4999  1.0013  0.1784
  123OSM    HNF13051   1.695   1.040   6.545  0.7783  3.2400 -0.3845
  123OSM    C2S13052   1.544   0.987   6.398  0.0487  0.1195  0.0674
  123OSM    H2S13053   1.437   0.992   6.428  0.0384  0.0317  0.0450
  123OSM    C3S13054   1.590   0.842   6.388 -0.3382 -0.9669 -0.6843
  123OSM    H3S13055   1.698   0.839   6.362 -0.1699  3.4081 -1.1628
  123OSM     O313056   1.531   0.751   6.299  0.0689 -0.3188 -0.1953
  123OSM    HO313057   1.475   0.810   6.248  1.1813 -1.2589 -2.6793
  123OSM    C4S13058   1.568   0.796   6.528 -0.2572 -0.3999 -0.0978
  123OSM    H4S13059   1.464   0.784   6.559 -0.0628  0.9427  1.1815
  123OSM    C5S13060   1.668   0.752   6.607 -0.4857 -0.1267  0.0086
  123OSM    H5S13061   1.772   0.748   6.570 -0.9646 -0.8969 -1.3237
  123OSM    C6S13062   1.646   0.710   6.750  0.0507 -1.2905 -0.0735
  123OSM    H6S13063   1.713   0.778   6.806 -0.9691 -0.0122 -0.3400
  123OSM    H6T13064   1.667   0.602   6.761  0.8033 -1.1006  0.3916
  123OSM    C7S13065   1.505   0.728   6.809  0.0627 -0.5305  0.4984
  123OSM    H7S13066   1.428   0.693   6.738 -0.6431  2.3283 -0.2382
  123OSM    H7T13067   1.471   0.829   6.837 -0.1960 -0.2112 -0.9532
  123OSM    C8S13068   1.488   0.645   6.933 -0.4839  0.6380 -0.3094
  123OSM    H8S13069   1.520   0.543   6.904 -1.0843  0.1896  0.5393
  123OSM    H8T13070   1.378   0.643   6.953 -0.5475  4.2899  0.4666
  123OSM    C9S13071   1.570   0.704   7.052  0.3687  0.2129  0.0454
  123OSM    H9S13072   1.555   0.814   7.065  1.0627  0.0980  2.0819
  123OSM    H9T13073   1.679   0.694   7.033  0.3416 -2.3994  0.9288
  123OSM   C10S13074   1.537   0.635   7.187 -0.2463  0.0029 -0.0730
  123OSM   H10S13075   1.566   0.528   7.176 -1.9924 -1.0841  3.9522
  123OSM   H10T13076   1.429   0.616   7.207  0.0330 -0.6623  0.9158
  123OSM   C11S13077   1.621   0.693   7.298 -0.0650 -0.1025  0.1840
  123OSM   H11S13078   1.588   0.793   7.334  1.3056  0.6603 -0.6068
  123OSM   H11T13079   1.727   0.698   7.266 -0.1560  1.5664  0.0998
  123OSM   C12S13080   1.613   0.594   7.425 -0.5780 -0.1518  0.2402
  123OSM   H12S13081   1.645   0.491   7.395 -0.2660 -0.7836  2.5393
  123OSM   H12T13082   1.511   0.602   7.469  0.3181  0.6428  2.2752
  123OSM   C13S13083   1.720   0.625   7.535  0.4203 -0.0900  0.3852
  123OSM   H13S13084   1.821   0.612   7.491 -0.4618  1.1732 -2.2339
  123OSM   H13T13085   1.712   0.546   7.612  1.4606 -0.7054 -0.1220
  123OSM   C14S13086   1.709   0.754   7.608 -0.2332  0.0034  0.8228
  123OSM   H14S13087   1.604   0.774   7.637 -0.9060 -1.2320 -0.6658
  123OSM   H14T13088   1.724   0.847   7.549 -4.2826  2.4072  3.0956
  123OSM   C15S13089   1.795   0.746   7.734  0.2693 -0.4016 -0.3985
  123OSM   H15S13090   1.734   0.668   7.784  0.0567 -0.5695 -0.9142
  123OSM   H15T13091   1.795   0.842   7.790  2.1475 -2.8867  4.4037
  123OSM   C16S13092   1.939   0.687   7.713  0.5608 -0.1959  0.1616
  123OSM   H16S13093   1.995   0.763   7.654 -0.2890  0.8434  0.6669
  123OSM   H16T13094   1.935   0.593   7.653 -2.9417  0.5451 -1.0324
  123OSM   C17S13095   2.022   0.657   7.836 -0.0681 -0.6317 -0.0634
  123OSM   H17S13096   1.963   0.600   7.912  2.5028 -2.1761  0.8844
  123OSM   H17T13097   2.056   0.753   7.881 -1.0497 -0.3987  0.2124
  123OSM   C18S13098   2.152   0.581   7.810  0.6962 -0.1685  0.0249
  123OSM   H18S13099   2.131   0.512   7.725 -0.9836 -0.2078  0.4379
  123OSM   H18T13100   2.174   0.509   7.892 -2.9689 -2.3491 -0.7021
  123OSM   H18U13101   2.232   0.655   7.787 -0.3308  1.0823  0.3188
  123OSM    C1F13102   1.571   1.188   6.539  0.3543  0.3344 -0.1950
  123OSM     OF13103   1.463   1.220   6.507 -0.2976  0.5245 -0.1720
  123OSM    C2F13104   1.663   1.262   6.623  0.0314 -1.0843 -0.6161
  123OSM    H2F13105   1.696   1.348   6.560  0.8103 -0.6983  0.2828
  123OSM    H2G13106   1.754   1.199   6.637  0.4697 -0.2256  0.5571
  123OSM    C3F13107   1.599   1.315   6.751 -0.6130 -0.3206 -0.0034
  123OSM    H3F13108   1.506   1.372   6.731 -0.5769  1.5679  4.2168
  123OSM    H3G13109   1.659   1.403   6.781 -1.2217  0.5984 -1.3758
  123OSM    C4F13110   1.582   1.214   6.872 -0.4081  0.5081  1.2003
  123OSM    H4F13111   1.683   1.195   6.913 -0.2303 -0.0744  0.5150
  123OSM    H4G13112   1.537   1.120   6.833  1.6865  0.1655 -0.5916
  123OSM    C5F13113   1.500   1.258   6.989 -0.0662 -0.5324  0.8760
  123OSM    H5F13114   1.412   1.318   6.958 -0.1551 -1.5039 -0.8672
  123OSM    H5G13115   1.571   1.323   7.044 -0.5677  2.8054 -2.0909
  123OSM    C6F13116   1.452   1.138   7.076 -0.8132 -0.3237 -0.3722
  123OSM    H6F13117   1.534   1.077   7.120 -1.1470  0.4113  1.3183
  123OSM    H6G13118   1.388   1.072   7.013 -1.2941  0.7678 -1.0463
  123OSM    C7F13119   1.374   1.182   7.210 -0.0258 -0.1556  0.4350
  123OSM    H7F13120   1.267   1.203   7.191 -0.3528 -0.9813  1.3419
  123OSM    H7G13121   1.421   1.272   7.255 -0.7112 -0.3081  1.4636
  123OSM    C8F13122   1.373   1.069   7.308 -0.2756  0.1453 -0.8118
  123OSM    H8F13123   1.476   1.032   7.324 -0.0673  1.2378  0.5874
  123OSM    H8G13124   1.322   0.978   7.269  0.9513 -1.9037  2.0271
  123OSM    C9F13125   1.314   1.099   7.438  0.0944 -0.5698  0.4983
  123OSM    H9F13126   1.206   1.121   7.432  0.1625  0.2522  1.9529
  123OSM   C10F13127   1.374   1.111   7.554 -0.0132 -0.4480  0.2965
  123OSM   H10F13128   1.308   1.143   7.636  0.5604 -0.7712  0.9011
  123OSM   C11F13129   1.526   1.104   7.578  0.9530 -0.5337 -0.0923
  123OSM   H11F13130   1.555   1.211   7.570 -1.9266  0.5867  2.4614
  123OSM   H11G13131   1.579   1.038   7.506 -1.1131 -1.4702 -0.8189
  123OSM   C12F13132   1.554   1.056   7.719  0.3729  0.1073 -0.4295
  123OSM   H12F13133   1.663   1.041   7.734  0.6885  1.9380 -0.6683
  123OSM   H12G13134   1.505   0.957   7.735 -0.7120  0.5848 -0.6846
  123OSM   C13F13135   1.517   1.156   7.830 -0.2057  0.2094 -0.3950
  123OSM   H13F13136   1.410   1.184   7.824 -0.7074 -1.6025 -0.6932
  123OSM   H13G13137   1.574   1.250   7.817 -0.7204  0.5221 -0.4102
  123OSM   C14F13138   1.545   1.105   7.971 -0.0833  0.6300 -0.0090
  123OSM   H14F13139   1.515   1.002   7.999  1.4874  0.2329  0.3062
  123OSM   H14G13140   1.492   1.168   8.046 -0.9362 -0.2470  0.1451
  123OSM   C15F13141   1.699   1.122   8.002 -0.2321  0.2791  0.2768
  123OSM   H15F13142   1.726   1.228   7.984  0.5066 -0.1207 -1.1154
  123OSM   H15G13143   1.747   1.060   7.923 -0.6162 -0.1222  0.3518
  123OSM   C16F13144   1.743   1.071   8.143 -0.3579 -0.2700 -0.0731
  123OSM   H16F13145   1.695   0.973   8.163 -3.8889  1.3361  0.2226
  123OSM   H16G13146   1.689   1.147   8.204 -0.4535  0.6315 -1.2400
  123OSM   C17F13147   1.901   1.094   8.166  0.7498 -0.6364  0.2082
  123OSM   H17F13148   1.937   1.197   8.146 -1.3651  0.4974  1.7782
  123OSM   H17G13149   1.957   1.028   8.097  0.3184 -1.5850  0.7417
  123OSM   C18F13150   1.935   1.076   8.312  0.3567 -0.0457  0.4343
  123OSM   H18F13151   1.914   0.968   8.327 -0.3797 -0.9122 -4.8698
  123OSM   H18G13152   1.877   1.144   8.379 -0.8558 -0.2851 -0.3534
  123OSM   H18H13153   2.044   1.094   8.323  0.6505 -0.1353 -1.8004
  124OSM      N13154   4.236   5.358   6.205  0.0871 -0.1920 -1.1743
  124OSM    C1513155   4.179   5.261   6.297 -0.2604 -0.4153 -0.2789
  124OSM   H15A13156   4.083   5.293   6.334 -0.3443 -0.2200 -0.6587
  124OSM   H15B13157   4.250   5.241   6.375  0.5467 -0.2885 -0.9699
  124OSM   H15C13158   4.171   5.167   6.244  0.8773  0.5633 -2.2747
  124OSM    C1413159   4.370   5.301   6.155  0.6315 -0.0655 -0.0326
  124OSM   H14A13160   4.454   5.326   6.218 -0.4061  2.4123  0.4810
  124OSM   H14B13161   4.392   5.338   6.056 -0.1919 -0.8429 -0.5197
  124OSM   H14C13162   4.360   5.194   6.143 -0.0888 -0.0109  0.0202
  124OSM    C1313163   4.133   5.376   6.099 -0.5772 -0.5358  0.6494
  124OSM   H13A13164   4.175   5.420   6.011  0.1736  0.0920  1.3064
  124OSM   H13B13165   4.065   5.454   6.130 -1.2378 -0.6950 -0.3419
  124OSM   H13C13166   4.070   5.289   6.082 -2.6817  1.3291 -1.8308
  124OSM    C1213167   4.257   5.490   6.290 -0.6280 -0.2450 -0.3154
  124OSM   H12A13168   4.319   5.452   6.369 -1.2547  0.5073  0.5536
  124OSM   H12B13169   4.167   5.517   6.342 -0.5147  1.1838 -0.8105
  124OSM    C1113170   4.317   5.615   6.231  0.8152 -0.5388  0.0639
  124OSM   H11A13171   4.302   5.703   6.298 -3.3784 -0.8559 -0.1832
  124OSM   H11B13172   4.268   5.637   6.133  1.4946  0.6626 -0.0285
  124OSM      P13173   4.563   5.594   6.334 -0.2150 -0.2564 -0.2165
  124OSM    O1313174   4.628   5.455   6.335  0.4628 -0.8636  0.6014
  124OSM    O1413175   4.649   5.711   6.317  0.5287 -0.4776  0.4220
  124OSM    O1113176   4.465   5.606   6.465  0.3274 -0.5568  0.2149
  124OSM    O1213177   4.455   5.593   6.213  0.1413  0.5371  0.0730
  124OSM    C1S13178   4.520   5.648   6.590  0.0456  0.2505  0.2953
  124OSM    H1S13179   4.608   5.716   6.588  0.7665 -0.5295  2.4788
  124OSM    H1T13180   4.559   5.553   6.633 -1.7847 -1.3878 -1.4707
  124OSM     NF13181   4.474   5.781   6.791 -0.5540 -0.3413  0.2931
  124OSM    HNF13182   4.465   5.732   6.877 -0.6764 -1.7284 -0.4807
  124OSM    C2S13183   4.414   5.722   6.679  0.4399 -0.0613 -0.3203
  124OSM    H2S13184   4.371   5.801   6.614  0.0052 -0.6529 -0.7685
  124OSM    C3S13185   4.289   5.625   6.712 -0.1717 -0.7003 -0.7094
  124OSM    H3S13186   4.328   5.538   6.768 -0.3372 -0.4352 -0.1793
  124OSM     O313187   4.230   5.574   6.591 -0.4968  0.3202  0.5386
  124OSM    HO313188   4.308   5.577   6.536  0.3045  0.8124  1.6597
  124OSM    C4S13189   4.178   5.701   6.784 -0.1184  0.3327  0.5631
  124OSM    H4S13190   4.100   5.752   6.726 -2.4823 -1.8443  1.6356
  124OSM    C5S13191   4.164   5.702   6.920  0.4350 -0.8984  0.3053
  124OSM    H5S13192   4.235   5.650   6.986  1.7188 -1.4579 -1.4314
  124OSM    C6S13193   4.067   5.793   7.002  0.3897 -0.0825 -0.5582
  124OSM    H6S13194   3.986   5.815   6.929  0.3800 -1.2063 -0.8924
  124OSM    H6T13195   4.118   5.886   7.034 -0.2881  0.5026 -1.1321
  124OSM    C7S13196   4.008   5.719   7.127 -0.0773 -0.2816 -0.0208
  124OSM    H7S13197   4.090   5.662   7.175  0.2034  2.3539  2.9095
  124OSM    H7T13198   3.925   5.650   7.104 -0.0143 -0.3538 -0.0308
  124OSM    C8S13199   3.955   5.817   7.238  0.0012 -0.5442  0.4578
  124OSM    H8S13200   3.882   5.889   7.194  0.7436  1.3775  2.1774
  124OSM    H8T13201   4.047   5.872   7.269 -0.5003  0.2054  0.6413
  124OSM    C9S13202   3.893   5.747   7.357  0.5549 -0.0059  0.7890
  124OSM    H9S13203   3.968   5.670   7.384 -0.4154 -0.9577  0.8407
  124OSM    H9T13204   3.800   5.690   7.336  0.5226  0.0645  0.7401
  124OSM   C10S13205   3.870   5.843   7.485  0.6696 -0.1537  0.1609
  124OSM   H10S13206   3.786   5.910   7.456  0.4174 -0.0081  1.1721
  124OSM   H10T13207   3.953   5.910   7.513 -1.5102  2.7858  0.0553
  124OSM   C11S13208   3.821   5.767   7.614 -0.0943 -0.0968 -0.5371
  124OSM   H11S13209   3.913   5.713   7.647 -0.8545  1.0653  4.2488
  124OSM   H11T13210   3.748   5.691   7.580 -0.5103 -0.7425  1.6563
  124OSM   C12S13211   3.786   5.847   7.734 -0.9324  0.1477 -0.8963
  124OSM   H12S13212   3.691   5.903   7.714 -1.0665  0.6909  1.1113
  124OSM   H12T13213   3.856   5.925   7.771 -2.2910  0.9561  0.0932
  124OSM   C13S13214   3.756   5.753   7.856 -0.1024 -0.0193 -0.2284
  124OSM   H13S13215   3.843   5.686   7.875 -0.8669 -0.9359  0.1779
  124OSM   H13T13216   3.675   5.682   7.826 -0.5681  0.0667  0.7786
  124OSM   C14S13217   3.709   5.818   7.987  0.4511  0.1574 -0.3583
  124OSM   H14S13218   3.606   5.858   7.996  0.0138 -1.0087  0.1376
  124OSM   H14T13219   3.772   5.907   8.006 -0.6767  0.9155 -0.0759
  124OSM   C15S13220   3.715   5.712   8.105 -0.6197 -0.2279  0.5780
  124OSM   H15S13221   3.674   5.612   8.081  1.1768 -0.6150 -1.2359
  124OSM   H15T13222   3.666   5.753   8.196 -1.5789  0.1354 -0.0907
  124OSM   C16S13223   3.856   5.693   8.153 -0.0783  0.0468 -0.4523
  124OSM   H16S13224   3.919   5.781   8.178  0.9377 -0.9753  0.7541
  124OSM   H16T13225   3.917   5.640   8.077 -0.6149 -0.9206 -0.2226
  124OSM   C17S13226   3.841   5.587   8.263 -1.9104 -0.5768 -0.1027
  124OSM   H17S13227   3.809   5.491   8.217  0.7984 -1.4220 -0.3993
  124OSM   H17T13228   3.760   5.618   8.332 -1.4350  2.0856 -0.6459
  124OSM   C18S13229   3.959   5.580   8.360  0.3101  0.6455  0.5677
  124OSM   H18S13230   3.935   5.511   8.443  0.6723  0.9774  0.9532
  124OSM   H18T13231   3.998   5.676   8.399  0.1207  1.2131 -0.5981
  124OSM   H18U13232   4.041   5.521   8.314 -1.3395 -1.3456  0.0189
  124OSM    C1F13233   4.555   5.889   6.770  0.2552  1.0805  0.0233
  124OSM     OF13234   4.557   5.944   6.661 -0.6994  0.1807  0.1772
  124OSM    C2F13235   4.657   5.930   6.877 -0.1011  0.0303  0.0192
  124OSM    H2F13236   4.611   5.981   6.964 -1.5857  0.9449 -1.2361
  124OSM    H2G13237   4.712   6.013   6.827  0.5804 -1.5979 -2.0537
  124OSM    C3F13238   4.759   5.828   6.915 -0.6525 -0.2393 -0.0624
  124OSM    H3F13239   4.797   5.776   6.825  0.2209  1.1942 -0.5546
  124OSM    H3G13240   4.708   5.753   6.979  2.9113 -0.7202  2.5139
  124OSM    C4F13241   4.872   5.879   7.002 -0.6071 -0.1660  0.0883
  124OSM    H4F13242   4.842   5.937   7.092 -1.7200 -0.0995 -0.3044
  124OSM    H4G13243   4.928   5.956   6.945 -1.0536  1.1297  1.3356
  124OSM    C5F13244   4.973   5.766   7.039  0.5409  0.6085 -0.5838
  124OSM    H5F13245   5.072   5.791   6.995  0.1638  1.6347 -0.8670
  124OSM    H5G13246   4.933   5.682   6.978 -0.6425  1.2027 -0.6479
  124OSM    C6F13247   4.970   5.735   7.194 -0.1134  0.1359 -0.3212
  124OSM    H6F13248   4.992   5.627   7.205 -0.5541  0.1405  0.7348
  124OSM    H6G13249   4.872   5.749   7.243  0.1901 -2.8543  1.3843
  124OSM    C7F13250   5.066   5.830   7.264 -0.1271 -0.3497 -0.8120
  124OSM    H7F13251   5.005   5.922   7.271  0.0110  0.0495 -3.7369
  124OSM    H7G13252   5.160   5.844   7.206 -0.8436  3.1963 -1.3252
  124OSM    C8F13253   5.098   5.791   7.411 -0.0957 -0.7673  0.5795
  124OSM    H8F13254   5.173   5.870   7.435  0.8592 -1.8444  1.2710
  124OSM    H8G13255   5.160   5.699   7.418 -0.1256 -0.7204  1.5222
  124OSM    C9F13256   4.984   5.802   7.505  0.8540  0.5835 -0.5168
  124OSM    H9F13257   4.914   5.718   7.497  0.1689  1.1437 -0.4688
  124OSM   C10F13258   4.956   5.894   7.604 -0.1180 -0.4081  0.0782
  124OSM   H10F13259   4.866   5.895   7.667 -1.6240  3.1016 -1.8156
  124OSM   C11F13260   5.042   6.007   7.645 -1.2344  0.4005 -0.4358
  124OSM   H11F13261   5.055   6.080   7.563 -2.1899  0.0561 -0.9079
  124OSM   H11G13262   5.135   5.955   7.676 -1.5772 -0.1149 -0.2604
  124OSM   C12F13263   5.007   6.082   7.778 -0.5200 -0.5967 -0.1538
  124OSM   H12F13264   4.913   6.135   7.754 -1.2261 -2.6496 -2.2781
  124OSM   H12G13265   5.094   6.151   7.792  0.2428 -1.3771 -0.8851
  124OSM   C13F13266   4.976   6.002   7.903 -0.0552  0.3692  0.1438
  124OSM   H13F13267   5.058   5.930   7.925 -0.2289 -1.6112 -4.5724
  124OSM   H13G13268   4.888   5.938   7.879  0.9406 -1.4815  1.2076
  124OSM   C14F13269   4.948   6.090   8.027 -0.0687 -0.3236  0.1231
  124OSM   H14F13270   4.874   6.166   7.994  2.4862  1.6113 -1.4447
  124OSM   H14G13271   5.047   6.137   8.045 -0.2596  0.1731 -0.1140
  124OSM   C15F13272   4.898   5.998   8.145  0.5703  0.7010  0.1942
  124OSM   H15F13273   4.956   5.905   8.127  0.6894  0.9088 -0.5149
  124OSM   H15G13274   4.787   5.987   8.137  0.3968  3.3092 -4.2925
  124OSM   C16F13275   4.928   6.037   8.290  0.3632 -0.4229 -0.4469
  124OSM   H16F13276   5.034   6.072   8.286  0.0760  0.9362  1.9221
  124OSM   H16G13277   4.947   5.941   8.342 -0.7835 -0.0969  0.6103
  124OSM   C17F13278   4.819   6.130   8.346  0.2174 -0.4605  0.4324
  124OSM   H17F13279   4.819   6.234   8.305 -1.4807 -0.5516  0.1344
  124OSM   H17G13280   4.853   6.149   8.450  0.9221 -0.9099  0.2896
  124OSM   C18F13281   4.676   6.086   8.347 -0.0311 -0.5577 -0.1875
  124OSM   H18F13282   4.617   6.125   8.432  0.4144  0.0286 -0.1406
  124OSM   H18G13283   4.666   5.977   8.368 -2.4698 -0.0150  1.9262
  124OSM   H18H13284   4.610   6.100   8.258 -0.1446  1.1057  0.1279
  125OSM      N13285   2.256   0.022   6.173  0.4776  0.1193  0.0322
  125OSM    C1513286   2.108   0.013   6.200 -0.5352  0.9477 -0.4271
  125OSM   H15A13287   2.086  -0.066   6.271  0.0448  1.2730  0.1274
  125OSM   H15B13288   2.053  -0.002   6.108 -0.4271  0.3369 -0.3899
  125OSM   H15C13289   2.074   0.104   6.248  1.7315  0.4534  2.3797
  125OSM    C1413290   2.296  -0.111   6.122  0.1833  0.1547  0.0956
  125OSM   H14A13291   2.396  -0.114   6.082  0.1437  1.3857 -0.1262
  125OSM   H14B13292   2.224  -0.154   6.053 -1.1247  1.4244  0.6082
  125OSM   H14C13293   2.302  -0.182   6.203  3.2828  0.7126  0.4527
  125OSM    C1313294   2.274   0.128   6.070  0.5690  0.2095  0.7319
  125OSM   H13A13295   2.212   0.106   5.984  0.9986 -0.1827  0.5123
  125OSM   H13B13296   2.376   0.131   6.033  0.1991 -1.1796 -0.4701
  125OSM   H13C13297   2.244   0.217   6.123 -2.8333 -1.5664  2.0478
  125OSM    C1213298   2.336   0.054   6.299  0.6142  0.7398 -0.0604
  125OSM   H12A13299   2.442   0.055   6.277  0.4702  0.5195 -0.7817
  125OSM   H12B13300   2.318  -0.039   6.351 -2.5649 -1.5102 -4.4881
  125OSM    C1113301   2.295   0.185   6.375 -0.8012 -0.5715 -0.7392
  125OSM   H11A13302   2.347   0.188   6.473 -1.3426  0.4415 -0.4705
  125OSM   H11B13303   2.186   0.170   6.393 -0.7821  1.4747  1.6484
  125OSM      P13304   2.462   0.372   6.307  0.2829  0.0041  0.0402
  125OSM    O1313305   2.566   0.279   6.261 -0.3058 -0.4174 -0.1803
  125OSM    O1413306   2.454   0.496   6.229 -0.1986 -0.1002  0.0570
  125OSM    O1113307   2.477   0.398   6.457 -0.1002 -0.0511 -0.3417
  125OSM    O1213308   2.318   0.302   6.300 -0.4101 -0.0862  0.2220
  125OSM    C1S13309   2.375   0.475   6.519 -0.0208 -0.3293 -0.1871
  125OSM    H1S13310   2.271   0.437   6.508  0.0440 -0.7869  0.6853
  125OSM    H1T13311   2.353   0.572   6.469 -3.3331 -1.0755 -0.4313
  125OSM     NF13312   2.293   0.605   6.723  0.1177  0.9583 -0.4416
  125OSM    HNF13313   2.302   0.704   6.732  0.6016  0.8580  0.1979
  125OSM    C2S13314   2.403   0.522   6.669 -0.7568 -0.4751  0.8707
  125OSM    H2S13315   2.409   0.425   6.724  0.7942 -1.2831 -0.6224
  125OSM    C3S13316   2.538   0.595   6.667 -0.1629  0.3092  0.5473
  125OSM    H3S13317   2.517   0.692   6.617 -4.6362 -1.1667 -0.8879
  125OSM     O313318   2.644   0.533   6.597 -0.5957 -0.2002  0.2200
  125OSM    HO313319   2.595   0.470   6.544  0.8674 -1.2448  0.0659
  125OSM    C4S13320   2.587   0.634   6.809  0.8270  0.1329  0.4078
  125OSM    H4S13321   2.529   0.718   6.850  1.1411  0.7887 -0.4657
  125OSM    C5S13322   2.668   0.558   6.887  0.8283 -0.3195 -0.5959
  125OSM    H5S13323   2.712   0.463   6.854  0.5341 -1.2935  1.6382
  125OSM    C6S13324   2.696   0.603   7.024 -0.8199  0.6188 -0.0382
  125OSM    H6S13325   2.676   0.520   7.094 -2.2182  2.8066  2.3478
  125OSM    H6T13326   2.631   0.686   7.060  0.5825  1.8740 -0.2789
  125OSM    C7S13327   2.846   0.653   7.052  0.0537  0.1719  0.0763
  125OSM    H7S13328   2.863   0.751   7.003  0.6196  0.3666  0.6454
  125OSM    H7T13329   2.925   0.584   7.016 -0.0975  0.1380 -0.1921
  125OSM    C8S13330   2.877   0.658   7.196  0.1079  0.0471 -0.4151
  125OSM    H8S13331   2.850   0.557   7.234  0.7358 -0.2292 -0.6952
  125OSM    H8T13332   2.807   0.731   7.241 -0.0859 -0.1548 -0.3808
  125OSM    C9S13333   3.027   0.687   7.230 -0.1849  0.5241 -0.5311
  125OSM    H9S13334   3.045   0.785   7.182 -2.9878  0.0036 -2.8982
  125OSM    H9T13335   3.094   0.604   7.197  0.3369  0.6158  0.2638
  125OSM   C10S13336   3.038   0.704   7.383  0.1628 -0.7739 -0.6664
  125OSM   H10S13337   2.997   0.611   7.426 -0.9441  0.0681  0.1382
  125OSM   H10T13338   2.970   0.787   7.412  1.4741 -0.6491  2.3524
  125OSM   C11S13339   3.178   0.752   7.423 -0.3674 -0.4294 -0.0805
  125OSM   H11S13340   3.205   0.836   7.356  0.6175 -1.3903 -0.9428
  125OSM   H11T13341   3.245   0.665   7.402  1.9947  1.2075  0.2896
  125OSM   C12S13342   3.197   0.776   7.571 -1.0234  0.0307  0.2629
  125OSM   H12S13343   3.155   0.701   7.641  1.5246 -0.2925  1.5798
  125OSM   H12T13344   3.140   0.867   7.600 -0.2626  0.6178 -0.0275
  125OSM   C13S13345   3.340   0.785   7.620  0.1672 -0.4339  0.0228
  125OSM   H13S13346   3.391   0.871   7.571 -2.1031 -0.0135 -1.8135
  125OSM   H13T13347   3.391   0.694   7.583  0.1265 -1.2581  1.9061
  125OSM   C14S13348   3.353   0.799   7.773 -0.4148 -0.2993 -0.1940
  125OSM   H14S13349   3.269   0.752   7.830 -0.4863  0.3720  0.2661
  125OSM   H14T13350   3.345   0.907   7.797  0.2645 -0.3261  0.1729
  125OSM   C15S13351   3.487   0.746   7.825 -0.1015  0.2862 -0.5634
  125OSM   H15S13352   3.567   0.797   7.767 -0.3314  0.8804 -0.3612
  125OSM   H15T13353   3.500   0.636   7.820  0.3235  0.2856  0.3219
  125OSM   C16S13354   3.515   0.793   7.971  0.0171 -0.0185  0.6500
  125OSM   H16S13355   3.481   0.898   7.982 -1.4082 -0.3132 -0.5693
  125OSM   H16T13356   3.622   0.786   7.997  1.4698 -2.7633 -4.7293
  125OSM   C17S13357   3.441   0.712   8.074  0.3375 -0.7995  0.0524
  125OSM   H17S13358   3.483   0.609   8.071  0.5093 -0.7045 -1.7723
  125OSM   H17T13359   3.337   0.710   8.036 -1.3900  4.1767  3.4671
  125OSM   C18S13360   3.443   0.794   8.210 -0.2094  0.2889 -0.6203
  125OSM   H18S13361   3.542   0.791   8.260 -0.8371  1.1036  0.7137
  125OSM   H18T13362   3.361   0.751   8.272  0.0013 -0.5824 -0.9226
  125OSM   H18U13363   3.409   0.899   8.196  1.6987  1.4339  2.4041
  125OSM    C1F13364   2.176   0.555   6.750  0.0339  0.2870  0.3158
  125OSM     OF13365   2.149   0.440   6.722  0.6630  0.3044  0.0406
  125OSM    C2F13366   2.075   0.652   6.808  0.3742  0.1290 -0.5483
  125OSM    H2F13367   1.999   0.657   6.728  1.2165 -0.3089 -1.3962
  125OSM    H2G13368   2.120   0.752   6.828 -1.8722  0.5007  3.8017
  125OSM    C3F13369   2.001   0.604   6.939 -0.2230  0.0027 -0.4612
  125OSM    H3F13370   1.965   0.500   6.924 -0.3983  0.0282 -0.2269
  125OSM    H3G13371   1.909   0.663   6.959 -1.1978 -1.5819 -0.0784
  125OSM    C4F13372   2.085   0.607   7.068 -1.0101  0.1559  0.7502
  125OSM    H4F13373   2.131   0.708   7.074  1.2628 -0.7760  0.0488
  125OSM    H4G13374   2.172   0.538   7.061 -0.3466  1.0002  0.5030
  125OSM    C5F13375   2.009   0.578   7.203  0.3634  0.4098  0.2900
  125OSM    H5F13376   1.964   0.476   7.205  2.6141 -0.6631  3.1811
  125OSM    H5G13377   1.925   0.650   7.216 -1.5606 -1.5244 -0.8229
  125OSM    C6F13378   2.090   0.587   7.330  0.7497 -0.5963  0.1231
  125OSM    H6F13379   2.180   0.526   7.307 -0.2228 -1.4466 -1.6091
  125OSM    H6G13380   2.044   0.554   7.425  2.1937  0.4804  1.2521
  125OSM    C7F13381   2.147   0.733   7.361  1.0482  0.3752 -0.4041
  125OSM    H7F13382   2.071   0.797   7.411 -1.0205 -1.0090 -1.6296
  125OSM    H7G13383   2.167   0.781   7.263  0.9467  1.8584  0.2774
  125OSM    C8F13384   2.275   0.731   7.447 -0.9519 -0.0216  0.5396
  125OSM    H8F13385   2.247   0.669   7.534  0.4169 -0.0859  0.9510
  125OSM    H8G13386   2.286   0.837   7.479  1.7637  0.5115 -1.7082
  125OSM    C9F13387   2.401   0.671   7.391  0.0008  0.3619 -0.4073
  125OSM    H9F13388   2.375   0.635   7.290 -0.8323  1.6773 -0.6857
  125OSM   C10F13389   2.532   0.668   7.433  0.8060 -0.2196 -0.0227
  125OSM   H10F13390   2.615   0.636   7.369  1.1162 -1.3242  0.8967
  125OSM   C11F13391   2.583   0.735   7.557 -0.0297  0.5458 -0.7009
  125OSM   H11F13392   2.507   0.723   7.638  0.5634 -0.4392 -0.2760
  125OSM   H11G13393   2.603   0.844   7.548  1.1284  0.5168  0.9288
  125OSM   C12F13394   2.718   0.667   7.598  0.3767 -0.0704  0.1832
  125OSM   H12F13395   2.769   0.634   7.505 -0.6630 -0.3291 -0.3135
  125OSM   H12G13396   2.691   0.578   7.658 -0.6794 -0.7600 -1.2497
  125OSM   C13F13397   2.811   0.760   7.677 -0.2592  0.3182 -0.2380
  125OSM   H13F13398   2.849   0.847   7.619  0.5524 -0.8752 -1.5685
  125OSM   H13G13399   2.899   0.700   7.706 -1.5698 -0.4818  2.3674
  125OSM   C14F13400   2.736   0.811   7.810 -0.0358 -0.2518  0.2427
  125OSM   H14F13401   2.688   0.736   7.876  1.3265  0.3335  1.9681
  125OSM   H14G13402   2.647   0.872   7.784  0.3032 -0.0396 -0.4447
  125OSM   C15F13403   2.832   0.902   7.892 -0.0105  0.4375  0.0119
  125OSM   H15F13404   2.765   0.928   7.977 -0.0266 -0.2441  0.2114
  125OSM   H15G13405   2.864   0.988   7.830  1.3960  0.0972  0.2427
  125OSM   C16F13406   2.953   0.827   7.956 -0.5049 -0.1513  0.0145
  125OSM   H16F13407   3.034   0.813   7.880 -0.2977  1.0868 -0.0020
  125OSM   H16G13408   2.915   0.730   7.996  0.7920 -1.3025 -1.4064
  125OSM   C17F13409   3.015   0.902   8.084  0.0690  1.0787  0.5791
  125OSM   H17F13410   3.064   0.832   8.154  1.0337  0.6825 -0.4642
  125OSM   H17G13411   2.927   0.937   8.142 -0.8169  1.7945 -1.1194
  125OSM   C18F13412   3.110   1.014   8.035  0.3808 -0.2831  0.3098
  125OSM   H18F13413   3.148   1.067   8.125 -0.1485 -1.1213  1.0395
  125OSM   H18G13414   3.056   1.079   7.962  0.7231 -1.2508 -0.8400
  125OSM   H18H13415   3.194   0.968   7.977  2.2190  2.9036  0.1849
  126OSM      N13416   2.610   6.199   6.631 -0.3366 -0.8585  0.6935
  126OSM    C1513417   2.509   6.175   6.529 -0.2238 -0.0160  0.8600
  126OSM   H15A13418   2.462   6.270   6.510 -0.9667 -0.2126  1.5979
  126OSM   H15B13419   2.434   6.108   6.569 -0.4211  0.4618  1.3145
  126OSM   H15C13420   2.553   6.138   6.438 -2.6280 -1.2372  0.1012
  126OSM    C1413421   2.663   6.073   6.685  0.4479 -0.3469  0.3591
  126OSM   H14A13422   2.695   6.003   6.610  0.9079 -1.7961  1.8471
  126OSM   H14B13423   2.585   6.020   6.739 -0.9786  1.5534  0.2790
  126OSM   H14C13424   2.747   6.091   6.750 -0.6461  1.7118  1.3187
  126OSM    C1313425   2.719   6.280   6.571 -0.3906 -0.6504  0.2610
  126OSM   H13A13426   2.792   6.304   6.648  0.6107  2.3944 -1.4714
  126OSM   H13B13427   2.677   6.365   6.520  0.4587 -1.0219 -1.0979
  126OSM   H13C13428   2.776   6.228   6.496 -2.7221  0.5424 -2.5011
  126OSM    C1213429   2.538   6.267   6.750  0.3826 -0.7940  1.1391
  126OSM   H12A13430   2.606   6.258   6.834  0.8102  0.2142  0.9147
  126OSM   H12B13431   2.442   6.223   6.776 -0.0408 -0.3969  0.2714
  126OSM    C1113432   2.507   6.421   6.730 -0.4995 -0.1064  0.1897
  126OSM   H11A13433   2.599   6.478   6.704 -0.0464 -1.0709 -0.3710
  126OSM   H11B13434   2.477   6.462   6.829 -0.3584 -0.2373  0.2860
  126OSM      P13435   2.399   6.525   6.511 -0.1784 -0.0831  0.3542
  126OSM    O1313436   2.540   6.534   6.456  0.0738 -0.0243 -0.4071
  126OSM    O1413437   2.298   6.471   6.414  0.0157 -0.3702  0.1170
  126OSM    O1113438   2.355   6.678   6.548  0.2545 -0.2359 -0.1325
  126OSM    O1213439   2.394   6.438   6.643 -0.1843  0.5651  0.0857
  126OSM    C1S13440   2.246   6.696   6.645  0.0150 -0.0156 -0.4925
  126OSM    H1S13441   2.179   6.608   6.647  0.8233 -0.7247  3.1264
  126OSM    H1T13442   2.184   6.782   6.613  0.6046  0.6763  0.1789
  126OSM     NF13443   2.200   6.754   6.882 -0.1185  0.2977 -0.0400
  126OSM    HNF13444   2.151   6.841   6.882  0.9568  0.9323 -0.9962
  126OSM    C2S13445   2.306   6.738   6.784 -0.3252 -0.0535 -0.4652
  126OSM    H2S13446   2.380   6.665   6.821  2.4007  2.6711 -0.1537
  126OSM    C3S13447   2.392   6.868   6.758  0.2428 -0.4173  0.2689
  126OSM    H3S13448   2.346   6.952   6.700 -1.0701  0.9107  3.0656
  126OSM     O313449   2.516   6.844   6.694 -0.1744 -0.2358  0.6503
  126OSM    HO313450   2.482   6.789   6.623  1.4575  0.3521 -0.6401
  126OSM    C4S13451   2.431   6.926   6.892 -0.2522  0.6857 -0.6887
  126OSM    H4S13452   2.500   6.859   6.946 -1.6264 -0.0750  0.1770
  126OSM    C5S13453   2.390   7.043   6.944  0.0975 -0.0248  0.5091
  126OSM    H5S13454   2.319   7.098   6.881 -0.7428 -1.4044  0.1860
  126OSM    C6S13455   2.413   7.099   7.082 -0.6382  0.3234 -0.0949
  126OSM    H6S13456   2.313   7.137   7.113 -1.6270  0.7674 -3.4607
  126OSM    H6T13457   2.477   7.189   7.068 -2.3219  1.7743  1.0820
  126OSM    C7S13458   2.484   7.020   7.199  1.0669  0.0036 -0.0661
  126OSM    H7S13459   2.579   6.994   7.148 -0.5662  0.3027 -3.5672
  126OSM    H7T13460   2.432   6.922   7.209 -3.8137  2.2330 -0.4994
  126OSM    C8S13461   2.477   7.095   7.338  0.6880  0.6056 -0.4336
  126OSM    H8S13462   2.370   7.106   7.366  0.8017 -0.6366  0.5888
  126OSM    H8T13463   2.523   7.195   7.328  0.8168  0.5357 -0.5487
  126OSM    C9S13464   2.535   7.004   7.450  0.0624  0.3698  0.4189
  126OSM    H9S13465   2.645   6.994   7.434 -0.3523 -0.5969 -2.2948
  126OSM    H9T13466   2.486   6.905   7.460 -1.1249  1.0772  2.2190
  126OSM   C10S13467   2.521   7.072   7.580 -0.1591 -0.2431 -0.0472
  126OSM   H10S13468   2.416   7.110   7.586 -0.2048 -0.5134  1.2403
  126OSM   H10T13469   2.589   7.159   7.590 -0.7872 -0.0166  3.9585
  126OSM   C11S13470   2.532   6.990   7.708  0.2428  0.1012  0.6902
  126OSM   H11S13471   2.628   6.936   7.727  0.1558 -1.0874 -1.8781
  126OSM   H11T13472   2.451   6.914   7.711 -1.1192  1.5038  0.6417
  126OSM   C12S13473   2.520   7.096   7.826 -0.2073  0.4300  1.0265
  126OSM   H12S13474   2.436   7.165   7.807  1.0875  1.0905 -3.4588
  126OSM   H12T13475   2.612   7.159   7.829 -0.8534  1.3493  2.3985
  126OSM   C13S13476   2.485   7.024   7.962 -0.1616  0.4742  0.8911
  126OSM   H13S13477   2.581   6.972   7.985  1.9046  2.3755 -2.4795
  126OSM   H13T13478   2.399   6.955   7.947 -0.5224  1.2872 -1.0105
  126OSM   C14S13479   2.448   7.118   8.074  0.6237 -0.2526 -0.3680
  126OSM   H14S13480   2.346   7.158   8.055 -0.3616 -2.0605  0.7767
  126OSM   H14T13481   2.514   7.207   8.066 -0.3607  0.5121 -0.1823
  126OSM   C15S13482   2.443   7.055   8.204 -0.8920 -0.1650 -0.8814
  126OSM   H15S13483   2.427   7.133   8.281 -0.6825 -0.6984 -0.2947
  126OSM   H15T13484   2.537   7.004   8.234 -2.2650 -0.8927  2.6684
  126OSM   C16S13485   2.331   6.948   8.221 -0.0870  0.0396 -0.6865
  126OSM   H16S13486   2.369   6.852   8.179 -1.2675 -1.1945  0.9611
  126OSM   H16T13487   2.234   6.979   8.178 -2.3972 -2.4682  2.3235
  126OSM   C17S13488   2.314   6.922   8.373 -0.1918 -0.9415 -0.0443
  126OSM   H17S13489   2.277   7.010   8.429 -0.8937 -1.5206  0.4295
  126OSM   H17T13490   2.411   6.892   8.417  0.0768 -0.9766 -0.6456
  126OSM   C18S13491   2.222   6.806   8.396  0.4518  0.0192 -0.6842
  126OSM   H18S13492   2.269   6.718   8.348  0.3392  0.5304 -1.7902
  126OSM   H18T13493   2.119   6.816   8.354 -0.4896 -1.3261  1.1837
  126OSM   H18U13494   2.213   6.798   8.506 -0.0862 -1.5284 -0.8156
  126OSM    C1F13495   2.148   6.649   6.938  0.4680  0.1528 -0.4363
  126OSM     OF13496   2.198   6.539   6.929 -0.1456  0.5887 -0.0766
  126OSM    C2F13497   2.029   6.665   7.018  0.6142  0.2848 -0.0154
  126OSM    H2F13498   1.957   6.584   6.997 -0.1982  1.5856 -2.7746
  126OSM    H2G13499   1.983   6.762   6.987  0.1233  0.5744  1.5631
  126OSM    C3F13500   2.056   6.672   7.169 -0.0389 -0.1415 -0.3125
  126OSM    H3F13501   2.110   6.588   7.217 -0.9752 -1.0548 -0.8241
  126OSM    H3G13502   1.960   6.676   7.224  0.7032 -2.5076  1.3111
  126OSM    C4F13503   2.153   6.794   7.207  0.1808  0.0582  0.3051
  126OSM    H4F13504   2.104   6.890   7.180 -2.6547 -1.6419 -1.0815
  126OSM    H4G13505   2.239   6.777   7.139 -0.0674 -2.1212  0.4664
  126OSM    C5F13506   2.199   6.789   7.357 -0.2431 -0.3802 -0.0137
  126OSM    H5F13507   2.286   6.855   7.375 -0.2920 -1.1249  3.7199
  126OSM    H5G13508   2.232   6.684   7.374 -1.1493 -0.8329 -0.8900
  126OSM    C6F13509   2.092   6.811   7.462  0.4529 -0.0393  0.1345
  126OSM    H6F13510   2.014   6.734   7.446 -1.2903  1.3162  1.7765
  126OSM    H6G13511   2.045   6.908   7.438  0.6628  0.2139  0.7207
  126OSM    C7F13512   2.136   6.802   7.606 -0.3089 -0.5428 -0.0631
  126OSM    H7F13513   2.219   6.729   7.596 -0.5586 -0.7918 -0.3430
  126OSM    H7G13514   2.057   6.747   7.661 -1.4029  1.1683  0.1322
  126OSM    C8F13515   2.159   6.936   7.682 -0.0696 -0.1174 -0.1748
  126OSM    H8F13516   2.256   6.969   7.639 -0.7530 -1.0155 -2.5752
  126OSM    H8G13517   2.183   6.911   7.788 -1.1549 -1.5842 -0.2413
  126OSM    C9F13518   2.051   7.034   7.658  0.5852 -0.4510 -0.2671
  126OSM    H9F13519   2.053   7.090   7.564  0.4058  0.7736  0.4338
  126OSM   C10F13520   1.942   7.043   7.734 -0.1234 -1.2925 -0.3188
  126OSM   H10F13521   1.858   7.107   7.703  0.7657  1.2069  2.0187
  126OSM   C11F13522   1.913   6.966   7.861 -0.0539  0.3006 -0.7778
  126OSM   H11F13523   1.962   6.866   7.859 -2.3919 -0.8942 -0.6626
  126OSM   H11G13524   1.810   6.929   7.875  0.7701 -1.1120  2.8838
  126OSM   C12F13525   1.954   7.034   7.994  0.5546 -0.2242 -0.2237
  126OSM   H12F13526   1.898   7.128   8.012 -0.0683 -0.5547 -0.4114
  126OSM   H12G13527   2.060   7.067   7.991  0.4158  0.3027  0.3622
  126OSM   C13F13528   1.956   6.949   8.121  0.6586  0.7368 -1.2089
  126OSM   H13F13529   1.987   7.019   8.201 -0.0393 -0.5408  0.2324
  126OSM   H13G13530   2.041   6.878   8.121  0.8237  0.7796  1.9922
  126OSM   C14F13531   1.826   6.879   8.157  0.2673 -1.8088  0.1448
  126OSM   H14F13532   1.794   6.833   8.061 -1.2022  0.2898 -0.4622
  126OSM   H14G13533   1.751   6.960   8.176  1.7971 -0.4305  0.5675
  126OSM   C15F13534   1.842   6.785   8.271  0.4856  0.2974 -0.0333
  126OSM   H15F13535   1.936   6.727   8.257 -0.3404 -0.8148 -1.2094
  126OSM   H15G13536   1.763   6.708   8.259  2.0044 -0.9890 -2.5811
  126OSM   C16F13537   1.822   6.855   8.401  0.2574 -0.2230 -0.2349
  126OSM   H16F13538   1.716   6.884   8.416  0.5771 -0.0407  2.1998
  126OSM   H16G13539   1.887   6.944   8.417 -1.1141  0.6609  0.5984
  126OSM   C17F13540   1.872   6.774   8.515 -0.6335  0.3414 -0.2379
  126OSM   H17F13541   1.981   6.792   8.504 -0.9838  3.0128 -0.1119
  126OSM   H17G13542   1.859   6.666   8.493  0.0657  0.3373 -0.6566
  126OSM   C18F13543   1.819   6.804   8.655 -0.8501  0.1346  0.7165
  126OSM   H18F13544   1.713   6.780   8.679 -0.0912 -3.3995  1.0318
  126OSM   H18G13545   1.830   6.911   8.685 -0.9345 -0.0163  1.2915
  126OSM   H18H13546   1.878   6.740   8.724 -0.9655 -1.5883 -0.7124
  127OSM      N13547   2.136   4.761   6.041 -0.3608 -0.1473  0.5130
  127OSM    C1513548   2.150   4.636   5.959  1.0168  0.2956 -0.1011
  127OSM   H15A13549   2.157   4.656   5.853 -1.2636  0.7071 -0.2271
  127OSM   H15B13550   2.067   4.568   5.972  1.9781 -0.8545  0.1578
  127OSM   H15C13551   2.237   4.579   5.988  0.4233 -0.1602  0.8265
  127OSM    C1413552   2.250   4.865   6.024  0.7035  0.7555 -0.8125
  127OSM   H14A13553   2.227   4.959   6.072  0.2645 -0.3134  1.1310
  127OSM   H14B13554   2.267   4.893   5.921  0.7754 -1.6899 -1.5348
  127OSM   H14C13555   2.347   4.838   6.062 -0.0940 -1.1805 -0.0133
  127OSM    C1313556   2.015   4.842   5.988  0.3570 -0.3398 -0.3091
  127OSM   H13A13557   1.919   4.795   5.999 -0.2839  1.1080  0.5788
  127OSM   H13B13558   2.031   4.874   5.886 -1.0109  1.3711 -0.0220
  127OSM   H13C13559   2.018   4.931   6.049 -1.0669  0.2970 -1.1274
  127OSM    C1213560   2.114   4.737   6.195 -0.3753 -1.4062 -0.2276
  127OSM   H12A13561   2.032   4.667   6.198 -1.3553 -0.2558  0.8209
  127OSM   H12B13562   2.070   4.822   6.245 -1.3225 -1.6990 -0.5549
  127OSM    C1113563   2.236   4.681   6.273  0.5858  0.2773  0.6804
  127OSM   H11A13564   2.263   4.580   6.237  1.3523  0.4030  0.8915
  127OSM   H11B13565   2.190   4.654   6.370 -1.1118 -1.1543 -0.4627
  127OSM      P13566   2.496   4.729   6.288 -0.4229 -0.0849  0.1731
  127OSM    O1313567   2.534   4.643   6.174  0.1699 -0.3570  0.2142
  127OSM    O1413568   2.573   4.853   6.302  0.2437  0.1328 -0.4411
  127OSM    O1113569   2.523   4.647   6.414  0.7108 -0.3673 -0.4279
  127OSM    O1213570   2.345   4.770   6.270 -0.0448 -0.2592 -0.3112
  127OSM    C1S13571   2.440   4.636   6.531  0.3145  0.0009 -0.3718
  127OSM    H1S13572   2.372   4.549   6.524 -0.0330  0.1033  1.2804
  127OSM    H1T13573   2.375   4.726   6.544  0.2525 -0.4246  3.3225
  127OSM     NF13574   2.439   4.633   6.774 -0.9595  0.5523  0.1059
  127OSM    HNF13575   2.440   4.720   6.824  1.7302  1.6223 -1.5579
  127OSM    C2S13576   2.526   4.620   6.661 -0.0396  0.0310 -0.0930
  127OSM    H2S13577   2.580   4.523   6.658  3.9372  2.0625 -1.6834
  127OSM    C3S13578   2.645   4.715   6.665 -0.5191 -0.8106 -0.0808
  127OSM    H3S13579   2.613   4.821   6.674  1.5608 -0.0957 -0.4157
  127OSM     O313580   2.735   4.707   6.556 -0.4057 -0.0646  0.3355
  127OSM    HO313581   2.684   4.684   6.478 -0.7754  0.6431  0.3636
  127OSM    C4S13582   2.729   4.674   6.785 -0.2271  0.7546 -0.0254
  127OSM    H4S13583   2.799   4.590   6.773  0.3394  1.0692  0.9593
  127OSM    C5S13584   2.736   4.737   6.899  0.3047  0.3148  0.4030
  127OSM    H5S13585   2.662   4.817   6.911 -1.9495 -1.2193 -2.0672
  127OSM    C6S13586   2.809   4.694   7.024 -0.2095 -0.5289  0.2662
  127OSM    H6S13587   2.897   4.760   7.043  0.0091  0.1659 -2.5688
  127OSM    H6T13588   2.851   4.591   7.019 -0.9670 -1.0984  3.7213
  127OSM    C7S13589   2.726   4.715   7.147 -0.1760  0.1212 -0.0104
  127OSM    H7S13590   2.649   4.635   7.150 -1.3922  1.2549 -0.0439
  127OSM    H7T13591   2.677   4.814   7.143  1.7919  1.1268 -0.4789
  127OSM    C8S13592   2.804   4.718   7.276  0.3781 -0.9528  0.0743
  127OSM    H8S13593   2.881   4.798   7.275 -0.9157  0.3494 -1.4553
  127OSM    H8T13594   2.859   4.626   7.306  1.1498 -0.0468  1.5267
  127OSM    C9S13595   2.707   4.764   7.382  0.0301 -0.4112 -0.5494
  127OSM    H9S13596   2.652   4.674   7.414  1.7310 -0.9720  0.9788
  127OSM    H9T13597   2.646   4.846   7.339  0.9470  0.0402 -1.0236
  127OSM   C10S13598   2.778   4.821   7.504  0.7468  0.0937 -0.0122
  127OSM   H10S13599   2.828   4.919   7.484  1.8477 -0.3085  0.6903
  127OSM   H10T13600   2.850   4.749   7.548 -0.5167 -1.0401  0.2793
  127OSM   C11S13601   2.691   4.853   7.635  0.2061 -0.0789 -0.0318
  127OSM   H11S13602   2.599   4.906   7.601  0.0576  0.2585  0.8902
  127OSM   H11T13603   2.744   4.924   7.702  0.9261  0.4075 -1.0920
  127OSM   C12S13604   2.651   4.731   7.720 -0.1230 -0.6080 -0.0065
  127OSM   H12S13605   2.743   4.671   7.735  0.5340 -0.2487 -2.1831
  127OSM   H12T13606   2.582   4.667   7.661  0.2754 -1.2907  0.2510
  127OSM   C13S13607   2.597   4.766   7.859  0.2374  0.1720  0.0146
  127OSM   H13S13608   2.531   4.680   7.884  1.0971 -0.6208 -0.4219
  127OSM   H13T13609   2.529   4.854   7.859  0.0900  0.0640 -0.8188
  127OSM   C14S13610   2.699   4.787   7.971 -0.0936  0.5858  0.6061
  127OSM   H14S13611   2.764   4.872   7.942  2.3360 -0.9498  1.2173
  127OSM   H14T13612   2.750   4.689   7.987 -0.1626  0.6280  1.1242
  127OSM   C15S13613   2.632   4.819   8.106 -0.3292  0.6513  0.2833
  127OSM   H15S13614   2.554   4.741   8.118  1.2553 -1.4448 -1.9916
  127OSM   H15T13615   2.592   4.922   8.095 -2.3200 -0.2042 -1.0710
  127OSM   C16S13616   2.732   4.816   8.225 -0.1021 -0.0334 -0.1362
  127OSM   H16S13617   2.784   4.720   8.207  1.5114  0.9630 -1.0148
  127OSM   H16T13618   2.665   4.818   8.314  0.8155 -0.1787  0.5692
  127OSM   C17S13619   2.836   4.934   8.230  0.6342 -0.0684  0.8713
  127OSM   H17S13620   2.772   5.025   8.236 -0.9498 -1.1048  0.1729
  127OSM   H17T13621   2.900   4.940   8.139 -0.2251 -1.6830  0.1321
  127OSM   C18S13622   2.930   4.923   8.349 -0.4522  0.2945  0.9368
  127OSM   H18S13623   2.952   4.814   8.353  0.1556  0.3100 -0.8739
  127OSM   H18T13624   2.889   4.969   8.441  1.2907  2.8374  0.5180
  127OSM   H18U13625   3.020   4.974   8.310 -1.3900  0.5955 -0.9741
  127OSM    C1F13626   2.352   4.533   6.807 -0.5833 -0.4882  0.1055
  127OSM     OF13627   2.330   4.439   6.732 -0.4753 -0.4297  0.3713
  127OSM    C2F13628   2.284   4.543   6.937  0.7366  0.1931 -0.6883
  127OSM    H2F13629   2.196   4.609   6.927  1.0202  0.5624 -0.7515
  127OSM    H2G13630   2.349   4.595   7.011  0.3307  1.6486 -1.3275
  127OSM    C3F13631   2.243   4.402   6.989  0.0017  0.4112  0.0100
  127OSM    H3F13632   2.323   4.325   6.979 -0.6109 -0.2319 -0.0457
  127OSM    H3G13633   2.158   4.354   6.935 -0.3099  1.0891 -0.1061
  127OSM    C4F13634   2.199   4.410   7.141  0.5878 -0.5517 -0.4980
  127OSM    H4F13635   2.150   4.313   7.162 -0.7446  0.2163  0.0836
  127OSM    H4G13636   2.119   4.487   7.153  0.1166 -0.9178 -1.2389
  127OSM    C5F13637   2.319   4.431   7.236  0.2910 -0.2816  0.2569
  127OSM    H5F13638   2.358   4.531   7.207 -1.8815  0.2362 -1.1075
  127OSM    H5G13639   2.403   4.361   7.217  0.7124 -0.3215  2.0677
  127OSM    C6F13640   2.279   4.423   7.379 -0.3665  0.0212 -0.3625
  127OSM    H6F13641   2.251   4.316   7.391 -0.7623  0.0728 -0.8212
  127OSM    H6G13642   2.187   4.477   7.411 -1.7201 -2.1090 -0.4638
  127OSM    C7F13643   2.395   4.442   7.478  0.4361  0.1384  0.3119
  127OSM    H7F13644   2.447   4.538   7.460 -0.7215  0.5479 -1.0373
  127OSM    H7G13645   2.475   4.367   7.458 -0.8488 -1.0527 -0.5209
  127OSM    C8F13646   2.347   4.431   7.628 -0.9112 -0.0225 -0.3647
  127OSM    H8F13647   2.440   4.425   7.689 -1.0839  0.3662 -0.0650
  127OSM    H8G13648   2.294   4.334   7.643 -2.5633  0.8798 -0.2479
  127OSM    C9F13649   2.275   4.550   7.680 -0.2502 -0.2068 -0.3433
  127OSM    H9F13650   2.330   4.645   7.669 -0.5116 -0.0100  0.0120
  127OSM   C10F13651   2.155   4.546   7.740  0.2789 -0.0689  0.1659
  127OSM   H10F13652   2.111   4.636   7.784  1.2724  1.1570 -1.2319
  127OSM   C11F13653   2.076   4.420   7.757  0.0743  0.4218 -0.0638
  127OSM   H11F13654   2.141   4.332   7.777 -0.0060  0.1250 -1.0462
  127OSM   H11G13655   1.995   4.403   7.682 -3.7451 -0.7150  3.9003
  127OSM   C12F13656   2.004   4.431   7.892 -0.1870  0.1526 -0.1963
  127OSM   H12F13657   2.066   4.485   7.967 -1.6083 -1.1353  2.0064
  127OSM   H12G13658   1.984   4.331   7.935  1.1391 -0.5957 -1.2264
  127OSM   C13F13659   1.866   4.494   7.887 -0.5482 -0.2954 -0.4482
  127OSM   H13F13660   1.804   4.438   7.813  0.8216 -0.3689 -1.5961
  127OSM   H13G13661   1.882   4.594   7.842 -1.2745 -0.2745 -0.6823
  127OSM   C14F13662   1.799   4.500   8.023  0.0611  0.0962 -0.9973
  127OSM   H14F13663   1.717   4.573   8.013 -0.0672  0.1813  0.5436
  127OSM   H14G13664   1.873   4.544   8.093 -1.1214 -2.1525  1.8428
  127OSM   C15F13665   1.751   4.372   8.082 -0.2378 -0.5805  0.0145
  127OSM   H15F13666   1.798   4.284   8.034  0.0401  0.1703 -1.1398
  127OSM   H15G13667   1.643   4.362   8.058 -0.0527  0.1681 -1.2224
  127OSM   C16F13668   1.767   4.369   8.230  0.9233 -0.1989  0.2342
  127OSM   H16F13669   1.712   4.449   8.284 -1.6370 -1.5826 -0.1566
  127OSM   H16G13670   1.872   4.374   8.267  0.2445  2.2484  2.1289
  127OSM   C17F13671   1.694   4.240   8.288 -0.1085 -0.1114  0.0738
  127OSM   H17F13672   1.731   4.150   8.234  3.2714  0.3815  1.3255
  127OSM   H17G13673   1.584   4.237   8.275 -0.0595  0.1036 -0.4472
  127OSM   C18F13674   1.724   4.210   8.439  0.8783  0.5851 -0.0203
  127OSM   H18F13675   1.708   4.303   8.497  0.7198  1.2527 -1.1010
  127OSM   H18G13676   1.832   4.190   8.455  0.6834  1.2343  2.6662
  127OSM   H18H13677   1.656   4.128   8.472  1.4177 -0.0931 -0.5424
  128OSM      N13678   4.669   1.143   5.763  0.1908 -0.6008  0.2583
  128OSM    C1513679   4.550   1.179   5.679  0.7514  0.7857 -0.2816
  128OSM   H15A13680   4.456   1.146   5.720  1.0001 -0.0597 -0.3729
  128OSM   H15B13681   4.557   1.123   5.587 -1.2760 -0.2182  0.1224
  128OSM   H15C13682   4.531   1.283   5.656 -1.1018  0.3090 -1.0735
  128OSM    C1413683   4.681   0.992   5.763  0.2026 -0.1326 -0.7191
  128OSM   H14A13684   4.593   0.959   5.816  1.8627  0.1024  2.4634
  128OSM   H14B13685   4.764   0.956   5.822 -1.0883  0.3876  1.5274
  128OSM   H14C13686   4.681   0.961   5.660  0.9965  0.9133 -1.0541
  128OSM    C1313687   4.782   1.206   5.685 -1.2443  0.5436  0.0588
  128OSM   H13A13688   4.876   1.163   5.717 -1.7240  1.2758  2.6661
  128OSM   H13B13689   4.794   1.312   5.701 -3.5106  1.2764 -2.4109
  128OSM   H13C13690   4.779   1.183   5.579 -1.4766  1.0491 -0.0502
  128OSM    C1213691   4.653   1.190   5.907  0.2730  0.2316  0.6089
  128OSM   H12A13692   4.570   1.139   5.953 -0.1014  0.5030  0.2437
  128OSM   H12B13693   4.611   1.288   5.925  0.5969  0.5295 -0.1715
  128OSM    C1113694   4.779   1.162   5.994  0.4663 -0.7104  0.6329
  128OSM   H11A13695   4.783   1.255   6.054  0.4339  0.6565 -1.3920
  128OSM   H11B13696   4.875   1.149   5.939 -0.8144 -2.1501 -1.4093
  128OSM      P13697   4.871   1.015   6.178  0.0967 -0.0205  0.0256
  128OSM    O1313698   4.823   0.918   6.270  0.1968 -0.1747 -0.1054
  128OSM    O1413699   4.994   0.975   6.105 -0.1700 -0.4642  0.2546
  128OSM    O1113700   4.905   1.144   6.255  0.3167  0.4353  0.0399
  128OSM    O1213701   4.759   1.048   6.068  0.5338  0.2933 -0.8404
  128OSM    C1S13702   4.829   1.210   6.363  0.2623  0.3156  0.1934
  128OSM    H1S13703   4.807   1.134   6.441 -1.1831  0.1635 -0.3372
  128OSM    H1T13704   4.725   1.241   6.342  0.6866  0.2662 -2.2297
  128OSM     NF13705   4.884   1.338   6.570  0.0682  0.2870  0.0570
  128OSM    HNF13706   4.834   1.421   6.594 -3.2235 -1.0038 -1.6350
  128OSM    C2S13707   4.921   1.317   6.428  0.0457  0.1378 -0.1745
  128OSM    H2S13708   5.022   1.270   6.421 -0.6673 -1.3703 -0.7038
  128OSM    C3S13709   4.932   1.447   6.336  0.1852  0.1167 -0.3976
  128OSM    H3S13710   4.831   1.493   6.346 -0.3798 -0.7410 -1.8229
  128OSM     O313711   4.957   1.415   6.200 -0.5889 -0.1379 -0.4048
  128OSM    HO313712   4.977   1.324   6.221  1.4162  0.8867  3.0489
  128OSM    C4S13713   5.043   1.531   6.393  0.5041  0.3304  0.5816
  128OSM    H4S13714   4.996   1.601   6.463 -1.7533 -1.7235  1.2741
  128OSM    C5S13715   5.176   1.525   6.380 -0.2321 -0.0427  0.4711
  128OSM    H5S13716   5.219   1.444   6.319  0.2890 -0.1564  0.9757
  128OSM    C6S13717   5.262   1.617   6.465 -0.0394  0.3086 -0.0991
  128OSM    H6S13718   5.296   1.689   6.388 -2.6686  2.0399  0.2671
  128OSM    H6T13719   5.352   1.562   6.502  0.3969 -0.3734 -2.0559
  128OSM    C7S13720   5.206   1.706   6.582  0.0291  0.0541 -0.5064
  128OSM    H7S13721   5.121   1.770   6.549 -2.1777 -1.2203  2.2350
  128OSM    H7T13722   5.289   1.774   6.613  2.8933 -4.0186  1.7297
  128OSM    C8S13723   5.161   1.643   6.718  0.0453 -0.0110 -0.0158
  128OSM    H8S13724   5.257   1.604   6.760  0.5966 -1.9478 -2.7642
  128OSM    H8T13725   5.095   1.557   6.695  0.6843 -0.5947  0.2806
  128OSM    C9S13726   5.095   1.738   6.817  0.9329 -0.0506 -0.7882
  128OSM    H9S13727   5.002   1.782   6.776  1.5579  0.5155 -1.6401
  128OSM    H9T13728   5.161   1.822   6.848  0.6719  0.6664 -2.1166
  128OSM   C10S13729   5.050   1.678   6.956 -0.3209  0.1447 -0.5959
  128OSM   H10S13730   4.971   1.602   6.935  0.5520 -0.5733 -1.4419
  128OSM   H10T13731   5.003   1.752   7.023  1.2736 -0.3381  1.1269
  128OSM   C11S13732   5.171   1.615   7.024  0.1142  0.3906  0.4927
  128OSM   H11S13733   5.259   1.682   7.014  1.8308 -2.0093 -1.7115
  128OSM   H11T13734   5.192   1.517   6.978  1.5262  1.1055 -0.4615
  128OSM   C12S13735   5.145   1.604   7.174 -0.0121 -0.2102  0.2288
  128OSM   H12S13736   5.225   1.541   7.217 -0.5650 -0.4500  0.9279
  128OSM   H12T13737   5.054   1.540   7.171  1.8967 -3.1320  0.1429
  128OSM   C13S13738   5.123   1.730   7.254 -0.3780  0.0806 -0.4160
  128OSM   H13S13739   5.017   1.761   7.252 -0.9887 -1.9238 -0.6302
  128OSM   H13T13740   5.189   1.810   7.213 -2.8453  1.4172 -1.9756
  128OSM   C14S13741   5.151   1.716   7.412  0.5843 -0.0366 -0.2969
  128OSM   H14S13742   5.112   1.809   7.459 -0.0431  0.2090 -1.2655
  128OSM   H14T13743   5.258   1.722   7.440  0.2891 -0.2098  0.9093
  128OSM   C15S13744   5.074   1.604   7.483  0.0332  0.3750 -0.3342
  128OSM   H15S13745   5.102   1.497   7.472 -0.1403  0.4486 -1.6855
  128OSM   H15T13746   4.965   1.595   7.466 -0.2797 -1.8285  2.0167
  128OSM   C16S13747   5.071   1.644   7.638  0.2818 -0.2757  0.3261
  128OSM   H16S13748   5.033   1.748   7.648  0.3188 -0.1660 -0.5887
  128OSM   H16T13749   5.175   1.646   7.677 -0.2595  0.1952  1.8148
  128OSM   C17S13750   4.986   1.552   7.725 -0.1850  0.0840  0.4020
  128OSM   H17S13751   4.879   1.551   7.695  0.1505 -0.3057 -0.8753
  128OSM   H17T13752   4.992   1.598   7.825  1.2331  1.0113 -0.0809
  128OSM   C18S13753   5.049   1.412   7.722  0.4053 -0.8967  0.4594
  128OSM   H18S13754   4.999   1.349   7.799  0.7080 -0.3691  1.1080
  128OSM   H18T13755   5.159   1.416   7.737  0.2383 -3.0217  2.8591
  128OSM   H18U13756   5.027   1.369   7.623  0.3383 -1.6539  0.7973
  128OSM    C1F13757   4.921   1.257   6.665 -0.5049 -0.5246 -0.1712
  128OSM     OF13758   4.980   1.156   6.632 -0.1608 -0.1456  0.3141
  128OSM    C2F13759   4.879   1.298   6.806 -0.7011 -0.0124  0.6296
  128OSM    H2F13760   4.781   1.247   6.817 -0.4984 -0.5752 -0.0647
  128OSM    H2G13761   4.858   1.406   6.798 -4.3729 -0.6105  0.4598
  128OSM    C3F13762   4.972   1.251   6.915 -0.0273 -1.1161 -0.1386
  128OSM    H3F13763   5.071   1.303   6.912 -0.4566 -0.1217  1.8024
  128OSM    H3G13764   5.009   1.146   6.914  0.9995 -0.7701 -0.4369
  128OSM    C4F13765   4.910   1.274   7.049  0.4125 -0.0747 -0.2110
  128OSM    H4F13766   4.814   1.221   7.064 -0.2447  1.7000  2.5720
  128OSM    H4G13767   4.894   1.382   7.069 -2.2858 -0.4566 -0.0360
  128OSM    C5F13768   5.006   1.220   7.160 -0.6352  0.0504  0.3558
  128OSM    H5F13769   5.105   1.269   7.143 -0.9717  1.3231  1.8751
  128OSM    H5G13770   5.001   1.110   7.145 -0.5349  0.1018 -0.0827
  128OSM    C6F13771   4.975   1.241   7.309  0.9036 -0.6974 -0.5444
  128OSM    H6F13772   4.870   1.207   7.324  1.0112 -1.3217 -1.1584
  128OSM    H6G13773   4.965   1.348   7.337 -2.5432 -1.3367  1.2256
  128OSM    C7F13774   5.076   1.168   7.400 -0.0013  0.2437 -0.4196
  128OSM    H7F13775   5.085   1.064   7.364 -0.2999  0.2142 -0.4086
  128OSM    H7G13776   5.022   1.178   7.497 -2.5073  1.8573 -1.8830
  128OSM    C8F13777   5.216   1.228   7.413  0.1052  0.1488 -0.1238
  128OSM    H8F13778   5.218   1.336   7.386 -0.5490 -0.4529 -2.8301
  128OSM    H8G13779   5.265   1.199   7.317  0.3788 -1.5671  0.4908
  128OSM    C9F13780   5.317   1.192   7.530  0.0666 -0.8446  0.7838
  128OSM    H9F13781   5.420   1.216   7.501 -0.6472 -0.4092 -1.6034
  128OSM   C10F13782   5.293   1.118   7.641  0.0064  0.1299 -0.2972
  128OSM   H10F13783   5.379   1.096   7.706  1.0329 -2.3616 -2.3114
  128OSM   C11F13784   5.168   1.042   7.674  0.4681 -0.4349 -0.6434
  128OSM   H11F13785   5.129   0.986   7.585  0.7014 -0.4285 -0.7488
  128OSM   H11G13786   5.083   1.101   7.715  0.5668 -0.1639 -0.8283
  128OSM   C12F13787   5.201   0.938   7.780  0.1564 -0.9453  0.1048
  128OSM   H12F13788   5.285   0.874   7.747  1.1314 -0.2934  1.2382
  128OSM   H12G13789   5.115   0.868   7.793 -0.1610 -0.4745  0.6037
  128OSM   C13F13790   5.235   0.995   7.925 -0.0378 -0.2406  0.4673
  128OSM   H13F13791   5.154   1.070   7.943  2.4935  2.0759  3.2390
  128OSM   H13G13792   5.332   1.047   7.919 -0.9130  1.3410 -0.5733
  128OSM   C14F13793   5.251   0.891   8.039  0.3924  0.0597  0.3959
  128OSM   H14F13794   5.337   0.822   8.026 -0.6213 -1.5173  1.6174
  128OSM   H14G13795   5.157   0.835   8.022  0.6420 -0.0047 -0.8966
  128OSM   C15F13796   5.269   0.953   8.175 -0.3088  0.5212  0.0543
  128OSM   H15F13797   5.309   0.883   8.251  1.2228  0.7870 -0.4663
  128OSM   H15G13798   5.175   1.003   8.207 -0.6636 -0.7730  1.0936
  128OSM   C16F13799   5.379   1.067   8.175  0.2764  0.0086 -0.5144
  128OSM   H16F13800   5.337   1.154   8.119  0.1628  1.6648  1.9775
  128OSM   H16G13801   5.476   1.030   8.137  0.1741 -1.4119  0.5370
  128OSM   C17F13802   5.411   1.113   8.320  0.4486 -0.3305 -0.3573
  128OSM   H17F13803   5.497   1.183   8.318  0.4310 -0.2461  0.9147
  128OSM   H17G13804   5.437   1.018   8.371 -1.0522 -0.2189  0.6734
  128OSM   C18F13805   5.286   1.176   8.389  1.0194  0.0424  0.3761
  128OSM   H18F13806   5.287   1.198   8.498  0.4567  3.4452 -0.1982
  128OSM   H18G13807   5.201   1.105   8.379  0.1130  0.8751  1.8779
  128OSM   H18H13808   5.236   1.264   8.343 -3.0973 -1.3569  1.6561
  129OSM      N13809   1.746   4.061   5.992 -0.2076 -0.5395 -0.2621
  129OSM    C1513810   1.839   4.128   5.895  1.0004  0.1474  0.2492
  129OSM   H15A13811   1.797   4.148   5.798  3.5373  1.7880 -0.5976
  129OSM   H15B13812   1.921   4.058   5.888  1.3157  0.3442  1.6074
  129OSM   H15C13813   1.871   4.223   5.936 -1.5850  2.1507 -1.9969
  129OSM    C1413814   1.608   4.119   5.980 -0.5331  0.1033 -0.5555
  129OSM   H14A13815   1.597   4.214   6.030 -1.8083  0.2274 -1.0279
  129OSM   H14B13816   1.536   4.051   6.023 -1.1952  0.2320 -1.4294
  129OSM   H14C13817   1.573   4.136   5.879 -1.3729  1.1120 -0.1093
  129OSM    C1313818   1.736   3.916   5.946 -0.0412  0.2796 -0.6994
  129OSM   H13A13819   1.829   3.862   5.954 -0.9745 -1.0593  3.4276
  129OSM   H13B13820   1.708   3.920   5.842 -0.2053 -1.7895 -0.7701
  129OSM   H13C13821   1.658   3.855   5.990 -0.1410  1.0328  0.2088
  129OSM    C1213822   1.792   4.079   6.137 -0.4141 -0.2789 -0.2991
  129OSM   H12A13823   1.878   4.016   6.150  0.7512  1.0465 -1.3181
  129OSM   H12B13824   1.716   4.038   6.202  0.4835  0.2398  1.1296
  129OSM    C1113825   1.837   4.211   6.198  0.0519  0.3522 -0.3386
  129OSM   H11A13826   1.859   4.190   6.305  0.6996 -3.7088 -1.0881
  129OSM   H11B13827   1.754   4.284   6.203 -0.2487 -0.0522  0.7882
  129OSM      P13828   2.093   4.213   6.150  0.0083  0.4308 -0.0332
  129OSM    O1313829   2.080   4.084   6.081  0.3811  0.8855 -0.7444
  129OSM    O1413830   2.199   4.299   6.105  0.4503 -0.9938  0.4942
  129OSM    O1113831   2.110   4.178   6.298  0.1325 -0.5591 -1.0530
  129OSM    O1213832   1.950   4.281   6.139  0.6824 -0.0200 -0.0365
  129OSM    C1S13833   2.119   4.277   6.400 -0.4602 -1.1170  0.5036
  129OSM    H1S13834   2.045   4.358   6.388 -0.1097 -0.6266  1.5382
  129OSM    H1T13835   2.216   4.332   6.396 -0.7553 -0.6869 -1.2536
  129OSM     NF13836   2.087   4.334   6.642  0.0152  0.4015  0.1052
  129OSM    HNF13837   2.176   4.359   6.681  0.3211 -2.3607  1.3786
  129OSM    C2S13838   2.099   4.221   6.546 -0.2981 -0.4703 -0.5342
  129OSM    H2S13839   2.000   4.170   6.551 -0.1524 -0.7002  0.0018
  129OSM    C3S13840   2.220   4.130   6.584 -0.3118  0.6403 -1.0566
  129OSM    H3S13841   2.317   4.183   6.591  0.9786 -1.8265  2.0434
  129OSM     O313842   2.243   4.029   6.487 -0.0965  0.1687 -0.1060
  129OSM    HO313843   2.207   4.066   6.406 -1.9557  0.8969  0.9734
  129OSM    C4S13844   2.191   4.063   6.714  0.1212  0.4690 -0.4775
  129OSM    H4S13845   2.119   3.981   6.702  1.3530 -0.5509 -1.1523
  129OSM    C5S13846   2.248   4.084   6.836 -0.1710  1.1331  0.4407
  129OSM    H5S13847   2.336   4.148   6.851 -0.3195  1.2521  0.8048
  129OSM    C6S13848   2.207   4.014   6.962 -0.9602 -0.3017 -0.3520
  129OSM    H6S13849   2.196   3.904   6.951  0.8108 -0.7223  1.4411
  129OSM    H6T13850   2.109   4.055   6.995 -0.4513  0.7359 -0.0954
  129OSM    C7S13851   2.310   4.042   7.079  0.1336 -0.1034  0.3069
  129OSM    H7S13852   2.282   4.143   7.114 -0.2563  0.0168 -0.3346
  129OSM    H7T13853   2.416   4.047   7.044 -0.7802 -0.2589 -2.8281
  129OSM    C8S13854   2.295   3.954   7.198 -0.5908  0.2294  0.5843
  129OSM    H8S13855   2.341   3.858   7.167 -1.7035  0.6384 -2.8027
  129OSM    H8T13856   2.191   3.918   7.217 -0.2874 -0.6295  0.6356
  129OSM    C9S13857   2.366   4.006   7.325  0.4878 -0.0067  0.0401
  129OSM    H9S13858   2.311   4.093   7.366 -0.0684 -1.3450  2.2752
  129OSM    H9T13859   2.474   4.021   7.302  0.8446  1.6155  2.4468
  129OSM   C10S13860   2.372   3.898   7.430  0.3043 -0.2226 -0.1364
  129OSM   H10S13861   2.402   3.806   7.375  1.9223  0.0858  0.1703
  129OSM   H10T13862   2.267   3.898   7.467  0.8041 -1.6131  1.4090
  129OSM   C11S13863   2.468   3.913   7.546 -1.0350 -0.7377  0.0433
  129OSM   H11S13864   2.571   3.926   7.507 -0.2383  0.4087  2.3458
  129OSM   H11T13865   2.463   3.820   7.608  3.1055  0.1264  2.0738
  129OSM   C12S13866   2.447   4.035   7.628 -0.0313  0.2431  0.0609
  129OSM   H12S13867   2.338   4.046   7.649  0.0129  0.8790 -0.0267
  129OSM   H12T13868   2.474   4.129   7.575  3.0414  1.2021  2.9551
  129OSM   C13S13869   2.523   4.034   7.768 -0.8203  0.3593  0.8320
  129OSM   H13S13870   2.632   4.037   7.749 -1.0431  1.0454 -0.5334
  129OSM   H13T13871   2.497   3.943   7.825  2.2543 -0.9104  0.3568
  129OSM   C14S13872   2.498   4.161   7.855 -0.2578  0.5350  0.5015
  129OSM   H14S13873   2.534   4.253   7.805 -3.8274  2.0894  0.4726
  129OSM   H14T13874   2.574   4.148   7.935 -0.7097 -0.6890  0.7474
  129OSM   C15S13875   2.365   4.178   7.902  0.9951 -0.3916  1.0503
  129OSM   H15S13876   2.348   4.089   7.966  2.1614 -0.3601  1.4275
  129OSM   H15T13877   2.295   4.183   7.815  1.0465 -2.4973  0.8477
  129OSM   C16S13878   2.351   4.312   7.986 -0.8012 -0.3839 -0.2452
  129OSM   H16S13879   2.249   4.353   7.998 -0.4589  0.3276  0.3038
  129OSM   H16T13880   2.415   4.386   7.931  1.7733 -2.7736 -0.7048
  129OSM   C17S13881   2.419   4.310   8.129 -0.0346 -0.3260 -0.6675
  129OSM   H17S13882   2.448   4.412   8.163  0.8632 -0.3232 -1.3919
  129OSM   H17T13883   2.514   4.252   8.132 -1.8600 -3.6271  3.2566
  129OSM   C18S13884   2.337   4.249   8.245 -0.9006 -0.2818 -0.5343
  129OSM   H18S13885   2.313   4.142   8.228 -1.0663 -0.4321  0.5360
  129OSM   H18T13886   2.248   4.310   8.272 -0.5762  0.0816 -0.2675
  129OSM   H18U13887   2.393   4.260   8.341 -1.6473  0.6663 -0.1961
  129OSM    C1F13888   1.973   4.404   6.645 -0.0048  0.0277 -0.1483
  129OSM     OF13889   1.875   4.354   6.596  0.1963  0.6325  0.1196
  129OSM    C2F13890   1.985   4.544   6.703  0.0928  0.6427  0.5602
  129OSM    H2F13891   1.993   4.609   6.614 -0.3271 -1.4004 -1.0459
  129OSM    H2G13892   2.069   4.555   6.775 -0.4353  2.0573  1.0026
  129OSM    C3F13893   1.852   4.572   6.770 -0.5466 -0.2354 -1.0321
  129OSM    H3F13894   1.840   4.491   6.846  0.2146  0.6468  0.0622
  129OSM    H3G13895   1.759   4.566   6.710 -0.2137 -0.2860 -1.5450
  129OSM    C4F13896   1.841   4.702   6.853 -0.2949 -0.5320  0.6296
  129OSM    H4F13897   1.734   4.726   6.870 -0.2096 -1.0206  2.0357
  129OSM    H4G13898   1.891   4.786   6.800 -0.0846 -0.1526  1.4129
  129OSM    C5F13899   1.908   4.701   6.987 -0.1957 -0.0992 -0.3944
  129OSM    H5F13900   2.007   4.650   6.992  0.0679  0.2867 -1.2925
  129OSM    H5G13901   1.848   4.634   7.053  1.5921 -2.2208 -0.7951
  129OSM    C6F13902   1.910   4.840   7.050  0.6507  0.3606 -0.2805
  129OSM    H6F13903   1.815   4.885   7.013  1.1787  0.3330 -1.7632
  129OSM    H6G13904   1.984   4.910   7.006  0.4148  0.9656  0.2719
  129OSM    C7F13905   1.924   4.838   7.204 -0.8348 -0.7461 -0.2047
  129OSM    H7F13906   2.024   4.796   7.224 -0.8991 -1.9668 -2.2557
  129OSM    H7G13907   1.846   4.770   7.245  0.4255 -2.1253 -0.0094
  129OSM    C8F13908   1.916   4.970   7.275 -0.5853 -0.2663  0.5062
  129OSM    H8F13909   1.983   5.040   7.221  0.6100  0.1581  2.4333
  129OSM    H8G13910   1.956   4.964   7.379  0.2295 -2.3295  0.1255
  129OSM    C9F13911   1.780   5.034   7.270  0.2932 -0.1502  0.0263
  129OSM    H9F13912   1.745   5.055   7.168  2.5673  0.3585 -0.7099
  129OSM   C10F13913   1.689   5.070   7.365 -0.1628 -0.5018 -0.8017
  129OSM   H10F13914   1.597   5.118   7.330 -0.0697  0.6893  0.5156
  129OSM   C11F13915   1.698   5.050   7.514 -0.8453 -0.8147 -0.3150
  129OSM   H11F13916   1.632   5.124   7.564  0.9864  1.3977 -1.0563
  129OSM   H11G13917   1.795   5.091   7.546 -1.2655 -0.4738  0.5517
  129OSM   C12F13918   1.686   4.903   7.570 -0.1152 -0.6345 -0.0208
  129OSM   H12F13919   1.778   4.843   7.550 -1.7097 -2.9759 -0.6935
  129OSM   H12G13920   1.601   4.852   7.521 -1.2047  0.9178  0.1797
  129OSM   C13F13921   1.666   4.892   7.720 -0.4692  0.5615  0.2368
  129OSM   H13F13922   1.677   4.786   7.754 -0.3824  1.3973  3.0486
  129OSM   H13G13923   1.563   4.931   7.735 -1.0140 -0.2683 -1.1264
  129OSM   C14F13924   1.772   4.968   7.812  0.4465  0.3103 -0.1510
  129OSM   H14F13925   1.866   4.956   7.753  0.2554  1.2600 -0.6544
  129OSM   H14G13926   1.779   4.917   7.911 -1.8593  1.0053  0.4172
  129OSM   C15F13927   1.746   5.117   7.842  0.4259 -0.3396  0.2449
  129OSM   H15F13928   1.642   5.115   7.880  0.2112 -0.1944 -0.3238
  129OSM   H15G13929   1.735   5.172   7.746  1.6075 -0.7998 -0.1684
  129OSM   C16F13930   1.854   5.174   7.939 -0.2176 -0.4946 -0.3639
  129OSM   H16F13931   1.954   5.176   7.892  0.6210  1.1078  1.3749
  129OSM   H16G13932   1.870   5.110   8.028  1.2483  0.7842  0.3480
  129OSM   C17F13933   1.816   5.316   7.975  0.2942 -1.1323  0.2299
  129OSM   H17F13934   1.729   5.317   8.043  0.1816 -0.5872  0.0863
  129OSM   H17G13935   1.786   5.378   7.887 -0.5230 -1.5825  0.1805
  129OSM   C18F13936   1.931   5.382   8.061  0.4226 -0.5640 -0.1408
  129OSM   H18F13937   1.897   5.473   8.114  0.7260 -2.4552  3.6308
  129OSM   H18G13938   2.028   5.393   8.009 -0.2273  1.2284 -1.0732
  129OSM   H18H13939   1.954   5.323   8.153 -1.6496 -1.7680 -0.3279
  130OSM      N13940   5.279   6.397   6.208  0.2349 -0.0880  0.2789
  130OSM    C1513941   5.167   6.487   6.236 -0.3681  0.2567 -0.2297
  130OSM   H15A13942   5.177   6.552   6.322  0.4315  0.7546 -0.6889
  130OSM   H15B13943   5.075   6.430   6.238 -0.4117  0.1170 -2.7083
  130OSM   H15C13944   5.142   6.550   6.151 -0.7911  0.0039 -0.2957
  130OSM    C1413945   5.309   6.334   6.337  0.0649 -0.2380  0.0391
  130OSM   H14A13946   5.392   6.265   6.330  0.0205 -0.3341  0.3828
  130OSM   H14B13947   5.224   6.280   6.378  0.4386 -0.9242 -0.0627
  130OSM   H14C13948   5.336   6.409   6.409  1.1594  0.1019 -0.7079
  130OSM    C1313949   5.237   6.294   6.113  0.8974 -0.0685  0.1035
  130OSM   H13A13950   5.198   6.349   6.029  1.4303  0.1623  0.0106
  130OSM   H13B13951   5.162   6.228   6.155  1.0966 -0.7236 -0.5290
  130OSM   H13C13952   5.316   6.225   6.088 -0.6713 -1.4345 -1.4418
  130OSM    C1213953   5.397   6.475   6.164 -0.7740 -0.1530  0.0642
  130OSM   H12A13954   5.380   6.526   6.071  2.4557  0.6593 -0.2099
  130OSM   H12B13955   5.472   6.401   6.139 -0.4374  0.3409 -0.4053
  130OSM    C1113956   5.448   6.589   6.257  0.4240 -0.5286  1.6739
  130OSM   H11A13957   5.555   6.612   6.238 -0.0932 -0.7782 -2.2799
  130OSM   H11B13958   5.446   6.578   6.368 -1.2604  2.7701  2.0906
  130OSM      P13959   5.400   6.803   6.101 -0.1214  0.0796 -0.1562
  130OSM    O1313960   5.465   6.728   5.992  0.1689 -0.3767  0.0598
  130OSM    O1413961   5.274   6.870   6.068  0.0464  0.1364  0.4329
  130OSM    O1113962   5.507   6.896   6.157  0.4740 -0.8244 -0.1408
  130OSM    O1213963   5.375   6.707   6.227 -0.2835 -0.3397  0.6577
  130OSM    C1S13964   5.486   7.001   6.258  0.1643  0.2289 -0.2535
  130OSM    H1S13965   5.397   7.062   6.232 -0.8549 -2.4963 -3.9444
  130OSM    H1T13966   5.573   7.070   6.256  2.0324 -1.9428  0.8723
  130OSM     NF13967   5.422   7.059   6.490  0.1370 -0.1157 -0.0658
  130OSM    HNF13968   5.489   7.102   6.550 -0.9379  0.1468  0.9732
  130OSM    C2S13969   5.486   6.953   6.410  0.0991  0.2389  0.0224
  130OSM    H2S13970   5.417   6.866   6.406 -0.2119  0.5244 -1.2775
  130OSM    C3S13971   5.634   6.906   6.439  0.4382  0.3450 -0.7896
  130OSM    H3S13972   5.702   6.993   6.441  1.7135 -0.5521 -2.2346
  130OSM     O313973   5.679   6.813   6.342 -0.4897 -0.0742  0.0969
  130OSM    HO313974   5.606   6.807   6.280  1.3254 -0.8619 -2.1503
  130OSM    C4S13975   5.625   6.826   6.569  0.0940 -0.9625  0.0691
  130OSM    H4S13976   5.599   6.720   6.563 -0.9775 -0.6731 -0.6810
  130OSM    C5S13977   5.683   6.869   6.686  0.3418 -0.3450  0.1482
  130OSM    H5S13978   5.745   6.959   6.700  0.0223  0.0050 -0.5940
  130OSM    C6S13979   5.684   6.778   6.809  0.2363  0.0306 -0.5980
  130OSM    H6S13980   5.788   6.751   6.836 -0.1726 -0.8848  0.1277
  130OSM    H6T13981   5.641   6.679   6.784  2.6939 -1.3614  0.3154
  130OSM    C7S13982   5.615   6.830   6.942  0.0929  0.5685  1.2841
  130OSM    H7S13983   5.507   6.854   6.931 -0.0940 -1.0572 -1.3269
  130OSM    H7T13984   5.667   6.924   6.967 -0.7330  1.8224 -1.3156
  130OSM    C8S13985   5.624   6.730   7.064 -0.1571 -0.7910 -0.1801
  130OSM    H8S13986   5.729   6.694   7.068 -0.5450 -2.2798 -2.3287
  130OSM    H8T13987   5.553   6.649   7.038 -2.0888  1.6844 -3.4209
  130OSM    C9S13988   5.583   6.800   7.196  0.5088 -0.0811  0.6347
  130OSM    H9S13989   5.476   6.830   7.202 -0.1370 -1.2831 -2.6488
  130OSM    H9T13990   5.645   6.892   7.195 -1.8026  1.6273 -2.3596
  130OSM   C10S13991   5.620   6.717   7.327  0.3007  0.2439 -0.1648
  130OSM   H10S13992   5.725   6.681   7.312  0.8042  1.8616 -0.7747
  130OSM   H10T13993   5.555   6.629   7.346 -0.1346  0.4732 -0.5884
  130OSM   C11S13994   5.613   6.800   7.444 -0.1830  0.3929  0.5991
  130OSM   H11S13995   5.522   6.863   7.445 -0.8964 -0.5824 -0.8962
  130OSM   H11T13996   5.704   6.864   7.435  0.6992 -0.9608 -0.4947
  130OSM   C12S13997   5.631   6.721   7.576  0.1635 -0.2991 -0.4657
  130OSM   H12S13998   5.723   6.658   7.581  0.9026  0.7604 -0.3195
  130OSM   H12T13999   5.542   6.659   7.598 -0.2409  0.5312  0.2892
  130OSM   C13S14000   5.652   6.808   7.701  1.1478 -0.4598 -0.1153
  130OSM   H13S14001   5.577   6.890   7.706  1.0780 -0.5785  1.4768
  130OSM   H13T14002   5.752   6.854   7.691  0.5864  0.4856 -1.6012
  130OSM   C14S14003   5.644   6.733   7.843  0.4570 -0.6173  0.4973
  130OSM   H14S14004   5.546   6.683   7.853  0.0557 -0.0336 -0.4143
  130OSM   H14T14005   5.645   6.816   7.917  0.5837  2.3673 -2.5744
  130OSM   C15S14006   5.753   6.627   7.874 -0.1399 -0.2334  0.9560
  130OSM   H15S14007   5.858   6.664   7.868 -0.5072  0.8547  0.9017
  130OSM   H15T14008   5.757   6.540   7.806 -0.1029  0.4388  0.0740
  130OSM   C16S14009   5.740   6.573   8.016  0.9707 -0.2221  0.0597
  130OSM   H16S14010   5.655   6.502   8.017  2.2094 -1.7446  0.5984
  130OSM   H16T14011   5.725   6.664   8.079 -1.6609 -0.0745 -0.6497
  130OSM   C17S14012   5.859   6.496   8.063 -0.0087  0.5221  0.1191
  130OSM   H17S14013   5.849   6.471   8.171  0.6648  0.1203  0.0925
  130OSM   H17T14014   5.947   6.563   8.063 -0.4630  1.2115  2.5477
  130OSM   C18S14015   5.900   6.370   7.991  0.1929 -0.1026 -0.0473
  130OSM   H18S14016   6.002   6.355   8.031 -0.6736  1.1923  3.0024
  130OSM   H18T14017   5.931   6.393   7.887 -0.9006 -0.8014 -0.5480
  130OSM   H18U14018   5.835   6.281   8.006 -0.4128  0.0928 -1.3684
  130OSM    C1F14019   5.289   7.080   6.489  0.2853  0.4084 -0.9023
  130OSM     OF14020   5.208   7.039   6.401 -0.0992 -0.1720  0.0704
  130OSM    C2F14021   5.227   7.156   6.611  0.4417 -0.9915  0.5124
  130OSM    H2F14022   5.192   7.256   6.577 -1.3995 -1.8387 -0.1861
  130OSM    H2G14023   5.308   7.179   6.684  2.0724 -0.8746 -1.2647
  130OSM    C3F14024   5.110   7.078   6.671 -0.5694  0.3661  0.0717
  130OSM    H3F14025   5.039   7.051   6.590  0.2481  0.5978 -0.7451
  130OSM    H3G14026   5.051   7.143   6.739 -1.7621 -1.6525  1.0727
  130OSM    C4F14027   5.141   6.949   6.754 -0.2804 -0.1126  0.1825
  130OSM    H4F14028   5.176   6.864   6.691  0.4131 -1.2822  2.0519
  130OSM    H4G14029   5.046   6.904   6.790 -0.1700 -0.9755 -0.5533
  130OSM    C5F14030   5.238   6.969   6.871 -0.0321 -0.0865 -0.4679
  130OSM    H5F14031   5.229   7.075   6.902 -1.2346  0.2787 -1.9992
  130OSM    H5G14032   5.341   6.957   6.831 -0.1345 -1.2120 -0.4371
  130OSM    C6F14033   5.222   6.870   6.992  0.0766  0.1939  0.7908
  130OSM    H6F14034   5.314   6.863   7.053  0.2960 -2.7296  0.2648
  130OSM    H6G14035   5.217   6.767   6.952  1.2425 -0.3394  1.9512
  130OSM    C7F14036   5.099   6.898   7.080  0.0649 -0.4494 -0.8174
  130OSM    H7F14037   5.008   6.919   7.019  1.2855  2.7677 -1.7403
  130OSM    H7G14038   5.114   6.989   7.142  0.6620  0.2514 -1.9483
  130OSM    C8F14039   5.064   6.789   7.185 -0.2090  0.1693 -0.6174
  130OSM    H8F14040   5.055   6.696   7.125  0.6516 -0.5284  0.3058
  130OSM    H8G14041   4.968   6.805   7.238  1.5806  1.1631  2.5757
  130OSM    C9F14042   5.169   6.764   7.286 -0.3435 -0.2599  0.4489
  130OSM    H9F14043   5.268   6.762   7.238  0.3498 -1.6700  1.8676
  130OSM   C10F14044   5.161   6.767   7.418  0.0963 -0.1844 -0.1294
  130OSM   H10F14045   5.255   6.747   7.472 -0.5274 -2.1004  0.2955
  130OSM   C11F14046   5.036   6.797   7.499  0.4363 -0.0590 -0.2060
  130OSM   H11F14047   4.952   6.731   7.470  0.1579 -0.6765  1.8581
  130OSM   H11G14048   5.009   6.898   7.460 -1.0116 -1.1883 -2.3273
  130OSM   C12F14049   5.057   6.798   7.657 -0.2400  0.4368 -0.3951
  130OSM   H12F14050   4.975   6.857   7.703 -2.7260 -2.3169 -0.9623
  130OSM   H12G14051   5.153   6.847   7.685  0.2231 -1.0391  0.7455
  130OSM   C13F14052   5.040   6.659   7.728 -0.7923  0.8150  0.0535
  130OSM   H13F14053   5.139   6.607   7.727 -0.5685  1.1943  0.9805
  130OSM   H13G14054   4.976   6.588   7.671  2.4231 -0.2147 -2.6337
  130OSM   C14F14055   4.985   6.665   7.865 -0.0043 -0.4712 -0.0284
  130OSM   H14F14056   4.897   6.732   7.870 -0.8593 -1.5101 -0.6913
  130OSM   H14G14057   5.058   6.703   7.939 -2.0064  1.6878  0.9542
  130OSM   C15F14058   4.947   6.530   7.923 -0.9435  0.3937 -0.0248
  130OSM   H15F14059   5.035   6.471   7.954 -0.7656 -0.0420 -1.2798
  130OSM   H15G14060   4.904   6.475   7.836  0.0600  0.3537 -0.5158
  130OSM   C16F14061   4.838   6.533   8.034  0.6285 -0.4900 -0.1232
  130OSM   H16F14062   4.792   6.432   8.033  1.2862 -0.8192 -2.0950
  130OSM   H16G14063   4.755   6.600   8.003  0.3636  0.2093  1.9635
  130OSM   C17F14064   4.893   6.582   8.171 -0.3046  0.3995 -0.0105
  130OSM   H17F14065   4.821   6.580   8.256  0.0604  1.0098  0.3110
  130OSM   H17G14066   4.928   6.686   8.159  1.3932  0.0060  1.2201
  130OSM   C18F14067   5.001   6.502   8.238 -0.0691  0.1481 -0.3982
  130OSM   H18F14068   5.093   6.510   8.176  0.6257 -1.6389  0.3158
  130OSM   H18G14069   4.976   6.394   8.242 -2.0688  0.5839  0.1475
  130OSM   H18H14070   5.020   6.551   8.336  0.8984  2.6704 -1.7673
  131OSM      N14071   2.675   3.220   5.468 -0.3883  0.3365  0.4585
  131OSM    C1514072   2.744   3.118   5.559 -0.4597 -0.2993  0.3765
  131OSM   H15A14073   2.678   3.084   5.636 -0.5068 -2.4806 -0.5609
  131OSM   H15B14074   2.828   3.172   5.601  0.7487 -0.9202 -1.1211
  131OSM   H15C14075   2.778   3.033   5.501  0.1229 -0.0854  0.3943
  131OSM    C1414076   2.762   3.268   5.356 -0.2940 -0.0905  0.3351
  131OSM   H14A14077   2.714   3.328   5.279  1.8690  0.4082 -0.7042
  131OSM   H14B14078   2.786   3.183   5.294  0.9122 -0.8887  1.8431
  131OSM   H14C14079   2.853   3.314   5.391 -0.6263 -0.3900  1.6282
  131OSM    C1314080   2.560   3.151   5.394 -0.4539  0.4726 -0.3364
  131OSM   H13A14081   2.594   3.071   5.330 -0.7955 -0.0914  0.1762
  131OSM   H13B14082   2.499   3.217   5.334  1.5540  2.6533 -0.1283
  131OSM   H13C14083   2.498   3.098   5.465 -0.2228 -1.0641 -1.2386
  131OSM    C1214084   2.630   3.336   5.546  0.1783  0.8948  0.5968
  131OSM   H12A14085   2.564   3.393   5.483  0.5127 -0.8273 -1.4491
  131OSM   H12B14086   2.700   3.409   5.585  2.5239 -1.0904  0.3836
  131OSM    C1114087   2.544   3.299   5.671 -0.5608  0.1962 -0.6301
  131OSM   H11A14088   2.456   3.233   5.656 -1.2575  0.8602  0.3268
  131OSM   H11B14089   2.506   3.399   5.702 -0.5787  0.6310 -2.0044
  131OSM      P14090   2.736   3.320   5.855  0.0890  0.2944  0.0768
  131OSM    O1314091   2.812   3.222   5.933  0.1670 -0.5594 -0.1857
  131OSM    O1414092   2.813   3.399   5.756 -0.3528  0.1799  0.2270
  131OSM    O1114093   2.667   3.418   5.950 -0.7257  0.4057 -0.1949
  131OSM    O1214094   2.615   3.248   5.785 -0.5917 -0.0717 -0.2145
  131OSM    C1S14095   2.654   3.401   6.095  0.1824 -0.4045 -0.0279
  131OSM    H1S14096   2.671   3.295   6.122  0.2774 -0.1740  0.8372
  131OSM    H1T14097   2.552   3.415   6.136  0.8999  0.4631  1.5504
  131OSM     NF14098   2.745   3.463   6.313 -0.6064  0.3394 -0.3597
  131OSM    HNF14099   2.681   3.524   6.359 -0.1808  0.4116  0.1516
  131OSM    C2S14100   2.757   3.490   6.176 -0.1503 -0.2738 -0.3408
  131OSM    H2S14101   2.856   3.455   6.138 -0.3155 -1.4628  0.2610
  131OSM    C3S14102   2.747   3.642   6.140  0.8998 -0.2195 -0.4092
  131OSM    H3S14103   2.649   3.682   6.172 -0.4786 -3.1532 -0.6107
  131OSM     O314104   2.757   3.662   6.000 -0.3282 -0.1732  0.4642
  131OSM    HO314105   2.754   3.575   5.960  2.4908  0.0725 -0.4936
  131OSM    C4S14106   2.854   3.729   6.205 -0.1843  0.0259  0.1806
  131OSM    H4S14107   2.954   3.719   6.159 -0.7157 -1.1825 -0.7514
  131OSM    C5S14108   2.831   3.818   6.301 -0.2540  0.3007 -0.5542
  131OSM    H5S14109   2.724   3.827   6.323 -0.4410 -1.9486 -0.3217
  131OSM    C6S14110   2.916   3.922   6.362 -0.3648  0.0490  0.2213
  131OSM    H6S14111   2.863   3.984   6.437  3.0272  1.6705  1.5241
  131OSM    H6T14112   2.947   3.994   6.283 -0.1928  2.1013  2.0869
  131OSM    C7S14113   3.047   3.879   6.439 -0.8549 -0.1510  0.6096
  131OSM    H7S14114   3.108   3.971   6.443 -0.8926 -0.1176  0.4313
  131OSM    H7T14115   3.109   3.802   6.388 -0.2798  1.3166 -0.9898
  131OSM    C8S14116   3.014   3.814   6.575  0.1283  0.8283  0.5277
  131OSM    H8S14117   2.939   3.733   6.565  0.0687  0.8078  1.0884
  131OSM    H8T14118   2.957   3.891   6.632 -0.1280 -0.3380  1.8955
  131OSM    C9S14119   3.137   3.775   6.654 -0.0967  0.1995  1.1361
  131OSM    H9S14120   3.201   3.866   6.663 -2.3542  1.7719  2.3361
  131OSM    H9T14121   3.189   3.705   6.585  0.0728  1.6110 -0.2345
  131OSM   C10S14122   3.108   3.720   6.796 -0.3073 -0.0839  0.8674
  131OSM   H10S14123   3.043   3.630   6.789  0.7109 -0.7430 -0.3893
  131OSM   H10T14124   3.058   3.807   6.845  0.5820  1.1130 -0.2902
  131OSM   C11S14125   3.234   3.673   6.876 -0.4499  0.2542  0.2174
  131OSM   H11S14126   3.324   3.726   6.839 -0.5642 -0.0933 -0.5651
  131OSM   H11T14127   3.257   3.568   6.850 -1.5466  0.5764 -2.2951
  131OSM   C12S14128   3.229   3.707   7.025  0.1130  0.0890 -0.8049
  131OSM   H12S14129   3.140   3.654   7.066  1.6869 -1.2533  1.0424
  131OSM   H12T14130   3.207   3.816   7.024  0.5640  0.1830 -2.2496
  131OSM   C13S14131   3.345   3.683   7.122 -0.2953 -0.5742  0.4826
  131OSM   H13S14132   3.421   3.752   7.079 -1.5261  0.6079  0.1561
  131OSM   H13T14133   3.371   3.575   7.121 -0.8686 -0.7255 -1.0206
  131OSM   C14S14134   3.331   3.735   7.265  0.2496  0.4759 -0.1403
  131OSM   H14S14135   3.234   3.693   7.299 -0.9198  2.3658 -1.0024
  131OSM   H14T14136   3.314   3.845   7.260 -0.9973  0.2685 -1.0242
  131OSM   C15S14137   3.443   3.691   7.353  0.1690  0.2266 -0.0351
  131OSM   H15S14138   3.540   3.730   7.314  0.4807  1.6835  1.9952
  131OSM   H15T14139   3.447   3.581   7.341 -1.8602  0.2508 -1.4809
  131OSM   C16S14140   3.440   3.733   7.505 -0.1416 -0.3301  0.6603
  131OSM   H16S14141   3.445   3.842   7.520 -2.2614 -0.4366  2.8912
  131OSM   H16T14142   3.525   3.689   7.562  2.2585  1.4442 -1.3395
  131OSM   C17S14143   3.308   3.681   7.559 -0.6101  0.1943  0.5898
  131OSM   H17S14144   3.266   3.598   7.498 -0.2092  0.7028 -0.3964
  131OSM   H17T14145   3.235   3.760   7.531  0.4172  0.5119 -1.3725
  131OSM   C18S14146   3.296   3.664   7.710 -0.1565 -0.3780  0.2640
  131OSM   H18S14147   3.193   3.629   7.732  0.5205 -3.6776 -1.2978
  131OSM   H18T14148   3.312   3.760   7.763  2.4865  0.5154 -1.9379
  131OSM   H18U14149   3.376   3.596   7.745 -0.6914 -2.4587 -2.3041
  131OSM    C1F14150   2.781   3.357   6.384  0.5901  0.5654  0.5687
  131OSM     OF14151   2.839   3.265   6.324 -0.0401  0.7397 -0.1680
  131OSM    C2F14152   2.746   3.363   6.527 -0.2234 -0.5290  0.2917
  131OSM    H2F14153   2.637   3.384   6.535 -0.2515 -0.3050 -0.5732
  131OSM    H2G14154   2.799   3.451   6.569  1.6737 -1.2822 -0.4068
  131OSM    C3F14155   2.768   3.234   6.612  0.7128  1.2761 -0.3272
  131OSM    H3F14156   2.877   3.212   6.616  0.3363 -0.6388  0.1246
  131OSM    H3G14157   2.725   3.143   6.566 -0.0936  0.6768  1.5282
  131OSM    C4F14158   2.707   3.240   6.749  0.0644  0.5600  0.0919
  131OSM    H4F14159   2.704   3.135   6.787 -2.7819  1.1125  1.7294
  131OSM    H4G14160   2.598   3.261   6.737 -0.1519 -1.2036 -1.4189
  131OSM    C5F14161   2.772   3.334   6.849  0.8433  0.0395 -0.6285
  131OSM    H5F14162   2.702   3.325   6.934  0.8069 -2.2883 -0.8407
  131OSM    H5G14163   2.776   3.435   6.804  2.4515 -0.7923 -2.5557
  131OSM    C6F14164   2.915   3.309   6.895  0.0482  0.8524 -0.1178
  131OSM    H6F14165   2.974   3.349   6.810  0.6419  1.8900  0.7599
  131OSM    H6G14166   2.962   3.208   6.893  2.6702  1.9511 -2.2931
  131OSM    C7F14167   2.964   3.380   7.020 -0.9832  0.0570  0.8878
  131OSM    H7F14168   2.912   3.475   7.045  0.5155  1.4200 -0.9000
  131OSM    H7G14169   3.066   3.406   6.985 -1.6049  1.3896 -0.0193
  131OSM    C8F14170   2.978   3.287   7.137  0.4939 -0.3321  0.1761
  131OSM    H8F14171   3.038   3.326   7.222 -2.0968  2.4382  0.9237
  131OSM    H8G14172   3.033   3.199   7.098  0.5445  0.1860 -0.9681
  131OSM    C9F14173   2.855   3.242   7.203  0.3146  0.3249 -0.5186
  131OSM    H9F14174   2.814   3.144   7.172 -1.1573 -0.0424  2.2229
  131OSM   C10F14175   2.791   3.304   7.306  0.5947 -0.0935  0.1398
  131OSM   H10F14176   2.705   3.261   7.359  0.6314  2.6730  2.7067
  131OSM   C11F14177   2.841   3.440   7.361  0.3075 -0.2619 -0.6269
  131OSM   H11F14178   2.759   3.512   7.380  1.2133  0.8540 -0.7961
  131OSM   H11G14179   2.888   3.493   7.275 -1.0913  2.1716  0.0158
  131OSM   C12F14180   2.931   3.425   7.484 -0.0615 -0.5390 -0.6506
  131OSM   H12F14181   3.011   3.501   7.495  0.7944 -1.3097 -1.3199
  131OSM   H12G14182   2.980   3.327   7.465  2.1677  1.1333 -4.4393
  131OSM   C13F14183   2.851   3.432   7.608  0.2672  0.1318  0.5434
  131OSM   H13F14184   2.755   3.378   7.592 -1.1234  2.1307  1.6011
  131OSM   H13G14185   2.820   3.536   7.632 -1.4380 -0.1558 -0.2619
  131OSM   C14F14186   2.928   3.372   7.730 -0.1437  0.6807  0.2198
  131OSM   H14F14187   3.003   3.447   7.763  0.7775 -0.2746  0.3261
  131OSM   H14G14188   2.975   3.274   7.710 -0.2269  0.8684 -0.9743
  131OSM   C15F14189   2.831   3.347   7.852 -0.1043 -0.3250  0.0874
  131OSM   H15F14190   2.869   3.288   7.938 -2.3410 -0.2767  1.1711
  131OSM   H15G14191   2.757   3.278   7.807 -1.8943  2.2072 -1.0564
  131OSM   C16F14192   2.783   3.484   7.904 -0.0418  0.5619  0.1196
  131OSM   H16F14193   2.737   3.534   7.816 -1.6734 -0.4926  0.3434
  131OSM   H16G14194   2.883   3.525   7.931  0.9112 -0.6879 -1.3164
  131OSM   C17F14195   2.702   3.485   8.033  0.1368  0.1741 -0.1976
  131OSM   H17F14196   2.748   3.417   8.108 -3.2338 -0.0443  1.9093
  131OSM   H17G14197   2.604   3.440   8.004  0.1038  0.2687 -0.2328
  131OSM   C18F14198   2.688   3.633   8.091  0.5830  0.5305  0.2908
  131OSM   H18F14199   2.665   3.708   8.012 -0.5255  0.4923  0.5654
  131OSM   H18G14200   2.781   3.661   8.146  0.8288  1.4848 -0.5726
  131OSM   H18H14201   2.603   3.631   8.163  1.0156 -1.9612  0.8172
  132OSM      N14202   6.542   3.413   6.184  0.6569  0.4275  0.1655
  132OSM    C1514203   6.521   3.502   6.309 -0.1626 -0.5087  0.2332
  132OSM   H15A14204   6.576   3.591   6.284 -1.8312 -0.0566 -2.1362
  132OSM   H15B14205   6.561   3.462   6.401  0.7131  0.6991  0.4023
  132OSM   H15C14206   6.418   3.532   6.319  0.1963  1.5327 -1.6107
  132OSM    C1414207   6.431   3.312   6.193  0.3099 -0.5324 -0.5719
  132OSM   H14A14208   6.451   3.233   6.122  1.8924 -1.2731  0.6362
  132OSM   H14B14209   6.335   3.356   6.173  0.7876  0.4691 -0.7394
  132OSM   H14C14210   6.431   3.259   6.287 -2.3837  0.9036  0.3374
  132OSM    C1314211   6.523   3.491   6.058 -0.1796 -0.0139 -0.1935
  132OSM   H13A14212   6.595   3.560   6.018 -1.4012  1.1297 -0.5043
  132OSM   H13B14213   6.441   3.561   6.064 -1.6633 -1.6117 -0.7946
  132OSM   H13C14214   6.499   3.427   5.974  2.5687 -0.1585 -0.9580
  132OSM    C1214215   6.672   3.345   6.193 -1.2746 -0.3348 -0.7769
  132OSM   H12A14216   6.745   3.412   6.150  0.9172 -2.0132  0.1598
  132OSM   H12B14217   6.674   3.262   6.124  0.5342 -2.9566  2.1552
  132OSM    C1114218   6.725   3.287   6.319  0.0125  0.1772  1.7001
  132OSM   H11A14219   6.723   3.367   6.397  1.0668  1.0241  0.8981
  132OSM   H11B14220   6.830   3.258   6.298  0.3988  2.2973  0.3579
  132OSM      P14221   6.681   3.032   6.327 -0.0049  0.3171  0.1257
  132OSM    O1314222   6.595   2.947   6.412  0.5052  0.5654 -0.0814
  132OSM    O1414223   6.686   3.012   6.178 -0.6300  0.1327  0.3708
  132OSM    O1114224   6.827   3.017   6.390  1.1227  0.0682 -0.0034
  132OSM    O1214225   6.639   3.182   6.349 -0.7234  0.4539 -0.3438
  132OSM    C1S14226   6.862   3.069   6.521 -0.6204 -0.1476 -0.0913
  132OSM    H1S14227   6.801   3.156   6.553  1.2833  0.5347  1.9205
  132OSM    H1T14228   6.963   3.114   6.526 -0.3316 -0.8058  0.1560
  132OSM     NF14229   6.901   3.017   6.761  0.5952  0.9739  0.0358
  132OSM    HNF14230   6.992   3.008   6.800 -0.5075  0.7772  2.7926
  132OSM    C2S14231   6.868   2.957   6.635 -0.1710 -0.3721  0.4008
  132OSM    H2S14232   6.769   2.906   6.639  0.3521 -1.3822  1.0294
  132OSM    C3S14233   6.964   2.842   6.592 -0.6782 -0.2969  1.0186
  132OSM    H3S14234   7.063   2.888   6.573 -0.3481 -0.3702  2.4485
  132OSM     O314235   6.921   2.777   6.472 -0.6470 -0.1487 -0.3542
  132OSM    HO314236   6.859   2.847   6.448 -0.6520  0.6346  1.7028
  132OSM    C4S14237   6.978   2.739   6.713 -0.5265  0.7949  0.8609
  132OSM    H4S14238   7.046   2.772   6.793 -0.6977  0.4997  1.1274
  132OSM    C5S14239   6.917   2.619   6.726 -0.1646  0.0589 -0.1530
  132OSM    H5S14240   6.851   2.588   6.644 -0.7711  3.1700 -0.9869
  132OSM    C6S14241   6.921   2.533   6.848 -0.1689 -0.6434 -0.4562
  132OSM    H6S14242   6.980   2.444   6.817  0.8106 -0.4506  0.7437
  132OSM    H6T14243   6.822   2.491   6.873  0.3981 -0.8282  1.6604
  132OSM    C7S14244   6.985   2.604   6.977 -1.0662  0.4558  0.2546
  132OSM    H7S14245   6.932   2.700   6.991 -0.4431  0.7535  0.6562
  132OSM    H7T14246   7.090   2.632   6.953 -1.1147  0.1944 -0.2689
  132OSM    C8S14247   6.963   2.531   7.112  0.0619 -0.9138 -0.5289
  132OSM    H8S14248   7.031   2.443   7.107  1.2952 -0.2428  2.1928
  132OSM    H8T14249   6.860   2.494   7.132  0.4432 -1.3537  0.7755
  132OSM    C9S14250   7.004   2.623   7.229  0.0376 -0.2068 -0.8859
  132OSM    H9S14251   6.930   2.706   7.239 -2.0250 -2.0363 -0.1949
  132OSM    H9T14252   7.104   2.660   7.198 -0.1704 -0.0745 -1.4165
  132OSM   C10S14253   7.010   2.556   7.365 -0.8546  0.0321  0.3635
  132OSM   H10S14254   7.079   2.471   7.348 -0.3902  0.0621  1.8608
  132OSM   H10T14255   6.919   2.522   7.418 -0.9461 -1.8699 -0.9508
  132OSM   C11S14256   7.095   2.650   7.452  0.8587 -0.1291 -0.3760
  132OSM   H11S14257   7.038   2.745   7.463 -1.2339 -0.8975 -3.2278
  132OSM   H11T14258   7.189   2.690   7.408  0.0344  0.6517 -1.4735
  132OSM   C12S14259   7.106   2.573   7.580  0.5834 -0.1899  1.0760
  132OSM   H12S14260   7.190   2.500   7.581  0.2337 -0.5934  1.5810
  132OSM   H12T14261   7.013   2.517   7.601  0.0789 -0.5185 -1.6753
  132OSM   C13S14262   7.133   2.668   7.697  0.3536  0.3244 -0.7123
  132OSM   H13S14263   7.040   2.718   7.731  1.8166  2.1419  0.8919
  132OSM   H13T14264   7.213   2.741   7.672  1.4237 -0.3617  0.5829
  132OSM   C14S14265   7.196   2.581   7.816 -0.1275 -0.8025 -0.2900
  132OSM   H14S14266   7.260   2.651   7.874 -1.1105 -1.4361  1.6485
  132OSM   H14T14267   7.269   2.508   7.773 -0.5916 -0.4598 -1.7086
  132OSM   C15S14268   7.091   2.505   7.889  0.6089 -0.5968 -0.4919
  132OSM   H15S14269   7.034   2.436   7.823 -1.3423 -0.1816  0.6960
  132OSM   H15T14270   7.014   2.578   7.919  0.1330 -1.1930 -0.2395
  132OSM   C16S14271   7.141   2.451   8.023 -0.1906 -0.0689 -0.3416
  132OSM   H16S14272   7.187   2.535   8.079  0.6644 -0.7742  0.0526
  132OSM   H16T14273   7.225   2.382   7.999 -0.1012  0.1601 -0.6963
  132OSM   C17S14274   7.036   2.386   8.115  0.4685  0.8415  0.0712
  132OSM   H17S14275   7.012   2.288   8.068  0.5243 -0.0031  1.7404
  132OSM   H17T14276   6.942   2.441   8.133 -0.1593  0.4710 -1.8348
  132OSM   C18S14277   7.088   2.340   8.257  0.4140  0.0310 -0.6245
  132OSM   H18S14278   7.114   2.425   8.323 -0.1271 -1.2117  1.2776
  132OSM   H18T14279   7.183   2.282   8.249  0.2296 -0.4183  0.3840
  132OSM   H18U14280   7.007   2.276   8.299  0.7329  0.8060  1.2611
  132OSM    C1F14281   6.808   3.086   6.827 -0.3746  0.6326 -0.0500
  132OSM     OF14282   6.708   3.129   6.780 -0.4320 -0.2336 -0.0621
  132OSM    C2F14283   6.841   3.094   6.973 -0.5107  0.2496 -1.2704
  132OSM    H2F14284   6.899   3.184   7.000 -1.0340  0.3853 -0.5651
  132OSM    H2G14285   6.909   3.011   7.003 -1.1611  0.0643 -0.2463
  132OSM    C3F14286   6.718   3.080   7.063 -0.0983 -0.1829 -0.8795
  132OSM    H3F14287   6.642   3.152   7.027 -1.1894 -0.4128  0.8413
  132OSM    H3G14288   6.751   3.107   7.165 -1.7375  0.6521 -0.5370
  132OSM    C4F14289   6.673   2.931   7.073 -0.4724 -0.3326  0.3815
  132OSM    H4F14290   6.749   2.865   7.119  0.8208  0.1373 -1.0114
  132OSM    H4G14291   6.640   2.900   6.971  2.1775  0.7553 -0.9156
  132OSM    C5F14292   6.552   2.911   7.166 -0.1094  0.6557 -0.5955
  132OSM    H5F14293   6.526   2.803   7.163  1.0445  0.3399  0.1840
  132OSM    H5G14294   6.462   2.960   7.125  0.9598  1.6665 -1.8258
  132OSM    C6F14295   6.576   2.938   7.317 -0.6336 -0.4483  1.4178
  132OSM    H6F14296   6.599   3.046   7.325 -0.7787 -0.2829 -0.1088
  132OSM    H6G14297   6.662   2.883   7.360  0.2299  0.2103  0.5613
  132OSM    C7F14298   6.449   2.911   7.383 -0.5942 -0.1330  0.2900
  132OSM    H7F14299   6.423   2.806   7.359  0.5358 -0.5545  0.8467
  132OSM    H7G14300   6.375   2.988   7.353  0.2345 -0.1362 -1.9152
  132OSM    C8F14301   6.467   2.913   7.539 -0.2118 -0.3262  0.0496
  132OSM    H8F14302   6.477   3.022   7.558  0.6948 -0.4518  0.3220
  132OSM    H8G14303   6.561   2.862   7.568 -0.3087 -0.8373 -0.5154
  132OSM    C9F14304   6.353   2.865   7.623 -0.3141 -0.1250  0.5629
  132OSM    H9F14305   6.264   2.826   7.572  1.0452 -1.0425 -1.2412
  132OSM   C10F14306   6.354   2.871   7.756 -0.1329 -0.6996 -0.2355
  132OSM   H10F14307   6.263   2.847   7.813  0.6331 -0.9804  0.8965
  132OSM   C11F14308   6.474   2.918   7.830 -0.6768  0.0789  0.0823
  132OSM   H11F14309   6.502   3.015   7.784 -0.1012  1.6159  3.3703
  132OSM   H11G14310   6.556   2.845   7.812 -0.1670  0.8064 -0.6122
  132OSM   C12F14311   6.446   2.945   7.983  0.2569 -0.4675 -0.0983
  132OSM   H12F14312   6.403   2.856   8.035  1.6991  0.5622  3.1337
  132OSM   H12G14313   6.381   3.034   7.999  1.4602 -0.1803  4.6219
  132OSM   C13F14314   6.576   2.981   8.051 -0.2591  0.1740  0.9372
  132OSM   H13F14315   6.622   3.066   7.997 -1.3697  1.0926  1.3971
  132OSM   H13G14316   6.630   2.884   8.045 -1.3085 -0.3674 -0.5451
  132OSM   C14F14317   6.562   3.024   8.198 -0.0898  0.4716  0.3301
  132OSM   H14F14318   6.479   3.097   8.211  0.0953  0.5809  0.9561
  132OSM   H14G14319   6.651   3.083   8.229 -0.3053  0.0255  1.9125
  132OSM   C15F14320   6.546   2.908   8.301 -0.1612  0.5744 -0.1588
  132OSM   H15F14321   6.608   2.949   8.383  0.7575  0.3911 -0.7444
  132OSM   H15G14322   6.599   2.826   8.247 -1.9550  1.4328 -3.4982
  132OSM   C16F14323   6.402   2.874   8.342  0.1922  0.2686 -0.3441
  132OSM   H16F14324   6.407   2.801   8.426 -0.2134  2.4966  1.7052
  132OSM   H16G14325   6.353   2.824   8.255  1.5936 -1.3179 -0.2783
  132OSM   C17F14326   6.311   2.985   8.388  0.0254 -1.1252 -0.7761
  132OSM   H17F14327   6.206   2.958   8.411 -0.1599  0.9177  1.0820
  132OSM   H17G14328   6.301   3.058   8.306  0.6285 -1.1687 -0.8931
  132OSM   C18F14329   6.346   3.051   8.527  0.0852 -0.2719 -0.1216
  132OSM   H18F14330   6.356   2.983   8.615  1.8263  0.1507  0.0464
  132OSM   H18G14331   6.269   3.125   8.559 -0.8273 -1.2436 -0.0001
  132OSM   H18H14332   6.442   3.104   8.508  0.6528 -0.8999  0.8859
  133OSM      N14333   6.581   2.645   6.125 -0.2642 -0.5742  0.4397
  133OSM    C1514334   6.618   2.583   5.988 -0.4785 -0.2821 -0.4778
  133OSM   H15A14335   6.672   2.491   6.008 -1.2197 -0.2503  2.0386
  133OSM   H15B14336   6.676   2.655   5.933  0.4794 -2.2002 -2.0867
  133OSM   H15C14337   6.538   2.558   5.920  0.4815 -0.5256 -1.5324
  133OSM    C1414338   6.495   2.551   6.197  0.1547  0.3970 -0.2232
  133OSM   H14A14339   6.454   2.590   6.290 -0.5039 -0.1797 -0.2621
  133OSM   H14B14340   6.556   2.464   6.219  0.2732  0.9477  1.8995
  133OSM   H14C14341   6.413   2.526   6.131  0.0413  1.7865 -0.6351
  133OSM    C1314342   6.705   2.651   6.202 -0.6905  0.1771  0.1843
  133OSM   H13A14343   6.695   2.712   6.291  0.5227  2.6712 -1.2742
  133OSM   H13B14344   6.777   2.700   6.138  0.1336 -1.5805 -0.3012
  133OSM   H13C14345   6.736   2.548   6.214  0.5162  0.6044  0.9729
  133OSM    C1214346   6.521   2.784   6.105 -0.0057 -0.7079  0.5476
  133OSM   H12A14347   6.589   2.836   6.039 -0.0604 -1.3425 -0.0227
  133OSM   H12B14348   6.520   2.835   6.200  0.8731  1.2554 -0.4417
  133OSM    C1114349   6.383   2.794   6.028 -0.1187 -0.5419  0.2933
  133OSM   H11A14350   6.310   2.734   6.086  1.4715 -1.8757  0.9580
  133OSM   H11B14351   6.395   2.740   5.932  2.1018  0.4653 -0.0623
  133OSM      P14352   6.185   2.952   6.011 -0.1153  0.3349  0.0614
  133OSM    O1314353   6.145   3.090   5.972 -0.0827  0.3211 -0.3008
  133OSM    O1414354   6.118   2.836   5.950  0.0043  0.1966  0.3583
  133OSM    O1114355   6.147   2.941   6.167  0.0853 -0.0144  0.0068
  133OSM    O1214356   6.343   2.930   6.012  0.3696  0.1352 -0.0163
  133OSM    C1S14357   6.230   3.022   6.256 -0.0061 -0.3172 -0.0595
  133OSM    H1S14358   6.219   3.130   6.235  0.9347 -0.3092 -0.5848
  133OSM    H1T14359   6.338   2.997   6.243 -0.4098 -1.5737 -1.2729
  133OSM     NF14360   6.285   3.084   6.489 -0.1073  0.2157 -0.7725
  133OSM    HNF14361   6.360   3.046   6.543  0.9759 -0.4386 -2.6378
  133OSM    C2S14362   6.206   2.988   6.410 -0.3918  0.2140  1.0543
  133OSM    H2S14363   6.101   3.013   6.436 -0.2961  2.3297 -0.3286
  133OSM    C3S14364   6.233   2.837   6.433 -0.3800  0.1687  0.3678
  133OSM    H3S14365   6.337   2.817   6.399 -0.3003  0.4157  0.4690
  133OSM     O314366   6.148   2.754   6.356 -0.0735  0.3583 -0.3083
  133OSM    HO314367   6.111   2.819   6.295  1.1528  0.5124 -0.9139
  133OSM    C4S14368   6.206   2.815   6.577 -0.3244  0.3666  0.1986
  133OSM    H4S14369   6.302   2.809   6.631  0.7335 -2.7697 -1.7482
  133OSM    C5S14370   6.096   2.809   6.655  0.5839  0.6442 -0.7015
  133OSM    H5S14371   6.000   2.819   6.603  1.7818  0.5685 -3.0695
  133OSM    C6S14372   6.096   2.786   6.802 -0.5668  0.1836  0.4300
  133OSM    H6S14373   6.193   2.739   6.830 -0.6670 -0.3920 -0.1771
  133OSM    H6T14374   6.009   2.721   6.824 -0.7942 -0.0861 -1.1262
  133OSM    C7S14375   6.094   2.919   6.874 -0.5362 -0.8086 -0.1203
  133OSM    H7S14376   6.033   3.002   6.831  1.0956  3.1592  4.2757
  133OSM    H7T14377   6.198   2.959   6.876 -0.2168 -1.5535  3.1250
  133OSM    C8S14378   6.070   2.883   7.021 -0.1662 -0.5865 -0.5133
  133OSM    H8S14379   6.111   2.782   7.043 -0.3871 -0.7702 -0.9392
  133OSM    H8T14380   5.961   2.884   7.044  0.2296  2.8928  2.0752
  133OSM    C9S14381   6.116   2.986   7.127  0.3575 -0.4145  0.4978
  133OSM    H9S14382   6.100   3.086   7.082 -0.2653 -0.6075  0.2686
  133OSM    H9T14383   6.227   2.980   7.134  0.5325 -0.2288 -1.4418
  133OSM   C10S14384   6.044   2.984   7.256 -0.5198 -0.2282  0.2478
  133OSM   H10S14385   5.938   3.018   7.245 -0.3507  1.6800  3.3637
  133OSM   H10T14386   6.078   3.059   7.330  0.6744  1.2532 -1.7105
  133OSM   C11S14387   6.057   2.851   7.326 -0.4919  0.3325 -0.0415
  133OSM   H11S14388   6.159   2.807   7.329 -0.8710 -0.5488  2.3386
  133OSM   H11T14389   6.011   2.774   7.260  0.5851  0.4427 -0.9467
  133OSM   C12S14390   6.006   2.860   7.463 -0.5736 -0.6960  0.1365
  133OSM   H12S14391   5.914   2.923   7.457  0.7993  1.5209  1.0548
  133OSM   H12T14392   6.066   2.930   7.525 -1.0866 -0.7559  0.7249
  133OSM   C13S14393   5.990   2.724   7.532  0.3001  0.4512 -0.5046
  133OSM   H13S14394   6.083   2.664   7.525  0.6673  1.1087 -1.4315
  133OSM   H13T14395   5.916   2.660   7.479  1.8257 -1.1651 -0.7792
  133OSM   C14S14396   5.948   2.731   7.677 -0.4828  0.2558  0.0935
  133OSM   H14S14397   6.024   2.793   7.728  0.1342 -0.9648  0.7137
  133OSM   H14T14398   5.956   2.630   7.723  1.7204  0.2130 -0.2727
  133OSM   C15S14399   5.802   2.790   7.699 -0.1005  0.2736  0.0150
  133OSM   H15S14400   5.734   2.729   7.637  1.3704  0.1362 -1.5027
  133OSM   H15T14401   5.798   2.895   7.662 -0.4322  0.1966 -0.1644
  133OSM   C16S14402   5.770   2.783   7.848 -0.6540  0.2963  0.1568
  133OSM   H16S14403   5.860   2.835   7.889 -0.1205 -0.9536  0.6147
  133OSM   H16T14404   5.760   2.676   7.876 -1.5082  0.5214  0.7400
  133OSM   C17S14405   5.648   2.862   7.894  0.2993  0.4677  0.1268
  133OSM   H17S14406   5.559   2.815   7.846  0.0628  0.8561  0.1844
  133OSM   H17T14407   5.653   2.967   7.859  1.5485  0.7089  0.9444
  133OSM   C18S14408   5.636   2.864   8.047 -0.7420  0.4869  0.0335
  133OSM   H18S14409   5.652   2.759   8.079 -0.4145  0.2446 -0.9058
  133OSM   H18T14410   5.534   2.903   8.071 -0.7610  0.3177  0.2299
  133OSM   H18U14411   5.716   2.928   8.090  2.0386 -1.1564 -2.3560
  133OSM    C1F14412   6.266   3.215   6.504  0.1504  0.1967  0.3268
  133OSM     OF14413   6.175   3.278   6.447 -0.0476  0.2251 -0.2771
  133OSM    C2F14414   6.351   3.272   6.610  0.1392 -0.4285  0.5237
  133OSM    H2F14415   6.355   3.383   6.611 -0.8471 -0.3841  0.9529
  133OSM    H2G14416   6.456   3.243   6.590 -0.0615 -0.7587 -0.0832
  133OSM    C3F14417   6.305   3.227   6.750 -0.5910  0.2000  0.4066
  133OSM    H3F14418   6.320   3.118   6.764  0.8714  0.2926 -0.2653
  133OSM    H3G14419   6.198   3.252   6.768  0.0009  1.5557  2.4114
  133OSM    C4F14420   6.384   3.297   6.866  0.0813  0.0018  0.0172
  133OSM    H4F14421   6.358   3.405   6.872 -1.4037 -0.3411 -0.0118
  133OSM    H4G14422   6.492   3.287   6.842 -0.5847 -3.4470 -2.2674
  133OSM    C5F14423   6.345   3.244   7.000  0.1313  0.8144 -0.3684
  133OSM    H5F14424   6.403   3.152   7.022 -0.3260  0.4357 -0.7144
  133OSM    H5G14425   6.240   3.212   6.982  0.5711  0.1659 -2.0572
  133OSM    C6F14426   6.357   3.349   7.115 -0.4951 -0.4809  0.6444
  133OSM    H6F14427   6.295   3.437   7.087  1.1095 -0.0328 -1.8003
  133OSM    H6G14428   6.462   3.387   7.111 -0.4636 -0.5976  0.3446
  133OSM    C7F14429   6.329   3.296   7.253  1.1348 -0.3069  0.0817
  133OSM    H7F14430   6.390   3.207   7.278  0.6049 -0.8130 -0.4037
  133OSM    H7G14431   6.224   3.259   7.248  0.9707  0.1853 -0.2327
  133OSM    C8F14432   6.332   3.410   7.361 -0.8104  0.2953 -0.3207
  133OSM    H8F14433   6.267   3.491   7.322  0.1076  0.2976 -1.9351
  133OSM    H8G14434   6.433   3.454   7.361 -0.9738  0.8493  2.7292
  133OSM    C9F14435   6.295   3.368   7.502 -0.0417  0.8359 -0.3695
  133OSM    H9F14436   6.187   3.362   7.519  0.1561 -0.4125  0.5811
  133OSM   C10F14437   6.376   3.335   7.606  0.5977 -0.6501  0.4166
  133OSM   H10F14438   6.327   3.297   7.697  0.5801 -0.2990  0.5561
  133OSM   C11F14439   6.524   3.328   7.598  0.1194 -0.1903  0.0306
  133OSM   H11F14440   6.572   3.385   7.515  1.4647 -0.6838  0.4427
  133OSM   H11G14441   6.561   3.223   7.593 -0.2906 -0.3420  0.1498
  133OSM   C12F14442   6.585   3.379   7.728  0.4807  0.3872  0.4175
  133OSM   H12F14443   6.571   3.489   7.736  0.0340  0.4160 -0.5629
  133OSM   H12G14444   6.694   3.376   7.708  0.3419  0.3355 -0.3690
  133OSM   C13F14445   6.556   3.301   7.856  0.9326 -0.8443  0.0893
  133OSM   H13F14446   6.598   3.198   7.847  0.7367 -0.9291  0.1305
  133OSM   H13G14447   6.448   3.297   7.881  1.4208  0.5508  2.8526
  133OSM   C14F14448   6.622   3.367   7.981 -0.4592 -0.0341  0.3996
  133OSM   H14F14449   6.578   3.325   8.074  0.7739 -1.6696  0.2895
  133OSM   H14G14450   6.596   3.474   7.989 -0.5253  0.1303 -1.6008
  133OSM   C15F14451   6.770   3.348   7.992 -0.1776  0.5522 -0.0523
  133OSM   H15F14452   6.821   3.373   7.896 -0.2752 -2.8526 -1.1259
  133OSM   H15G14453   6.802   3.243   8.006  0.3543  0.6421 -0.5099
  133OSM   C16F14454   6.827   3.433   8.103  0.2106 -0.2578  0.2500
  133OSM   H16F14455   6.762   3.432   8.193 -0.4367 -0.8876 -0.2103
  133OSM   H16G14456   6.825   3.535   8.058  2.5727  0.2304  1.1256
  133OSM   C17F14457   6.956   3.388   8.148 -1.0966 -0.5220  0.0921
  133OSM   H17F14458   7.015   3.394   8.054 -0.4239 -0.3388  0.5178
  133OSM   H17G14459   6.955   3.282   8.180  1.1445  0.4649  4.1148
  133OSM   C18F14460   7.007   3.486   8.260 -0.2779  0.4736  0.1249
  133OSM   H18F14461   7.005   3.591   8.223  3.5478  0.5397 -0.3632
  133OSM   H18G14462   7.108   3.464   8.302  0.2515  0.9725 -0.8252
  133OSM   H18H14463   6.937   3.467   8.343 -0.6977 -3.6846 -0.9739
  134OSM      N14464   5.812   0.205   5.989  0.2082  0.1251  0.1937
  134OSM    C1514465   5.927   0.254   5.906 -0.1814  0.4041 -0.2089
  134OSM   H15A14466   5.952   0.354   5.937  0.2625  0.1042  0.4224
  134OSM   H15B14467   5.909   0.256   5.799  1.7846 -0.2922 -0.6079
  134OSM   H15C14468   6.018   0.196   5.915  0.0790  0.7864 -0.3051
  134OSM    C1414469   5.701   0.304   5.981  0.1156  0.2338 -0.8126
  134OSM   H14A14470   5.611   0.263   6.025 -0.9048  0.0013 -2.9902
  134OSM   H14B14471   5.669   0.334   5.882  1.0221  0.6057 -1.0010
  134OSM   H14C14472   5.725   0.392   6.039 -0.7988 -0.6264  0.9593
  134OSM    C1314473   5.754   0.078   5.930  0.7798  0.0108  0.5667
  134OSM   H13A14474   5.741   0.102   5.826  2.6224 -0.3382  0.2086
  134OSM   H13B14475   5.653   0.061   5.964  0.7343 -2.7680 -0.6563
  134OSM   H13C14476   5.805  -0.017   5.942 -2.6084 -2.0639 -0.1167
  134OSM    C1214477   5.857   0.169   6.132  0.3984  0.1505 -0.0179
  134OSM   H12A14478   5.939   0.101   6.120 -1.5190 -2.0607 -1.5678
  134OSM   H12B14479   5.780   0.112   6.183  0.2428  1.0007  0.7381
  134OSM    C1114480   5.898   0.286   6.227 -0.5149  0.4472 -0.0565
  134OSM   H11A14481   5.901   0.252   6.333 -2.0625 -2.2514 -0.7750
  134OSM   H11B14482   5.818   0.362   6.215 -2.7513 -1.5078  1.4548
  134OSM      P14483   6.158   0.244   6.190 -0.5290 -0.1175 -0.0838
  134OSM    O1314484   6.183   0.204   6.050 -0.1342 -0.0511 -0.4810
  134OSM    O1414485   6.261   0.308   6.275 -0.0790 -0.2505  0.4715
  134OSM    O1114486   6.105   0.107   6.256  0.6791 -0.1247  0.9578
  134OSM    O1214487   6.027   0.336   6.187 -0.2506 -0.8530  0.5947
  134OSM    C1S14488   6.125   0.072   6.388 -0.5355 -0.1823  0.1152
  134OSM    H1S14489   6.126   0.166   6.448  0.8937 -2.0040  3.1471
  134OSM    H1T14490   6.225   0.024   6.393 -0.8127 -0.5994  3.5496
  134OSM     NF14491   6.057  -0.048   6.587  0.1716 -0.1301  0.1670
  134OSM    HNF14492   6.078  -0.141   6.616  0.6005  0.3124  1.3260
  134OSM    C2S14493   6.025  -0.026   6.452  0.6662  0.4000 -0.1451
  134OSM    H2S14494   5.927   0.028   6.451 -0.0687 -0.8765 -1.9713
  134OSM    C3S14495   6.016  -0.160   6.368 -0.1228  0.2272 -0.4373
  134OSM    H3S14496   6.116  -0.207   6.365 -0.1941  0.1302 -1.4321
  134OSM     O314497   5.974  -0.143   6.230 -0.6035 -0.7303 -0.4290
  134OSM    HO314498   6.013  -0.056   6.215 -0.4607 -0.5607  0.8013
  134OSM    C4S14499   5.921  -0.252   6.437  0.1641  0.2723 -0.0391
  134OSM    H4S14500   5.968  -0.299   6.526 -0.4681  0.1010  0.2071
  134OSM    C5S14501   5.795  -0.292   6.409 -0.6210  0.2320 -0.7292
  134OSM    H5S14502   5.743  -0.251   6.321  0.3447  2.5002 -0.3131
  134OSM    C6S14503   5.714  -0.394   6.495 -0.4576 -1.1582  0.4238
  134OSM    H6S14504   5.689  -0.482   6.433  1.5436  0.0708 -2.3511
  134OSM    H6T14505   5.620  -0.346   6.530 -0.5686 -1.9009  1.1866
  134OSM    C7S14506   5.784  -0.448   6.622  0.7181 -0.5065  0.6054
  134OSM    H7S14507   5.878  -0.501   6.596  0.4594 -0.4859 -0.4014
  134OSM    H7T14508   5.714  -0.518   6.670 -0.1274 -0.6717 -0.8118
  134OSM    C8S14509   5.803  -0.348   6.744 -0.7123 -0.1855 -0.7003
  134OSM    H8S14510   5.706  -0.324   6.792  0.1420 -0.2771  1.1700
  134OSM    H8T14511   5.858  -0.259   6.707  1.8329 -0.9207  0.9975
  134OSM    C9S14512   5.892  -0.412   6.858  0.4101 -0.1700  0.2476
  134OSM    H9S14513   5.999  -0.429   6.833  0.6833  1.6014  0.1264
  134OSM    H9T14514   5.865  -0.516   6.887  1.0082 -0.4302 -0.1205
  134OSM   C10S14515   5.897  -0.317   6.979  0.1976  0.1631  0.3410
  134OSM   H10S14516   5.795  -0.303   7.022 -0.1224 -1.6272  0.2386
  134OSM   H10T14517   5.936  -0.214   6.964 -0.8759  0.2998 -1.8047
  134OSM   C11S14518   5.977  -0.388   7.087 -0.0251 -0.3327  0.2649
  134OSM   H11S14519   6.076  -0.408   7.040  0.9457  0.6158  1.7880
  134OSM   H11T14520   5.930  -0.483   7.121  0.1121 -0.6202 -0.3453
  134OSM   C12S14521   6.008  -0.305   7.214  0.3225  0.0633  0.3570
  134OSM   H12S14522   5.934  -0.223   7.226  1.3290  1.0107  0.2216
  134OSM   H12T14523   6.108  -0.258   7.198 -0.6963  1.7684 -1.3114
  134OSM   C13S14524   6.017  -0.397   7.335  0.4286 -0.1772 -0.0068
  134OSM   H13S14525   6.097  -0.468   7.305  2.4083  1.4462  1.1706
  134OSM   H13T14526   5.918  -0.446   7.342  0.6338 -0.5580  0.2395
  134OSM   C14S14527   6.065  -0.322   7.454 -0.0014  0.1233 -0.0055
  134OSM   H14S14528   5.982  -0.267   7.503  2.3240  2.2801  1.8141
  134OSM   H14T14529   6.152  -0.254   7.437  1.7785 -1.7014  1.3293
  134OSM   C15S14530   6.105  -0.423   7.565 -0.2455  0.2970  0.2032
  134OSM   H15S14531   6.199  -0.469   7.529  2.0504  1.4205  4.1754
  134OSM   H15T14532   6.035  -0.507   7.585  0.7026 -0.9129 -1.3274
  134OSM   C16S14533   6.155  -0.352   7.690 -1.7881 -0.2327  0.1046
  134OSM   H16S14534   6.161  -0.432   7.767  0.7453 -1.9776 -1.7451
  134OSM   H16T14535   6.089  -0.265   7.708 -0.1703  1.2561 -0.8979
  134OSM   C17S14536   6.296  -0.298   7.664  0.5491  0.1937 -0.4292
  134OSM   H17S14537   6.289  -0.223   7.582  1.1108 -0.0849 -0.7331
  134OSM   H17T14538   6.371  -0.375   7.637  1.2591  0.7188  0.0195
  134OSM   C18S14539   6.344  -0.224   7.789  0.1698 -0.3240 -0.0978
  134OSM   H18S14540   6.440  -0.169   7.777 -0.5177  1.1148  0.7914
  134OSM   H18T14541   6.348  -0.301   7.869 -0.6100 -0.6816 -0.3882
  134OSM   H18U14542   6.272  -0.144   7.815 -0.2421 -1.1870  1.5296
  134OSM    C1F14543   6.045   0.049   6.677  0.1097  0.0111 -0.0151
  134OSM     OF14544   5.988   0.153   6.654  0.7257 -0.2421  0.7275
  134OSM    C2F14545   6.095   0.015   6.820  0.1411 -0.3497  0.0885
  134OSM    H2F14546   6.204  -0.001   6.829  0.1701  0.4458  1.3009
  134OSM    H2G14547   6.056  -0.086   6.847 -1.2664  0.2304  0.3086
  134OSM    C3F14548   6.051   0.121   6.926 -0.3629 -0.0686 -0.2962
  134OSM    H3F14549   5.941   0.138   6.914 -0.7112 -1.6417  0.4069
  134OSM    H3G14550   6.096   0.221   6.907 -0.8778  0.2813  0.2892
  134OSM    C4F14551   6.083   0.073   7.072 -0.9267 -0.3043  0.3306
  134OSM    H4F14552   6.191   0.076   7.097 -1.2345  0.7427  1.6442
  134OSM    H4G14553   6.048  -0.033   7.082  0.7797 -0.8246  1.0720
  134OSM    C5F14554   5.999   0.170   7.162 -0.1787 -0.7004  0.1424
  134OSM    H5F14555   5.898   0.161   7.117 -0.5331 -2.2008  1.1659
  134OSM    H5G14556   6.045   0.271   7.154  0.0104 -0.8464 -0.6737
  134OSM    C6F14557   5.982   0.138   7.311 -0.1539  0.4828 -0.1169
  134OSM    H6F14558   5.933   0.039   7.318  0.5606 -0.0467 -2.0773
  134OSM    H6G14559   5.909   0.209   7.355 -2.2788 -0.8847 -1.2698
  134OSM    C7F14560   6.117   0.111   7.382 -0.4944 -0.1759 -0.3144
  134OSM    H7F14561   6.187   0.191   7.351  1.3230 -1.4326  0.3295
  134OSM    H7G14562   6.153   0.015   7.338 -1.3516 -0.1139 -1.1753
  134OSM    C8F14563   6.114   0.087   7.530  0.0369  0.5843 -0.6886
  134OSM    H8F14564   6.070  -0.011   7.559  0.3199  0.4025 -0.8631
  134OSM    H8G14565   6.045   0.160   7.577 -0.2831  0.5453 -1.0963
  134OSM    C9F14566   6.256   0.082   7.583  0.4255 -0.0320 -0.8679
  134OSM    H9F14567   6.318  -0.006   7.558  1.4357 -0.2336  1.9564
  134OSM   C10F14568   6.309   0.168   7.673  0.0633 -1.0991  0.3874
  134OSM   H10F14569   6.419   0.169   7.683 -0.0142 -0.1235  1.2330
  134OSM   C11F14570   6.248   0.292   7.730 -0.4553  0.2238  0.4986
  134OSM   H11F14571   6.151   0.320   7.683 -0.8980 -2.6493 -0.4993
  134OSM   H11G14572   6.319   0.377   7.719  1.8520 -1.8629 -2.1111
  134OSM   C12F14573   6.221   0.275   7.880  0.2574  0.4237  0.1008
  134OSM   H12F14574   6.161   0.366   7.900  0.6516  1.2915 -2.3052
  134OSM   H12G14575   6.313   0.282   7.943  0.0604  0.7769  0.3511
  134OSM   C13F14576   6.127   0.163   7.930 -0.0880  0.3593  0.1670
  134OSM   H13F14577   6.194   0.075   7.925  2.9012  2.4461  0.9284
  134OSM   H13G14578   6.042   0.139   7.863 -0.0749 -0.3874  0.4107
  134OSM   C14F14579   6.090   0.164   8.081 -0.4124 -0.3184 -0.2968
  134OSM   H14F14580   6.053   0.264   8.114  0.6739  0.6470 -1.8824
  134OSM   H14G14581   6.182   0.168   8.143 -1.8750 -1.5327  2.1353
  134OSM   C15F14582   5.999   0.048   8.126 -0.0852 -0.1668 -0.1364
  134OSM   H15F14583   6.021  -0.051   8.081  1.9642 -0.5512  1.5733
  134OSM   H15G14584   5.899   0.067   8.080 -0.9720 -1.8131  0.9843
  134OSM   C16F14585   5.984   0.048   8.276 -0.1624  0.4607 -0.7096
  134OSM   H16F14586   5.988   0.151   8.317 -0.2931  0.7532 -1.4155
  134OSM   H16G14587   6.065  -0.014   8.320 -1.5904 -2.2088 -1.5619
  134OSM   C17F14588   5.849  -0.029   8.314 -0.7672  0.1307  0.2079
  134OSM   H17F14589   5.851  -0.131   8.271 -1.6669 -0.1830  0.9009
  134OSM   H17G14590   5.759   0.032   8.292 -1.6950 -0.5031  2.0492
  134OSM   C18F14591   5.851  -0.041   8.466  0.6685 -0.0907  0.0186
  134OSM   H18F14592   5.753  -0.079   8.502  0.0017  0.3084 -1.3201
  134OSM   H18G14593   5.864   0.060   8.512 -2.0307 -0.2387  1.3230
  134OSM   H18H14594   5.933  -0.110   8.495  1.6005  0.4882 -1.1354
  135OSM      N14595   5.245   0.834   6.353 -0.5866 -0.6422 -0.4017
  135OSM    C1514596   5.123   0.761   6.384  0.4356  0.3659  0.7170
  135OSM   H15A14597   5.084   0.791   6.481 -2.2176  0.8400 -0.4185
  135OSM   H15B14598   5.139   0.655   6.374  0.6815  0.2981  1.7158
  135OSM   H15C14599   5.046   0.800   6.319 -0.8300 -2.3777  0.4309
  135OSM    C1414600   5.272   0.820   6.206  0.2097 -0.6632 -0.0317
  135OSM   H14A14601   5.307   0.718   6.198  0.6484 -0.6695  1.5912
  135OSM   H14B14602   5.348   0.894   6.186  0.9589 -1.6228 -0.8885
  135OSM   H14C14603   5.182   0.830   6.149 -0.5236 -2.6315  0.6741
  135OSM    C1314604   5.214   0.976   6.384  0.0512 -0.1714  0.5177
  135OSM   H13A14605   5.193   0.990   6.489  0.6140  0.4147  0.5586
  135OSM   H13B14606   5.126   1.005   6.329 -1.3620 -0.8156  2.3201
  135OSM   H13C14607   5.288   1.047   6.349 -2.6486  2.7867  0.2867
  135OSM    C1214608   5.359   0.776   6.430 -0.6281 -0.1606 -0.9836
  135OSM   H12A14609   5.339   0.793   6.535  3.6663 -0.2322  0.0482
  135OSM   H12B14610   5.448   0.836   6.413  0.4254 -0.7513  1.8462
  135OSM    C1114611   5.394   0.627   6.407  0.0317  0.1321 -0.0340
  135OSM   H11A14612   5.306   0.562   6.426  1.4290 -1.4725  1.2747
  135OSM   H11B14613   5.458   0.614   6.496 -0.3342  0.7167  0.3180
  135OSM      P14614   5.607   0.640   6.261  0.1347  0.3613  0.0897
  135OSM    O1314615   5.654   0.594   6.132  0.1029  0.1104 -0.0863
  135OSM    O1414616   5.623   0.783   6.283 -0.3364 -0.1727  0.5351
  135OSM    O1114617   5.678   0.565   6.380 -0.5326  0.6796  0.2346
  135OSM    O1214618   5.459   0.590   6.282 -0.0177  0.4380 -0.5622
  135OSM    C1S14619   5.812   0.590   6.428  0.5939  0.5996 -0.1395
  135OSM    H1S14620   5.842   0.692   6.395  0.2965  0.7945  0.1898
  135OSM    H1T14621   5.889   0.526   6.380  0.8968 -0.3927  1.6036
  135OSM     NF14622   5.952   0.605   6.617 -0.0330 -0.1807  0.0404
  135OSM    HNF14623   6.012   0.526   6.627 -0.4636 -0.4976  0.1235
  135OSM    C2S14624   5.815   0.579   6.582 -0.7302 -0.0019  0.9990
  135OSM    H2S14625   5.764   0.664   6.633  1.3741  1.5459  0.6176
  135OSM    C3S14626   5.766   0.441   6.628  0.4376 -0.2912 -0.2592
  135OSM    H3S14627   5.820   0.354   6.585 -0.2740 -2.6037  3.1362
  135OSM     O314628   5.627   0.416   6.602  0.2763  0.1701 -0.2738
  135OSM    HO314629   5.619   0.469   6.523 -0.2911  2.6327  1.3111
  135OSM    C4S14630   5.803   0.426   6.781  0.2936 -0.9013  0.2379
  135OSM    H4S14631   5.901   0.387   6.811 -0.5383 -0.5536  3.8506
  135OSM    C5S14632   5.719   0.440   6.882  0.0712  0.1156 -0.3794
  135OSM    H5S14633   5.613   0.459   6.859  0.6217  1.0725 -2.2937
  135OSM    C6S14634   5.746   0.419   7.032  0.1322 -0.4142 -0.4038
  135OSM    H6S14635   5.850   0.379   7.040  0.8942  1.5459  0.1622
  135OSM    H6T14636   5.663   0.372   7.088 -0.9674  0.4523 -1.2591
  135OSM    C7S14637   5.769   0.552   7.112  0.3615 -0.0349  0.3637
  135OSM    H7S14638   5.683   0.622   7.104  0.7158  0.2420 -1.4957
  135OSM    H7T14639   5.847   0.612   7.060  1.0991 -1.1656  0.1434
  135OSM    C8S14640   5.812   0.536   7.254  0.1857 -0.1904  0.0053
  135OSM    H8S14641   5.854   0.627   7.301  2.1942 -0.5842 -0.9151
  135OSM    H8T14642   5.903   0.473   7.266  0.3273 -0.0705 -0.4371
  135OSM    C9S14643   5.714   0.472   7.356 -0.3505 -0.0957  0.4401
  135OSM    H9S14644   5.676   0.374   7.322  0.6912 -0.7195  1.0249
  135OSM    H9T14645   5.629   0.543   7.365 -0.7056 -0.5577  0.8377
  135OSM   C10S14646   5.790   0.457   7.488  0.0490  0.6508 -0.5352
  135OSM   H10S14647   5.861   0.537   7.517 -1.5730  1.8786  0.2574
  135OSM   H10T14648   5.853   0.367   7.478  2.2030  1.8450  1.3316
  135OSM   C11S14649   5.708   0.437   7.619  0.8089 -0.7246 -0.1292
  135OSM   H11S14650   5.635   0.355   7.608 -4.6932  3.5463 -0.0047
  135OSM   H11T14651   5.636   0.517   7.647  2.4471  0.1519  1.8046
  135OSM   C12S14652   5.803   0.423   7.742 -0.2249 -0.2454 -0.4997
  135OSM   H12S14653   5.851   0.520   7.766 -0.5876 -0.1261 -0.2490
  135OSM   H12T14654   5.878   0.341   7.726 -1.2393 -1.6983  1.7441
  135OSM   C13S14655   5.723   0.374   7.868  0.2041 -0.5001  0.1443
  135OSM   H13S14656   5.707   0.267   7.840  1.1323 -0.6812  0.2807
  135OSM   H13T14657   5.627   0.430   7.865  1.1581  1.2727  1.3191
  135OSM   C14S14658   5.792   0.393   8.000  1.2026 -0.3319  0.2238
  135OSM   H14S14659   5.847   0.489   8.004 -0.1116  0.4425  0.2357
  135OSM   H14T14660   5.867   0.311   8.007  0.1780 -1.4823 -1.6398
  135OSM   C15S14661   5.693   0.390   8.118  0.4330 -0.3377 -0.4459
  135OSM   H15S14662   5.638   0.487   8.111  1.0840  0.2451  1.6736
  135OSM   H15T14663   5.759   0.417   8.203  0.9218  0.3497 -1.0177
  135OSM   C16S14664   5.615   0.255   8.136 -0.5127  0.3395 -0.7147
  135OSM   H16S14665   5.683   0.172   8.108 -1.5172 -0.1529 -1.7570
  135OSM   H16T14666   5.540   0.242   8.056 -1.0445  2.6990 -0.6712
  135OSM   C17S14667   5.567   0.230   8.279  0.2865 -0.2339 -0.4501
  135OSM   H17S14668   5.509   0.323   8.298  2.6288  1.4344 -0.9930
  135OSM   H17T14669   5.660   0.219   8.339 -0.2250 -1.1557  0.1943
  135OSM   C18S14670   5.479   0.104   8.292 -0.5685  0.1688 -0.0746
  135OSM   H18S14671   5.535   0.010   8.309 -0.2202  0.2650 -0.6769
  135OSM   H18T14672   5.426   0.099   8.195 -1.1860  1.4750  0.1767
  135OSM   H18U14673   5.409   0.120   8.377  0.5768  0.1535  0.9056
  135OSM    C1F14674   6.007   0.729   6.612 -0.1263 -0.1595 -0.0286
  135OSM     OF14675   5.947   0.825   6.578  0.0029 -0.0343  0.2960
  135OSM    C2F14676   6.157   0.742   6.646  0.0112  0.2652 -0.2279
  135OSM    H2F14677   6.186   0.849   6.641  1.0383  0.2965  3.5111
  135OSM    H2G14678   6.210   0.674   6.576  2.3668  1.9629 -0.2085
  135OSM    C3F14679   6.195   0.676   6.786  0.1233  0.0570  0.3190
  135OSM    H3F14680   6.303   0.652   6.788 -0.2200 -1.5296  0.9663
  135OSM    H3G14681   6.132   0.585   6.796 -1.6008  1.0674 -0.8074
  135OSM    C4F14682   6.148   0.754   6.911  0.5566 -0.5171  0.0288
  135OSM    H4F14683   6.039   0.772   6.914  0.8865  1.6957  0.8447
  135OSM    H4G14684   6.193   0.856   6.917  1.7754 -1.1046  1.6134
  135OSM    C5F14685   6.210   0.689   7.029  0.3771  0.7448 -0.0070
  135OSM    H5F14686   6.318   0.706   7.015  0.1477  0.2911 -2.7521
  135OSM    H5G14687   6.193   0.579   7.030  0.8157  0.6687  1.5284
  135OSM    C6F14688   6.152   0.738   7.156  0.0494  0.0258  0.1239
  135OSM    H6F14689   6.041   0.730   7.155 -0.2208  2.3549 -2.5814
  135OSM    H6G14690   6.170   0.847   7.170  0.1153  0.0476 -0.1333
  135OSM    C7F14691   6.204   0.673   7.277  0.6993  0.5038 -0.0298
  135OSM    H7F14692   6.313   0.673   7.257  0.5031  2.9423 -1.4525
  135OSM    H7G14693   6.170   0.567   7.285  2.2773 -0.0611 -0.4780
  135OSM    C8F14694   6.184   0.751   7.409 -0.6956  0.5989  0.8531
  135OSM    H8F14695   6.087   0.719   7.451 -1.4324  1.6940  0.0318
  135OSM    H8G14696   6.182   0.859   7.381 -1.3290  1.3568  3.5393
  135OSM    C9F14697   6.301   0.739   7.504  0.4363  0.3291  0.2397
  135OSM    H9F14698   6.393   0.710   7.450 -0.8991 -1.1562 -1.3596
  135OSM   C10F14699   6.313   0.781   7.628 -0.6767  0.0184  0.6235
  135OSM   H10F14700   6.408   0.760   7.681  0.0767  1.1026 -0.2610
  135OSM   C11F14701   6.207   0.835   7.715  0.3812 -0.4359  0.7029
  135OSM   H11F14702   6.111   0.780   7.705 -0.7908  1.4915  0.8064
  135OSM   H11G14703   6.190   0.937   7.675 -0.4405  0.2856  2.7301
  135OSM   C12F14704   6.237   0.836   7.863 -0.4757  0.1682 -0.6498
  135OSM   H12F14705   6.146   0.875   7.914 -0.9401  0.1833 -1.4669
  135OSM   H12G14706   6.314   0.913   7.884 -0.0835 -1.2522  4.3308
  135OSM   C13F14707   6.283   0.705   7.924 -0.1738  1.1217  0.7230
  135OSM   H13F14708   6.379   0.662   7.888 -0.9336 -1.2259  1.3055
  135OSM   H13G14709   6.204   0.631   7.900  1.6369 -0.4643 -0.5809
  135OSM   C14F14710   6.284   0.704   8.079 -0.3936 -0.1895 -0.1031
  135OSM   H14F14711   6.191   0.745   8.123 -0.7433 -1.4859  0.4171
  135OSM   H14G14712   6.364   0.772   8.115  1.1602 -1.5736 -0.7929
  135OSM   C15F14713   6.298   0.559   8.128 -0.0154 -0.5178 -0.5438
  135OSM   H15F14714   6.217   0.499   8.080 -1.8872  0.1210  1.6107
  135OSM   H15G14715   6.295   0.551   8.239  2.1050 -1.3678 -0.5029
  135OSM   C16F14716   6.439   0.489   8.111 -1.6550  0.5650 -0.8978
  135OSM   H16F14717   6.464   0.495   8.004  0.6052  2.8634 -0.3354
  135OSM   H16G14718   6.428   0.382   8.137  0.5862  0.2212 -1.1793
  135OSM   C17F14719   6.557   0.559   8.188 -0.2138  0.8270  0.0361
  135OSM   H17F14720   6.550   0.669   8.173 -1.8091  0.7879  0.3301
  135OSM   H17G14721   6.660   0.535   8.154 -0.6140  1.2037 -1.4764
  135OSM   C18F14722   6.560   0.523   8.338 -0.1364  0.1541  0.0775
  135OSM   H18F14723   6.555   0.412   8.346  2.3503 -0.0869 -0.7866
  135OSM   H18G14724   6.471   0.569   8.385 -0.1652  0.5341 -0.3429
  135OSM   H18H14725   6.655   0.560   8.384 -1.8983  4.1396  0.9770
  136OSM      N14726   4.654   1.854   6.129  0.1565  0.3712 -0.4393
  136OSM    C1514727   4.714   1.928   6.009 -0.6175  0.2022 -0.0026
  136OSM   H15A14728   4.777   1.865   5.949  0.2022  1.0479 -0.0365
  136OSM   H15B14729   4.775   2.010   6.042 -2.1936  1.0346  1.0010
  136OSM   H15C14730   4.640   1.975   5.946  0.0153  3.0591  1.2389
  136OSM    C1414731   4.542   1.774   6.062 -1.1257  0.0739 -0.2992
  136OSM   H14A14732   4.581   1.748   5.964 -1.2121 -0.2662 -0.2445
  136OSM   H14B14733   4.460   1.843   6.049  1.8883  3.4622 -3.2466
  136OSM   H14C14734   4.527   1.684   6.121 -1.3069 -0.7908 -1.6093
  136OSM    C1314735   4.755   1.763   6.188 -1.2034 -0.1638  0.7017
  136OSM   H13A14736   4.706   1.685   6.245  1.3896 -1.9919  0.6086
  136OSM   H13B14737   4.822   1.821   6.249 -1.2115 -0.7801  1.3100
  136OSM   H13C14738   4.816   1.724   6.107 -1.1112 -2.7983  1.9276
  136OSM    C1214739   4.604   1.952   6.233  0.4953 -0.0242 -0.0213
  136OSM   H12A14740   4.685   2.019   6.258  0.0801  0.3789  0.2740
  136OSM   H12B14741   4.574   1.893   6.319 -2.5553 -0.3068 -1.1509
  136OSM    C1114742   4.477   2.029   6.195  0.1556  0.0399  0.2627
  136OSM   H11A14743   4.494   2.071   6.093 -1.0612  0.6345  0.2825
  136OSM   H11B14744   4.473   2.122   6.255 -0.9210  1.5179 -1.9702
  136OSM      P14745   4.290   1.876   6.315 -0.4330 -0.1347 -0.2325
  136OSM    O1314746   4.161   1.823   6.275 -0.0383  0.7292  0.0134
  136OSM    O1414747   4.391   1.787   6.385 -0.1492 -0.4459 -0.0114
  136OSM    O1114748   4.254   1.996   6.407  0.2002 -0.1411  0.8522
  136OSM    O1214749   4.356   1.955   6.196 -0.1903 -0.3257  0.3849
  136OSM    C1S14750   4.171   1.982   6.528 -0.2260 -0.0837  0.4831
  136OSM    H1S14751   4.195   1.884   6.577  0.2213 -0.3773 -0.2999
  136OSM    H1T14752   4.063   1.998   6.506  0.1229 -0.9407 -2.1776
  136OSM     NF14753   4.170   2.065   6.759  0.3641  0.4986  0.7418
  136OSM    HNF14754   4.104   2.129   6.796 -0.3885 -0.0974  0.4601
  136OSM    C2S14755   4.222   2.090   6.623 -0.1677  0.0424 -0.4662
  136OSM    H2S14756   4.332   2.089   6.631 -0.2752 -0.6072  1.4069
  136OSM    C3S14757   4.173   2.228   6.563  0.5084  0.0467 -0.1030
  136OSM    H3S14758   4.063   2.217   6.550  0.7713 -0.3120 -2.3687
  136OSM     O314759   4.217   2.262   6.433  0.1428 -0.1932  0.4440
  136OSM    HO314760   4.242   2.175   6.400 -0.4997  0.2084 -1.2039
  136OSM    C4S14761   4.202   2.340   6.664  0.1788 -0.1178 -0.1519
  136OSM    H4S14762   4.117   2.351   6.733 -2.0740 -1.2271 -2.5675
  136OSM    C5S14763   4.317   2.415   6.671  0.2489  0.0641 -0.3925
  136OSM    H5S14764   4.390   2.410   6.589 -0.1281  1.5468 -0.8461
  136OSM    C6S14765   4.340   2.514   6.777  0.2377 -0.0904 -0.3238
  136OSM    H6S14766   4.245   2.571   6.791 -0.5599 -1.8544  2.1242
  136OSM    H6T14767   4.422   2.582   6.747  1.8643 -1.6565  0.4121
  136OSM    C7S14768   4.366   2.439   6.909  0.3344 -0.0075 -0.0223
  136OSM    H7S14769   4.467   2.395   6.895  1.1383  2.2372 -1.7931
  136OSM    H7T14770   4.284   2.364   6.916  1.2700 -1.1656 -0.9622
  136OSM    C8S14771   4.359   2.522   7.042  0.0627  0.2653  0.0414
  136OSM    H8S14772   4.371   2.450   7.126  0.4762 -1.0672 -1.1110
  136OSM    H8T14773   4.261   2.571   7.059 -0.8792 -1.8312  1.0565
  136OSM    C9S14774   4.460   2.634   7.057  0.1036 -0.2564  0.0332
  136OSM    H9S14775   4.419   2.720   7.000 -0.2228  0.2908  1.0669
  136OSM    H9T14776   4.561   2.600   7.025 -0.6010  0.1382 -2.9312
  136OSM   C10S14777   4.467   2.699   7.202 -0.1048  0.2484 -0.0675
  136OSM   H10S14778   4.370   2.699   7.256 -0.6226 -0.4587 -0.9762
  136OSM   H10T14779   4.511   2.797   7.173  1.1490  0.0360  0.9786
  136OSM   C11S14780   4.551   2.614   7.298  0.3968 -0.1309 -0.3091
  136OSM   H11S14781   4.649   2.603   7.247  0.7534  2.0276 -0.1853
  136OSM   H11T14782   4.508   2.512   7.305  0.2172 -0.1377 -1.4357
  136OSM   C12S14783   4.562   2.671   7.440  0.1638  0.3865 -0.3348
  136OSM   H12S14784   4.621   2.765   7.446  1.0167  0.1421 -3.2988
  136OSM   H12T14785   4.621   2.593   7.493 -0.9731 -0.7213 -0.6521
  136OSM   C13S14786   4.422   2.686   7.517 -0.5762 -0.3978  0.0198
  136OSM   H13S14787   4.376   2.586   7.508 -1.8790  0.0948  0.9334
  136OSM   H13T14788   4.361   2.757   7.457  0.8716  0.6065 -0.3304
  136OSM   C14S14789   4.438   2.720   7.663  0.4229  0.5538 -0.2613
  136OSM   H14S14790   4.501   2.644   7.713 -2.6948 -1.6059  0.6565
  136OSM   H14T14791   4.338   2.732   7.710 -0.4770  2.0844 -2.3795
  136OSM   C15S14792   4.505   2.860   7.697  0.4239 -0.6496  0.7697
  136OSM   H15S14793   4.443   2.924   7.631  2.0309  0.6850  0.5188
  136OSM   H15T14794   4.607   2.865   7.654 -1.0123  0.8018 -2.8856
  136OSM   C16S14795   4.498   2.901   7.839 -0.0705  0.2317 -0.1006
  136OSM   H16S14796   4.392   2.906   7.873  0.0244 -0.3319  0.2802
  136OSM   H16T14797   4.538   3.005   7.841  2.9869 -0.8582  0.4540
  136OSM   C17S14798   4.586   2.831   7.939 -0.3872  0.7601  0.1562
  136OSM   H17S14799   4.688   2.831   7.894 -0.9674  0.5054 -1.2115
  136OSM   H17T14800   4.544   2.728   7.939 -2.1668  1.4507 -0.9146
  136OSM   C18S14801   4.594   2.903   8.074  0.0433 -0.2409  0.3214
  136OSM   H18S14802   4.612   3.011   8.057 -0.7171 -0.4451 -2.1135
  136OSM   H18T14803   4.669   2.870   8.150 -0.5331 -2.0817  0.1468
  136OSM   H18U14804   4.495   2.901   8.125  0.2746  2.0034  0.9771
  136OSM    C1F14805   4.216   1.963   6.838  0.1198 -0.3658  0.6370
  136OSM     OF14806   4.318   1.907   6.803 -0.9593  0.0144  0.3879
  136OSM    C2F14807   4.142   1.931   6.964 -0.0781 -0.1456 -0.2695
  136OSM    H2F14808   4.081   1.840   6.941  0.0208 -0.1748 -0.4178
  136OSM    H2G14809   4.080   2.021   6.985 -0.2719 -0.3735  0.1608
  136OSM    C3F14810   4.248   1.922   7.072  0.3566 -0.0390  0.2934
  136OSM    H3F14811   4.307   2.017   7.071  2.4141 -1.2338 -2.0683
  136OSM    H3G14812   4.318   1.840   7.046 -1.4933 -1.0009 -1.9817
  136OSM    C4F14813   4.197   1.880   7.210 -0.0841 -1.0004 -0.2337
  136OSM    H4F14814   4.286   1.875   7.275 -0.0941  0.2231 -0.1070
  136OSM    H4G14815   4.139   1.785   7.203 -2.0800  0.2056 -1.0633
  136OSM    C5F14816   4.119   2.000   7.277 -0.6892  0.2267  0.1436
  136OSM    H5F14817   4.026   1.998   7.217 -0.2628 -0.1472 -0.5120
  136OSM    H5G14818   4.175   2.094   7.254 -0.4767  0.2175  0.5999
  136OSM    C6F14819   4.111   1.982   7.436 -0.0256  0.5553  0.0051
  136OSM    H6F14820   4.037   2.057   7.471 -2.6565 -2.1565  0.7111
  136OSM    H6G14821   4.215   1.994   7.473 -0.0776  1.2440 -0.0622
  136OSM    C7F14822   4.065   1.838   7.487  0.3175  0.3613  0.1868
  136OSM    H7F14823   4.134   1.762   7.445 -1.1162 -0.5748 -0.5516
  136OSM    H7G14824   3.968   1.819   7.436  0.2128  0.2657  0.4227
  136OSM    C8F14825   4.053   1.833   7.634 -0.0709 -0.0027  0.0467
  136OSM    H8F14826   4.153   1.848   7.680 -0.5541  0.5740  0.9539
  136OSM    H8G14827   4.043   1.729   7.671  0.8766 -0.3796 -0.7300
  136OSM    C9F14828   3.944   1.921   7.693 -0.3256  0.1113 -0.2412
  136OSM    H9F14829   3.860   1.933   7.623  0.4226 -1.0977 -1.3983
  136OSM   C10F14830   3.949   1.998   7.806  0.0017  0.3562 -0.7577
  136OSM   H10F14831   3.867   2.069   7.826  0.5055  1.1650 -1.4906
  136OSM   C11F14832   4.067   2.002   7.907  0.4933  0.7028  0.9042
  136OSM   H11F14833   4.105   2.106   7.902 -0.7137  1.1508 -3.8961
  136OSM   H11G14834   4.148   1.935   7.871 -0.4142  0.1417 -0.1511
  136OSM   C12F14835   4.016   1.965   8.047 -0.3807 -0.3554  0.1732
  136OSM   H12F14836   4.104   1.943   8.110 -0.2148  0.5135  0.2576
  136OSM   H12G14837   3.966   1.867   8.034  0.2781 -0.6784  0.0376
  136OSM   C13F14838   3.946   2.080   8.107  0.2962 -0.4060  0.1272
  136OSM   H13F14839   3.859   2.114   8.047  2.8154  1.1161 -2.9617
  136OSM   H13G14840   4.018   2.163   8.118 -0.0536 -0.0810  0.0055
  136OSM   C14F14841   3.909   2.045   8.248  0.4660 -0.0499  0.1792
  136OSM   H14F14842   3.992   1.998   8.304  1.9630  2.0528 -0.1744
  136OSM   H14G14843   3.833   1.964   8.232  2.0819 -1.0463 -3.4756
  136OSM   C15F14844   3.850   2.164   8.330 -0.7943  0.3250 -0.1143
  136OSM   H15F14845   3.929   2.242   8.318 -0.9435  0.3430 -1.1042
  136OSM   H15G14846   3.845   2.130   8.435  0.0414  1.0447  0.1722
  136OSM   C16F14847   3.727   2.219   8.261 -0.5481 -0.4520  0.3539
  136OSM   H16F14848   3.750   2.264   8.162 -0.4022  0.0559  0.6138
  136OSM   H16G14849   3.691   2.308   8.316 -1.9349 -2.1853  2.3985
  136OSM   C17F14850   3.600   2.137   8.250 -0.1386  0.8656  0.0464
  136OSM   H17F14851   3.615   2.050   8.182 -4.0447 -0.0385  0.0804
  136OSM   H17G14852   3.519   2.183   8.189 -0.6224 -0.4791 -0.3630
  136OSM   C18F14853   3.554   2.088   8.386 -0.2019  0.3233  0.8262
  136OSM   H18F14854   3.448   2.056   8.374 -0.0650  0.9950 -3.8035
  136OSM   H18G14855   3.557   2.173   8.458  1.3066  0.1453  1.0022
  136OSM   H18H14856   3.605   1.997   8.423 -1.2951 -0.1963  1.1084
  137OSM      N14857   0.612   6.319   6.165  0.3832 -0.3802 -0.0156
  137OSM    C1514858   0.509   6.389   6.077  0.2138  0.3454 -0.5373
  137OSM   H15A14859   0.549   6.485   6.047  1.8816  0.3072  1.3647
  137OSM   H15B14860   0.418   6.398   6.134  0.0530 -2.0038 -0.3513
  137OSM   H15C14861   0.499   6.320   5.995  0.3595  0.1032 -0.3511
  137OSM    C1414862   0.650   6.195   6.100 -0.2807  0.0695 -0.1671
  137OSM   H14A14863   0.733   6.146   6.148  0.2054  1.4006  0.3879
  137OSM   H14B14864   0.674   6.195   5.995  0.0009  1.0851 -0.1107
  137OSM   H14C14865   0.564   6.128   6.097  1.1790 -1.9641  0.7692
  137OSM    C1314866   0.736   6.407   6.162  0.1764 -0.2601  0.1055
  137OSM   H13A14867   0.818   6.341   6.188  2.6669  1.4252 -2.8211
  137OSM   H13B14868   0.721   6.492   6.227 -0.4603 -0.0584 -0.2919
  137OSM   H13C14869   0.753   6.444   6.063  1.5537 -0.8478  0.1038
  137OSM    C1214870   0.564   6.298   6.303 -0.0610 -0.2595 -0.8616
  137OSM   H12A14871   0.646   6.264   6.365 -0.9143 -2.1754 -0.6866
  137OSM   H12B14872   0.484   6.226   6.306 -1.8233  1.6487  0.7385
  137OSM    C1114873   0.502   6.424   6.372 -0.1960  0.3610  0.5979
  137OSM   H11A14874   0.549   6.509   6.318  0.0332  0.6794  1.2882
  137OSM   H11B14875   0.552   6.425   6.471  1.6322 -2.6152 -0.1675
  137OSM      P14876   0.271   6.328   6.436 -0.3217 -0.3818  0.1751
  137OSM    O1314877   0.129   6.343   6.391  0.3117 -0.8303 -0.0423
  137OSM    O1414878   0.315   6.190   6.420  0.1973  0.0242  0.3125
  137OSM    O1114879   0.274   6.371   6.583  0.3794  0.2091 -0.4246
  137OSM    O1214880   0.361   6.434   6.363 -0.7504  0.5360 -0.1771
  137OSM    C1S14881   0.291   6.502   6.634 -0.2728 -0.0437 -0.5550
  137OSM    H1S14882   0.188   6.540   6.644 -0.7273 -1.1160 -0.9273
  137OSM    H1T14883   0.352   6.566   6.567 -0.1254  1.3962  0.8863
  137OSM     NF14884   0.361   6.628   6.846  0.2104  0.2417  0.1775
  137OSM    HNF14885   0.449   6.672   6.835 -0.8926  2.2164 -1.3979
  137OSM    C2S14886   0.359   6.503   6.777  0.0715 -0.4783 -0.0473
  137OSM    H2S14887   0.284   6.441   6.831 -0.1444 -0.5783 -0.4563
  137OSM    C3S14888   0.497   6.426   6.784 -0.4431 -0.1419 -0.5511
  137OSM    H3S14889   0.572   6.491   6.735  1.9949 -0.9923  1.7865
  137OSM     O314890   0.499   6.298   6.726  0.2815 -0.1369 -0.2173
  137OSM    HO314891   0.412   6.299   6.685 -0.4984 -2.5054  1.2103
  137OSM    C4S14892   0.529   6.420   6.935  0.0989 -0.2186  0.0829
  137OSM    H4S14893   0.563   6.520   6.965 -2.7438  1.4285 -1.7640
  137OSM    C5S14894   0.523   6.315   7.019  0.1656  0.7497  0.0756
  137OSM    H5S14895   0.498   6.228   6.957  1.0149  0.6243 -0.1161
  137OSM    C6S14896   0.559   6.309   7.164  0.1838  0.0509  0.1321
  137OSM    H6S14897   0.663   6.272   7.175 -0.1737 -1.1713 -0.3989
  137OSM    H6T14898   0.502   6.229   7.216  2.6089 -2.0580 -0.2310
  137OSM    C7S14899   0.531   6.438   7.252 -0.0210 -0.2085  0.2847
  137OSM    H7S14900   0.425   6.472   7.250 -0.1334 -0.3144  2.5997
  137OSM    H7T14901   0.589   6.523   7.209  0.4057  0.7710  2.6887
  137OSM    C8S14902   0.565   6.393   7.394 -0.1483  1.0038  0.1599
  137OSM    H8S14903   0.649   6.320   7.389 -0.8194  0.2446 -0.2353
  137OSM    H8T14904   0.477   6.343   7.441 -0.7764  1.7927 -0.1589
  137OSM    C9S14905   0.598   6.513   7.484  0.5083 -0.9054  0.2305
  137OSM    H9S14906   0.511   6.575   7.510  2.3579  1.8957  0.1618
  137OSM    H9T14907   0.683   6.574   7.445  0.4527 -0.3603  0.9419
  137OSM   C10S14908   0.658   6.473   7.625  0.6599  0.5911  0.6796
  137OSM   H10S14909   0.746   6.405   7.616 -0.5036 -0.8179 -0.3937
  137OSM   H10T14910   0.578   6.419   7.680 -2.0417  1.5761 -2.0351
  137OSM   C11S14911   0.688   6.602   7.712  0.0340  0.3975  0.0270
  137OSM   H11S14912   0.593   6.657   7.729 -0.3649 -0.7800  1.8614
  137OSM   H11T14913   0.755   6.665   7.649 -0.6058  1.1843  0.1204
  137OSM   C12S14914   0.755   6.575   7.848  0.7306 -0.0388 -0.3838
  137OSM   H12S14915   0.851   6.523   7.827  1.7905  1.6251  0.2134
  137OSM   H12T14916   0.687   6.511   7.909  0.0128  0.4917 -0.6184
  137OSM   C13S14917   0.784   6.699   7.921  0.3963  0.3931 -0.4801
  137OSM   H13S14918   0.698   6.755   7.964  2.4989  1.6862  2.3420
  137OSM   H13T14919   0.840   6.766   7.853 -0.8017 -0.1539 -2.0789
  137OSM   C14S14920   0.877   6.655   8.041  0.4268  0.1476 -0.2267
  137OSM   H14S14921   0.978   6.637   7.997  0.2089  1.9114 -1.5184
  137OSM   H14T14922   0.841   6.564   8.094  2.0431 -0.3321  0.0955
  137OSM   C15S14923   0.889   6.771   8.147  0.3421  0.4941  0.1629
  137OSM   H15S14924   0.792   6.809   8.186  1.0798  1.4602  1.1010
  137OSM   H15T14925   0.949   6.860   8.118  1.4039 -0.4630 -0.6931
  137OSM   C16S14926   0.962   6.725   8.271 -0.3500 -0.1820  0.2876
  137OSM   H16S14927   1.061   6.681   8.247 -1.1411 -1.0021 -1.6392
  137OSM   H16T14928   0.901   6.642   8.313  1.3638 -1.3407  0.5702
  137OSM   C17S14929   0.987   6.834   8.382  0.1645  0.4270  0.4115
  137OSM   H17S14930   0.890   6.870   8.421 -1.8230 -2.9956 -0.9191
  137OSM   H17T14931   1.021   6.917   8.317  1.1237  1.0483  1.6564
  137OSM   C18S14932   1.086   6.791   8.488  0.0204 -0.2131  0.2716
  137OSM   H18S14933   1.176   6.737   8.451  1.0365 -0.7700  3.2678
  137OSM   H18T14934   1.042   6.719   8.559 -0.6018 -0.5638 -0.4617
  137OSM   H18U14935   1.116   6.886   8.537  0.8241 -0.5917  0.5249
  137OSM    C1F14936   0.249   6.702   6.862 -0.2272  0.5300 -0.9076
  137OSM     OF14937   0.135   6.662   6.843 -0.6527  0.2628  0.0282
  137OSM    C2F14938   0.279   6.846   6.893  0.2464 -0.0826 -0.1642
  137OSM    H2F14939   0.269   6.897   6.795 -1.8528 -2.1915 -1.1356
  137OSM    H2G14940   0.377   6.877   6.936 -0.9101  3.3127  0.3788
  137OSM    C3F14941   0.177   6.917   6.998 -0.4278  0.6699 -0.2134
  137OSM    H3F14942   0.077   6.884   6.962  0.0351  0.2737 -1.1806
  137OSM    H3G14943   0.199   7.024   6.979 -0.8920  0.7808 -0.1334
  137OSM    C4F14944   0.213   6.883   7.141 -0.1166  0.2810  0.4612
  137OSM    H4F14945   0.211   6.772   7.147  2.0634  0.2140  0.5998
  137OSM    H4G14946   0.138   6.928   7.211  1.4128  0.6600  1.9284
  137OSM    C5F14947   0.342   6.931   7.192 -0.2432 -0.2830 -0.1033
  137OSM    H5F14948   0.353   7.034   7.152 -3.0312 -0.4847 -1.6447
  137OSM    H5G14949   0.421   6.866   7.147 -1.5766 -1.7363 -0.4258
  137OSM    C6F14950   0.351   6.927   7.345  0.5165  0.1863  0.2944
  137OSM    H6F14951   0.340   6.820   7.375 -1.3476  0.3337  0.2352
  137OSM    H6G14952   0.266   6.983   7.389 -0.7969 -1.1644 -0.4421
  137OSM    C7F14953   0.484   6.977   7.396 -0.1679  0.8954 -0.1991
  137OSM    H7F14954   0.487   7.087   7.408  0.7588  0.9680 -0.9789
  137OSM    H7G14955   0.563   6.943   7.325 -0.1800 -2.0360  1.0481
  137OSM    C8F14956   0.523   6.919   7.544  0.3086  0.0023  0.2271
  137OSM    H8F14957   0.632   6.932   7.561 -0.0475  1.9732  1.2790
  137OSM    H8G14958   0.509   6.808   7.543  1.1653 -0.2180  2.9629
  137OSM    C9F14959   0.442   6.987   7.650  0.2049  0.4924  0.5726
  137OSM    H9F14960   0.480   7.086   7.677 -0.8492  2.0722 -3.0967
  137OSM   C10F14961   0.326   6.949   7.707  0.1465  0.6801 -0.3601
  137OSM   H10F14962   0.282   7.016   7.782 -2.3361 -1.7046  0.5164
  137OSM   C11F14963   0.246   6.828   7.677  0.3902 -0.3292 -0.3995
  137OSM   H11F14964   0.258   6.759   7.763  2.2179 -1.2648 -1.3635
  137OSM   H11G14965   0.295   6.771   7.595 -0.5751 -0.9817 -0.5367
  137OSM   C12F14966   0.101   6.848   7.644 -0.3828 -0.5127 -0.0503
  137OSM   H12F14967   0.048   6.754   7.615  0.3713 -0.6690 -0.9717
  137OSM   H12G14968   0.094   6.913   7.553  3.5279  0.7139  0.3715
  137OSM   C13F14969   0.017   6.913   7.755  0.1233 -0.2392 -0.4944
  137OSM   H13F14970  -0.057   6.980   7.705 -2.1264 -1.0121  1.5886
  137OSM   H13G14971   0.072   6.975   7.830 -1.2726 -0.0182  0.3862
  137OSM   C14F14972  -0.067   6.818   7.839  0.3292 -0.3967  0.3892
  137OSM   H14F14973  -0.009   6.743   7.898  1.3734  0.1926  0.1494
  137OSM   H14G14974  -0.119   6.765   7.756  2.4112 -2.4616  0.2680
  137OSM   C15F14975  -0.165   6.891   7.936  0.1961 -0.0889  0.0499
  137OSM   H15F14976  -0.223   6.975   7.891  2.0510  1.3270  0.1770
  137OSM   H15G14977  -0.088   6.936   8.002  2.2813 -1.9634 -0.9951
  137OSM   C16F14978  -0.237   6.798   8.033 -0.2040  0.5221 -0.0537
  137OSM   H16F14979  -0.181   6.703   8.050 -1.0494 -0.1173 -0.6890
  137OSM   H16G14980  -0.331   6.758   7.988 -0.2237 -0.5517  0.8872
  137OSM   C17F14981  -0.273   6.868   8.164  0.0208  0.2394  0.1829
  137OSM   H17F14982  -0.334   6.958   8.140 -2.3517 -0.7304  2.1593
  137OSM   H17G14983  -0.180   6.910   8.209  1.0520 -0.9218 -0.8108
  137OSM   C18F14984  -0.343   6.781   8.269  0.0853 -0.4689 -0.2311
  137OSM   H18F14985  -0.370   6.846   8.355  0.3857  0.8291 -1.0861
  137OSM   H18G14986  -0.276   6.695   8.289 -0.8580 -1.4470 -1.1647
  137OSM   H18H14987  -0.434   6.740   8.222 -0.2619 -0.0069  0.0183
  138OSM      N14988   1.272   2.543   6.245 -0.5498 -0.2133 -0.8264
  138OSM    C1514989   1.211   2.411   6.220 -0.3526  0.0624  0.0530
  138OSM   H15A14990   1.283   2.331   6.215 -1.3292 -0.7435 -2.6859
  138OSM   H15B14991   1.176   2.411   6.118  2.6271 -0.4252 -1.0624
  138OSM   H15C14992   1.129   2.383   6.285  0.7742 -3.3108  0.2065
  138OSM    C1414993   1.354   2.538   6.372 -0.0147 -0.2889 -0.1613
  138OSM   H14A14994   1.422   2.454   6.372  0.5940  0.1896 -0.8825
  138OSM   H14B14995   1.282   2.527   6.452 -1.1675  0.9310 -0.9791
  138OSM   H14C14996   1.410   2.630   6.379 -0.0279 -0.2614 -0.4062
  138OSM    C1314997   1.369   2.560   6.132 -0.5415  0.2641 -0.7643
  138OSM   H13A14998   1.421   2.655   6.132  1.0803 -0.5739 -1.5826
  138OSM   H13B14999   1.310   2.553   6.042 -1.0419  0.5830 -0.4633
  138OSM   H13C15000   1.436   2.476   6.130  2.2664  2.3432 -0.6867
  138OSM    C1215001   1.170   2.655   6.264  0.8747  0.2866  0.2062
  138OSM   H12A15002   1.093   2.633   6.335 -0.1197 -0.5669 -1.0844
  138OSM   H12B15003   1.105   2.660   6.178  1.0369  0.4892  0.0924
  138OSM    C1115004   1.221   2.793   6.304 -0.4910  0.4003 -0.1558
  138OSM   H11A15005   1.268   2.789   6.405 -0.2304  1.2785 -0.2314
  138OSM   H11B15006   1.137   2.866   6.309 -0.9959 -0.1687 -0.3026
  138OSM      P15007   1.452   2.904   6.237 -0.0640 -0.1585  0.4590
  138OSM    O1315008   1.553   2.864   6.131  0.0684  0.0216 -0.5748
  138OSM    O1415009   1.446   3.053   6.262  0.1523 -0.5399 -0.3744
  138OSM    O1115010   1.494   2.834   6.372  0.2742  0.6171 -0.3844
  138OSM    O1215011   1.312   2.845   6.207  0.2718 -0.4586 -0.0167
  138OSM    C1S15012   1.541   2.919   6.477 -0.6551  0.3457 -0.1919
  138OSM    H1S15013   1.461   2.990   6.509 -0.7111 -0.5067  1.7516
  138OSM    H1T15014   1.635   2.969   6.446  1.4197 -2.1396  1.6246
  138OSM     NF15015   1.626   2.937   6.712 -0.5455  0.2170 -0.5868
  138OSM    HNF15016   1.723   2.948   6.733 -0.6612 -0.3988  0.3192
  138OSM    C2S15017   1.577   2.844   6.612  0.2157  0.6361 -0.7946
  138OSM    H2S15018   1.481   2.792   6.633  0.2288  0.3980 -1.3253
  138OSM    C3S15019   1.694   2.742   6.579 -0.5069 -0.3201  0.1642
  138OSM    H3S15020   1.771   2.805   6.527 -0.1540 -0.5581  0.3924
  138OSM     O315021   1.666   2.637   6.487  1.0801 -0.6443  0.1101
  138OSM    HO315022   1.587   2.680   6.455  2.0676 -0.6411 -2.5281
  138OSM    C4S15023   1.743   2.681   6.706 -0.1521 -0.1617 -0.4095
  138OSM    H4S15024   1.666   2.624   6.760 -0.4941  0.3411 -0.3525
  138OSM    C5S15025   1.875   2.677   6.747  1.0726  0.0784 -0.1977
  138OSM    H5S15026   1.953   2.718   6.682  0.0934  2.0043 -0.2078
  138OSM    C6S15027   1.923   2.613   6.873  0.1670  0.0909 -0.5538
  138OSM    H6S15028   2.011   2.677   6.897 -0.8919  2.5517 -2.7589
  138OSM    H6T15029   1.957   2.509   6.859  1.0977  0.2158  0.5976
  138OSM    C7S15030   1.813   2.616   6.993  0.0941 -1.4780  0.3531
  138OSM    H7S15031   1.726   2.555   6.962 -1.4912  0.7628  0.1439
  138OSM    H7T15032   1.764   2.715   7.005  1.6112 -0.7813  0.9738
  138OSM    C8S15033   1.867   2.587   7.135 -0.0867  0.0423  0.0894
  138OSM    H8S15034   1.957   2.644   7.165 -0.1997 -0.7251  2.0282
  138OSM    H8T15035   1.906   2.483   7.130 -1.4057 -0.4286 -0.8691
  138OSM    C9S15036   1.751   2.589   7.236  0.4445  0.6260 -0.8942
  138OSM    H9S15037   1.668   2.526   7.198  1.4649 -1.3405 -0.0042
  138OSM    H9T15038   1.712   2.693   7.237  3.5385  1.9109 -0.7597
  138OSM   C10S15039   1.790   2.547   7.381  0.1678 -1.0514  0.6324
  138OSM   H10S15040   1.824   2.442   7.394 -0.5348 -1.3371  0.1848
  138OSM   H10T15041   1.696   2.562   7.439 -0.3601  0.8951 -0.6314
  138OSM   C11S15042   1.893   2.638   7.446 -0.0884 -0.3064  0.8526
  138OSM   H11S15043   1.865   2.746   7.442  1.5039  0.3935  4.6710
  138OSM   H11T15044   1.998   2.625   7.413  0.6936  1.6100  2.3762
  138OSM   C12S15045   1.900   2.617   7.600 -0.2511  0.6856  0.0846
  138OSM   H12S15046   1.997   2.665   7.626  1.7939 -1.0086 -3.6430
  138OSM   H12T15047   1.915   2.508   7.612 -1.9295  0.5161  0.9327
  138OSM   C13S15048   1.780   2.633   7.685  0.1045 -0.4355 -0.2556
  138OSM   H13S15049   1.702   2.560   7.653 -0.1997  0.3614 -1.3962
  138OSM   H13T15050   1.735   2.733   7.666  0.5784 -0.4473 -1.5707
  138OSM   C14S15051   1.808   2.631   7.834  0.0206 -0.1093  0.9010
  138OSM   H14S15052   1.716   2.673   7.879 -0.9560 -1.8037  0.5409
  138OSM   H14T15053   1.884   2.708   7.861 -0.2839  0.7765 -0.6220
  138OSM   C15S15054   1.843   2.495   7.887  0.4828 -0.4311 -0.0872
  138OSM   H15S15055   1.945   2.452   7.884  1.1766  1.1357 -0.3682
  138OSM   H15T15056   1.784   2.420   7.831 -0.0716 -0.7204  0.8657
  138OSM   C16S15057   1.804   2.481   8.034 -0.0818 -0.5650  0.7954
  138OSM   H16S15058   1.699   2.515   8.046  0.2631 -0.0599  2.8042
  138OSM   H16T15059   1.876   2.548   8.087  0.8863 -1.4329  0.6100
  138OSM   C17S15060   1.830   2.341   8.090  0.4353 -0.0378 -1.1210
  138OSM   H17S15061   1.937   2.313   8.074  0.9300  0.9717  0.1763
  138OSM   H17T15062   1.766   2.261   8.048  1.0008 -1.1309  0.0105
  138OSM   C18S15063   1.803   2.336   8.243  0.0829 -0.0577 -0.7486
  138OSM   H18S15064   1.833   2.430   8.295 -1.5041  0.4102 -0.6503
  138OSM   H18T15065   1.856   2.252   8.294 -0.8440  0.4948  1.2230
  138OSM   H18U15066   1.695   2.320   8.261  0.8030 -2.1671  2.5698
  138OSM    C1F15067   1.541   3.010   6.778 -0.2699 -0.9585 -0.2215
  138OSM     OF15068   1.421   2.991   6.766  0.0372 -0.1123 -0.1825
  138OSM    C2F15069   1.609   3.108   6.866 -0.4265  0.4171  0.8826
  138OSM    H2F15070   1.604   3.206   6.813  0.2087 -0.1522 -0.2611
  138OSM    H2G15071   1.716   3.079   6.863 -0.5094  0.1576 -0.3884
  138OSM    C3F15072   1.540   3.116   7.006 -0.1046 -0.6799  0.1137
  138OSM    H3F15073   1.431   3.110   6.989  0.2185 -2.1962 -1.8296
  138OSM    H3G15074   1.557   3.217   7.049  0.0193 -0.3708 -0.6345
  138OSM    C4F15075   1.583   3.011   7.104 -0.5207  0.2181  0.0568
  138OSM    H4F15076   1.555   2.910   7.068  2.1912 -0.5319 -0.1947
  138OSM    H4G15077   1.526   3.040   7.195 -1.4022  0.4199 -0.5466
  138OSM    C5F15078   1.733   3.013   7.147 -0.1928  0.2574 -0.1079
  138OSM    H5F15079   1.776   3.114   7.126  1.1245 -0.4220 -0.8178
  138OSM    H5G15080   1.785   2.944   7.077  0.1093 -1.1932  1.4868
  138OSM    C6F15081   1.758   2.978   7.287  0.3555  0.5067 -0.6087
  138OSM    H6F15082   1.859   2.932   7.286  0.5996  0.9801  0.5483
  138OSM    H6G15083   1.682   2.902   7.316 -0.1014  0.7045 -1.2620
  138OSM    C7F15084   1.770   3.102   7.381 -0.1706 -0.2064  0.5625
  138OSM    H7F15085   1.670   3.147   7.396 -0.1448 -0.6413  2.2295
  138OSM    H7G15086   1.824   3.175   7.318 -0.9905 -0.2431 -0.1968
  138OSM    C8F15087   1.846   3.072   7.510 -0.4895  0.2118  0.5001
  138OSM    H8F15088   1.940   3.012   7.505 -1.2168 -0.8698 -0.8026
  138OSM    H8G15089   1.784   3.005   7.573  0.0538  0.7908  1.6847
  138OSM    C9F15090   1.874   3.205   7.571  0.6125  0.4413  0.2589
  138OSM    H9F15091   1.948   3.262   7.513 -0.1690  0.8941 -0.2950
  138OSM   C10F15092   1.822   3.260   7.677 -0.2591  0.0773  0.4225
  138OSM   H10F15093   1.872   3.351   7.714 -0.5726  1.2248 -1.7829
  138OSM   C11F15094   1.709   3.201   7.766 -0.6627 -0.5024  0.6251
  138OSM   H11F15095   1.662   3.119   7.709  0.9194 -0.6501 -0.5277
  138OSM   H11G15096   1.643   3.290   7.780 -0.0610  0.0746 -0.1062
  138OSM   C12F15097   1.745   3.156   7.910  0.1619 -0.4012 -0.3295
  138OSM   H12F15098   1.657   3.165   7.977  1.2058 -0.8446  1.1292
  138OSM   H12G15099   1.814   3.238   7.938 -2.7305  2.3043 -0.5721
  138OSM   C13F15100   1.810   3.019   7.919  0.4832 -0.2864 -0.4725
  138OSM   H13F15101   1.916   3.015   7.886  1.4797  1.0065  2.2635
  138OSM   H13G15102   1.742   2.954   7.861  0.3653 -0.5518 -0.0394
  138OSM   C14F15103   1.811   2.968   8.067 -0.3229  0.0390 -0.3527
  138OSM   H14F15104   1.708   2.947   8.101 -0.1883 -0.4431 -0.2310
  138OSM   H14G15105   1.844   3.053   8.131 -4.2607  2.3984 -1.1672
  138OSM   C15F15106   1.895   2.849   8.114 -0.3427 -0.7502 -0.2538
  138OSM   H15F15107   1.998   2.874   8.081  0.4132 -1.2349  1.6060
  138OSM   H15G15108   1.849   2.766   8.056 -1.3393 -0.3091 -0.1254
  138OSM   C16F15109   1.901   2.832   8.270 -0.4313  0.4417 -0.5937
  138OSM   H16F15110   1.801   2.811   8.311  0.5640 -2.3836  0.5846
  138OSM   H16G15111   1.941   2.927   8.313  1.3098 -0.3159 -0.4577
  138OSM   C17F15112   2.013   2.737   8.315  1.2162 -0.3617  0.0620
  138OSM   H17F15113   2.106   2.776   8.267  1.2003  0.9447  1.0234
  138OSM   H17G15114   1.990   2.633   8.284  1.5408 -1.4103  3.0101
  138OSM   C18F15115   2.044   2.725   8.468  0.2606 -0.5187  0.3349
  138OSM   H18F15116   2.035   2.824   8.517 -0.0897 -0.4035  0.0356
  138OSM   H18G15117   2.139   2.675   8.499  1.1359  0.9998  0.2064
  138OSM   H18H15118   1.954   2.674   8.509  0.2775  0.3043  1.4337
  139OSM      N15119   0.634   2.105   5.821  0.9485  0.1898  0.3691
  139OSM    C1515120   0.619   2.164   5.683 -0.3861  0.7177  0.1341
  139OSM   H15A15121   0.576   2.263   5.677 -0.9989  0.3981 -1.1583
  139OSM   H15B15122   0.542   2.104   5.637  0.8015 -1.2826  0.5977
  139OSM   H15C15123   0.712   2.153   5.629 -0.6053 -0.6518 -0.0025
  139OSM    C1415124   0.497   2.084   5.883 -0.5341  0.1806  0.1963
  139OSM   H14A15125   0.438   2.007   5.834 -0.4568 -0.1367  0.5963
  139OSM   H14B15126   0.437   2.173   5.876 -1.7268 -0.4473  1.8735
  139OSM   H14C15127   0.496   2.068   5.990  0.2031 -3.0891 -0.1590
  139OSM    C1315128   0.695   1.966   5.804  0.1515  0.6291 -0.2896
  139OSM   H13A15129   0.787   1.982   5.749  0.4480  1.7686  0.4991
  139OSM   H13B15130   0.620   1.903   5.760 -1.8946  1.9757  1.1205
  139OSM   H13C15131   0.725   1.927   5.900 -1.7680 -1.6251 -0.5246
  139OSM    C1215132   0.728   2.195   5.894 -0.0514  0.1197 -0.6479
  139OSM   H12A15133   0.695   2.297   5.900 -1.4729 -0.4022  1.8020
  139OSM   H12B15134   0.826   2.195   5.848  0.5107  1.1201  0.4927
  139OSM    C1115135   0.763   2.159   6.042 -0.2236  0.3609 -0.1118
  139OSM   H11A15136   0.670   2.170   6.103  0.6654  1.1719  1.1381
  139OSM   H11B15137   0.846   2.222   6.080  1.4712 -1.8828  0.0738
  139OSM      P15138   0.959   1.985   6.025  0.6650  0.4237  0.1515
  139OSM    O1315139   0.952   1.841   5.981 -0.0913 -0.1652  0.1931
  139OSM    O1415140   1.019   2.087   5.936  0.8186 -0.3900  0.1724
  139OSM    O1115141   1.028   1.993   6.163 -0.1647  0.6485  0.1886
  139OSM    O1215142   0.803   2.024   6.061 -0.3516  0.0561 -0.3631
  139OSM    C1S15143   0.983   1.902   6.271  0.0329  0.3512 -0.9179
  139OSM    H1S15144   1.020   1.799   6.249 -1.0878 -0.1030 -0.7024
  139OSM    H1T15145   0.873   1.901   6.283  0.2478 -0.3962  1.4036
  139OSM     NF15146   1.012   1.842   6.517 -0.0533 -0.4633  0.9402
  139OSM    HNF15147   0.930   1.847   6.573 -0.5033  0.7009  0.2061
  139OSM    C2S15148   1.036   1.948   6.410  0.0747 -0.3246  0.6072
  139OSM    H2S15149   1.147   1.947   6.405  0.1398 -2.1437  1.6296
  139OSM    C3S15150   0.977   2.084   6.439 -0.8011 -0.1893 -0.6216
  139OSM    H3S15151   0.866   2.083   6.438 -0.8278 -1.5556  0.2756
  139OSM     O315152   1.018   2.179   6.344  0.0551 -0.3800 -0.0336
  139OSM    HO315153   1.016   2.124   6.266 -0.4243  0.0336 -0.3173
  139OSM    C4S15154   1.022   2.147   6.566  0.4665 -0.4541  0.0917
  139OSM    H4S15155   1.124   2.188   6.563 -0.4616  2.0953 -3.6822
  139OSM    C5S15156   0.954   2.149   6.681  0.1000  0.7165 -0.3123
  139OSM    H5S15157   0.859   2.094   6.679  0.7782 -0.5204 -3.0821
  139OSM    C6S15158   0.994   2.214   6.810 -0.2947 -0.0447  0.1656
  139OSM    H6S15159   0.943   2.310   6.829 -0.3925 -0.2087  0.7480
  139OSM    H6T15160   1.102   2.236   6.797 -0.4336 -0.9252 -4.1589
  139OSM    C7S15161   0.979   2.127   6.942  0.3459  0.0351 -0.5724
  139OSM    H7S15162   1.042   2.036   6.944  2.7219  1.5993  0.1602
  139OSM    H7T15163   0.872   2.097   6.945  0.4100 -0.1329  0.1526
  139OSM    C8S15164   1.003   2.208   7.074 -0.5707 -0.6799  0.2516
  139OSM    H8S15165   0.955   2.308   7.069  0.5489  0.0281  2.2831
  139OSM    H8T15166   1.112   2.229   7.083 -0.8015  0.6936  0.0271
  139OSM    C9S15167   0.946   2.138   7.201 -0.4112 -0.5842 -0.3478
  139OSM    H9S15168   0.848   2.088   7.185  0.5430 -2.0845 -1.7406
  139OSM    H9T15169   0.928   2.230   7.261 -0.0221 -0.9004  0.2620
  139OSM   C10S15170   1.040   2.056   7.287  0.0095 -0.0693  0.3900
  139OSM   H10S15171   1.141   2.073   7.243 -1.4770 -0.8860 -3.8005
  139OSM   H10T15172   1.010   1.952   7.262 -0.3252  0.1350 -0.0888
  139OSM   C11S15173   1.043   2.083   7.441  0.0673  0.0849 -0.5436
  139OSM   H11S15174   0.938   2.070   7.474  0.8287 -0.7454  1.7030
  139OSM   H11T15175   1.082   2.184   7.466  0.1088  0.1096 -0.7040
  139OSM   C12S15176   1.136   1.990   7.523 -0.4137  0.5987  0.2809
  139OSM   H12S15177   1.240   1.986   7.482 -1.1840  2.8690 -2.1914
  139OSM   H12T15178   1.094   1.888   7.513 -1.4310  0.8297  1.9630
  139OSM   C13S15179   1.141   2.032   7.674  1.0539  0.7851 -0.4464
  139OSM   H13S15180   1.160   2.142   7.672 -0.5438  1.1068  0.3979
  139OSM   H13T15181   1.227   1.980   7.722 -0.0115  0.0944  0.7868
  139OSM   C14S15182   1.011   1.997   7.748  0.1871 -0.8702 -0.1692
  139OSM   H14S15183   0.999   1.886   7.748  1.1355 -0.9914  0.7103
  139OSM   H14T15184   0.923   2.039   7.696  0.9910  0.3518 -0.5819
  139OSM   C15S15185   1.012   2.049   7.898 -0.3181 -0.2206 -0.0729
  139OSM   H15S15186   0.907   2.051   7.934 -0.8644 -0.3662 -1.5786
  139OSM   H15T15187   1.052   2.152   7.890  0.4809 -0.5889 -0.8789
  139OSM   C16S15188   1.102   1.963   7.995 -0.4574 -0.6538  0.0287
  139OSM   H16S15189   1.201   2.012   8.002 -1.1042  1.1504 -2.1804
  139OSM   H16T15190   1.118   1.869   7.937  0.6140  0.3397 -1.3635
  139OSM   C17S15191   1.031   1.934   8.127  0.5439  0.4121 -0.2478
  139OSM   H17S15192   1.095   1.869   8.190 -1.5758  1.2905  3.0279
  139OSM   H17T15193   0.945   1.869   8.098  1.8757 -1.1702 -0.8193
  139OSM   C18S15194   0.984   2.057   8.203 -0.3397  0.2307  0.0034
  139OSM   H18S15195   0.940   2.138   8.141  1.6711  1.6797  0.3780
  139OSM   H18T15196   1.077   2.087   8.255 -1.2800  1.4437  1.0638
  139OSM   H18U15197   0.912   2.033   8.285 -0.3825  0.9930  0.1967
  139OSM    C1F15198   1.075   1.725   6.511  0.1546 -0.1449 -0.5641
  139OSM     OF15199   1.185   1.712   6.458 -0.3787 -0.0545 -0.0721
  139OSM    C2F15200   1.007   1.600   6.553  0.3646 -0.1876  0.1600
  139OSM    H2F15201   0.969   1.545   6.465 -0.2159 -1.1887  1.0042
  139OSM    H2G15202   0.918   1.623   6.616  0.0112  2.0317 -1.0368
  139OSM    C3F15203   1.097   1.498   6.633  0.3265 -0.1013 -0.5509
  139OSM    H3F15204   1.176   1.450   6.571  1.2670  0.7261 -0.0204
  139OSM    H3G15205   1.028   1.419   6.671 -0.6935  0.9472 -0.1759
  139OSM    C4F15206   1.167   1.566   6.752  1.2403 -0.7162 -0.3283
  139OSM    H4F15207   1.235   1.648   6.721  0.0171  0.2938 -0.4261
  139OSM    H4G15208   1.228   1.495   6.812 -0.5467 -1.8870  0.1983
  139OSM    C5F15209   1.071   1.623   6.862  0.2641  0.1102  0.6566
  139OSM    H5F15210   0.972   1.574   6.854  0.5864 -0.6052  0.9374
  139OSM    H5G15211   1.045   1.725   6.826  2.7526 -0.0719 -1.9616
  139OSM    C6F15212   1.131   1.611   6.997 -0.1485  0.1471 -0.2318
  139OSM    H6F15213   1.225   1.669   6.989  0.9705 -1.0449  2.6541
  139OSM    H6G15214   1.147   1.503   7.021 -1.3926  0.4132  2.1432
  139OSM    C7F15215   1.051   1.679   7.110  0.4567 -0.0411 -0.4160
  139OSM    H7F15216   0.955   1.622   7.112  0.4905 -0.0895 -0.2025
  139OSM    H7G15217   1.043   1.789   7.093  2.0555 -0.0131 -1.1208
  139OSM    C8F15218   1.104   1.659   7.254 -0.2168  0.4706  0.3245
  139OSM    H8F15219   1.047   1.720   7.327 -0.0222 -0.5262  1.3263
  139OSM    H8G15220   1.206   1.703   7.244  0.1459 -0.5697 -0.9244
  139OSM    C9F15221   1.111   1.515   7.314 -0.4001  0.6114 -0.6612
  139OSM    H9F15222   1.046   1.433   7.278  0.0394  0.1991 -0.5345
  139OSM   C10F15223   1.206   1.482   7.407 -0.3336  0.5158  0.4505
  139OSM   H10F15224   1.219   1.376   7.434 -0.3422  0.1671 -0.8528
  139OSM   C11F15225   1.309   1.567   7.462 -0.1283  0.3371 -0.0232
  139OSM   H11F15226   1.297   1.677   7.456 -0.1158  0.4319  1.3587
  139OSM   H11G15227   1.402   1.537   7.410 -0.6963 -2.0855  0.2513
  139OSM   C12F15228   1.334   1.526   7.610  0.9540  0.5176 -0.1051
  139OSM   H12F15229   1.423   1.586   7.639 -0.0352  1.9220  0.1274
  139OSM   H12G15230   1.344   1.417   7.630 -0.1482  0.2983 -0.6897
  139OSM   C13F15231   1.217   1.567   7.698  0.6029 -0.5756  0.1282
  139OSM   H13F15232   1.132   1.513   7.650 -0.6934  1.0938  0.4331
  139OSM   H13G15233   1.188   1.674   7.700 -0.1547 -0.7320  3.5692
  139OSM   C14F15234   1.239   1.517   7.848 -0.1773  0.5307 -0.0481
  139OSM   H14F15235   1.312   1.590   7.890 -0.5692 -0.3275  2.2599
  139OSM   H14G15236   1.289   1.418   7.836  0.4392  0.9531 -1.1478
  139OSM   C15F15237   1.124   1.522   7.946 -1.0413 -0.3245  0.1864
  139OSM   H15F15238   1.034   1.482   7.894 -0.8256  0.7501 -1.0646
  139OSM   H15G15239   1.102   1.628   7.970 -1.3327 -0.0153 -1.3377
  139OSM   C16F15240   1.145   1.443   8.072  0.2037 -0.8462 -0.2319
  139OSM   H16F15241   1.155   1.334   8.058 -3.3014 -1.7115  2.6402
  139OSM   H16G15242   1.062   1.458   8.144  0.1069 -2.8561  0.1310
  139OSM   C17F15243   1.268   1.504   8.152  0.2387  0.0216  0.2935
  139OSM   H17F15244   1.250   1.612   8.172  1.7928  0.4863 -0.6574
  139OSM   H17G15245   1.353   1.478   8.085  0.1677 -0.8093  0.5174
  139OSM   C18F15246   1.283   1.431   8.282 -0.0727  0.2451  0.2489
  139OSM   H18F15247   1.318   1.330   8.251 -1.1784 -0.0443 -0.0992
  139OSM   H18G15248   1.187   1.426   8.337 -0.0027 -0.9198  0.2913
  139OSM   H18H15249   1.354   1.486   8.348  1.0125 -1.3744  0.5059
  140OSM      N15250   6.344   4.976   5.700  0.5559  0.4257 -0.6269
  140OSM    C1515251   6.230   4.909   5.777  0.2516 -0.0658  0.1289
  140OSM   H15A15252   6.258   4.812   5.816 -4.2927 -1.5951  0.2093
  140OSM   H15B15253   6.151   4.884   5.707 -1.2775  0.9144  1.4489
  140OSM   H15C15254   6.183   4.970   5.852  1.4586 -2.7609  3.3245
  140OSM    C1415255   6.418   4.884   5.610 -0.3542 -0.3763  0.2397
  140OSM   H14A15256   6.488   4.932   5.543  1.1804 -1.5020  0.9637
  140OSM   H14B15257   6.348   4.843   5.540 -0.5654  1.2725 -0.5598
  140OSM   H14C15258   6.470   4.804   5.661  2.1540  0.0339 -1.4890
  140OSM    C1315259   6.286   5.090   5.622 -0.0978  0.7567  0.2982
  140OSM   H13A15260   6.350   5.177   5.621 -1.0385  1.4727 -0.5083
  140OSM   H13B15261   6.200   5.134   5.670  0.9756  2.5134  0.6953
  140OSM   H13C15262   6.263   5.070   5.518 -2.8555  1.2074  0.7442
  140OSM    C1215263   6.442   5.035   5.811  0.1508  0.4448  0.1051
  140OSM   H12A15264   6.522   5.081   5.755 -1.0282  0.4881 -1.6275
  140OSM   H12B15265   6.483   4.960   5.877  2.5714  0.7103 -0.9752
  140OSM    C1115266   6.380   5.146   5.906 -0.6060 -0.5437 -0.1456
  140OSM   H11A15267   6.320   5.222   5.854  0.1180  0.2777  0.1897
  140OSM   H11B15268   6.460   5.206   5.955 -1.1301  1.0476 -1.1899
  140OSM      P15269   6.346   5.065   6.153  0.5591 -0.2000  0.0597
  140OSM    O1315270   6.228   5.049   6.233  0.7095 -0.2580  0.3441
  140OSM    O1415271   6.437   4.955   6.142  0.3191 -0.2481  0.0036
  140OSM    O1115272   6.427   5.194   6.185 -0.6138  0.0550 -0.7884
  140OSM    O1215273   6.299   5.085   6.004 -0.7507  0.4708  0.6736
  140OSM    C1S15274   6.424   5.272   6.304 -0.6952 -0.1307 -0.3517
  140OSM    H1S15275   6.323   5.317   6.315 -1.2610 -1.3929 -0.2209
  140OSM    H1T15276   6.503   5.351   6.305 -0.9368  0.1379 -1.0758
  140OSM     NF15277   6.403   5.263   6.543  0.1623 -0.2696  0.4180
  140OSM    HNF15278   6.463   5.326   6.593  1.2833 -2.0659  1.4668
  140OSM    C2S15279   6.463   5.193   6.429 -0.5167 -0.1279 -0.1979
  140OSM    H2S15280   6.418   5.092   6.431 -0.3282 -0.1999  0.7277
  140OSM    C3S15281   6.623   5.179   6.443 -0.1940  0.4984 -0.3186
  140OSM    H3S15282   6.668   5.278   6.462  1.4996 -0.3043  0.1153
  140OSM     O315283   6.692   5.130   6.327 -0.1117 -0.0400 -0.4310
  140OSM    HO315284   6.636   5.149   6.251  0.0709 -1.7524 -1.0272
  140OSM    C4S15285   6.659   5.099   6.568  0.5925 -0.0390 -0.0513
  140OSM    H4S15286   6.621   4.998   6.545  1.5450 -0.1450 -1.3039
  140OSM    C5S15287   6.714   5.121   6.682  0.0105 -0.4155  0.7735
  140OSM    H5S15288   6.765   5.216   6.699  0.5806  0.2616 -3.6137
  140OSM    C6S15289   6.739   5.011   6.788  0.2323 -0.2211 -0.9219
  140OSM    H6S15290   6.725   4.907   6.752  0.3579 -1.2945  1.8769
  140OSM    H6T15291   6.662   5.030   6.866  1.9081 -0.0417  0.7622
  140OSM    C7S15292   6.882   5.027   6.839  0.1334  0.9302 -0.6390
  140OSM    H7S15293   6.894   5.135   6.864 -0.3851  1.6265 -3.1231
  140OSM    H7T15294   6.955   5.017   6.756  1.0745  1.4036  0.1080
  140OSM    C8S15295   6.914   4.945   6.966  0.3552  0.4054 -0.4047
  140OSM    H8S15296   7.024   4.950   6.980  0.3717 -2.7380  1.6921
  140OSM    H8T15297   6.907   4.836   6.944  3.2616  0.5211 -2.5554
  140OSM    C9S15298   6.834   4.991   7.096  0.0035  0.4491  1.3416
  140OSM    H9S15299   6.733   4.945   7.094  0.5350 -0.7943 -1.0383
  140OSM    H9T15300   6.831   5.099   7.122 -2.4757  0.8767 -0.3454
  140OSM   C10S15301   6.886   4.924   7.227  0.4863  0.1003 -0.3403
  140OSM   H10S15302   6.844   4.979   7.313 -1.1577 -0.3164 -0.8405
  140OSM   H10T15303   6.996   4.933   7.243  0.3834 -0.3985  0.7289
  140OSM   C11S15304   6.855   4.770   7.246 -0.9427  0.0965 -0.1007
  140OSM   H11S15305   6.899   4.708   7.166  0.2675 -1.2498  1.5315
  140OSM   H11T15306   6.747   4.744   7.246 -1.3566  1.6990 -0.3760
  140OSM   C12S15307   6.917   4.717   7.381  0.2629  0.0129 -0.3292
  140OSM   H12S15308   7.027   4.734   7.375  0.3997 -1.2544 -3.4864
  140OSM   H12T15309   6.894   4.608   7.383  0.6101 -0.0564 -0.1003
  140OSM   C13S15310   6.874   4.776   7.517 -0.1260  0.1255 -0.7933
  140OSM   H13S15311   6.881   4.887   7.514  0.3760  0.1656  0.9381
  140OSM   H13T15312   6.943   4.737   7.594  0.3241 -0.0782 -1.2929
  140OSM   C14S15313   6.730   4.738   7.552 -0.1783 -0.5714 -0.4192
  140OSM   H14S15314   6.724   4.636   7.596  0.9121 -1.4607 -2.2299
  140OSM   H14T15315   6.661   4.748   7.466 -1.3248  0.0931  0.5389
  140OSM   C15S15316   6.668   4.834   7.655 -0.3788  0.0018  0.6416
  140OSM   H15S15317   6.563   4.808   7.682 -0.7211  1.6724  1.0607
  140OSM   H15T15318   6.666   4.936   7.611  1.0026 -0.3597 -0.3244
  140OSM   C16S15319   6.755   4.844   7.785 -0.3039  0.3405 -0.2218
  140OSM   H16S15320   6.856   4.886   7.768 -0.2562  0.9522  1.3909
  140OSM   H16T15321   6.764   4.743   7.830 -0.5700  0.2565 -0.3539
  140OSM   C17S15322   6.699   4.944   7.882 -0.3995 -0.8527 -0.2141
  140OSM   H17S15323   6.594   4.914   7.903 -1.1115  2.0821  0.9850
  140OSM   H17T15324   6.694   5.043   7.832  3.2135 -0.2526  0.3186
  140OSM   C18S15325   6.779   4.958   8.007 -0.2551  0.2245  0.3514
  140OSM   H18S15326   6.888   4.975   7.996  0.0536 -2.4011 -1.2614
  140OSM   H18T15327   6.772   4.866   8.068 -0.9138 -0.5524 -0.8690
  140OSM   H18U15328   6.731   5.040   8.066  0.6775  0.9134  0.1777
  140OSM    C1F15329   6.283   5.246   6.584  0.2991 -0.5481  1.0180
  140OSM     OF15330   6.199   5.182   6.525 -0.6101  0.1899 -0.0793
  140OSM    C2F15331   6.240   5.305   6.711 -0.1570  0.7046  0.0363
  140OSM    H2F15332   6.129   5.312   6.701 -0.5062 -0.3667  2.4748
  140OSM    H2G15333   6.290   5.403   6.725  1.9436 -0.3574  0.3407
  140OSM    C3F15334   6.283   5.219   6.832  0.5120  0.1983 -0.5516
  140OSM    H3F15335   6.284   5.111   6.806  0.1321  0.2617 -0.8414
  140OSM    H3G15336   6.205   5.246   6.906  0.9161  3.0951 -1.0687
  140OSM    C4F15337   6.422   5.247   6.876 -0.3157  0.2694  0.5474
  140OSM    H4F15338   6.426   5.351   6.914  0.2190  0.5655 -0.3021
  140OSM    H4G15339   6.499   5.238   6.797 -1.3992  1.1595 -0.6358
  140OSM    C5F15340   6.454   5.159   6.993  0.5785 -0.5349  0.3825
  140OSM    H5F15341   6.555   5.184   7.031  0.5213 -0.9655  0.8308
  140OSM    H5G15342   6.455   5.051   6.970 -1.6555 -0.2139 -1.5942
  140OSM    C6F15343   6.359   5.175   7.115 -0.4433 -0.2400 -0.2701
  140OSM    H6F15344   6.268   5.119   7.088  0.2155 -1.3261 -0.2777
  140OSM    H6G15345   6.344   5.283   7.140 -0.9128 -0.1277 -1.0061
  140OSM    C7F15346   6.418   5.090   7.233  0.3072  0.7489  0.0218
  140OSM    H7F15347   6.523   5.126   7.233 -0.1653  2.1710  0.1199
  140OSM    H7G15348   6.421   4.980   7.215 -2.1261  0.3497  1.5831
  140OSM    C8F15349   6.361   5.127   7.371 -0.1789 -0.2926 -0.0282
  140OSM    H8F15350   6.384   5.236   7.380  1.8510 -0.7380  0.7177
  140OSM    H8G15351   6.432   5.085   7.445  1.1037  1.0353 -0.4508
  140OSM    C9F15352   6.219   5.085   7.405  0.0192  0.6442 -0.2403
  140OSM    H9F15353   6.151   5.108   7.322  0.3383  1.4474 -0.2931
  140OSM   C10F15354   6.170   5.034   7.515 -0.6970 -0.5245 -0.0007
  140OSM   H10F15355   6.060   5.031   7.511 -0.7642  1.7112 -1.5502
  140OSM   C11F15356   6.234   5.005   7.650 -0.4713  0.6556  0.4586
  140OSM   H11F15357   6.339   4.971   7.638 -0.6184 -0.2248  1.5046
  140OSM   H11G15358   6.187   4.913   7.691 -0.5883  0.7569  0.5517
  140OSM   C12F15359   6.225   5.107   7.760  0.7777 -0.7597  0.3968
  140OSM   H12F15360   6.120   5.135   7.783  1.3782  1.4886  0.6469
  140OSM   H12G15361   6.287   5.196   7.735  0.6192 -0.5545  0.7405
  140OSM   C13F15362   6.293   5.047   7.883  0.6444  0.2251  0.1751
  140OSM   H13F15363   6.401   5.057   7.860  1.1077  0.8726  2.3440
  140OSM   H13G15364   6.254   4.943   7.892  0.3771  0.1200 -1.8208
  140OSM   C14F15365   6.265   5.125   8.016 -0.4831  0.0619  1.5557
  140OSM   H14F15366   6.155   5.119   8.028 -1.2467  2.6463 -2.3725
  140OSM   H14G15367   6.300   5.229   7.995 -2.0880  0.4124  0.4332
  140OSM   C15F15368   6.344   5.062   8.128 -0.7110  0.2318 -0.8199
  140OSM   H15F15369   6.452   5.074   8.102 -0.4997  2.8810  0.8658
  140OSM   H15G15370   6.322   4.956   8.149 -1.7695  0.5420 -0.2717
  140OSM   C16F15371   6.338   5.136   8.267  0.4940 -0.6265  0.4343
  140OSM   H16F15372   6.237   5.120   8.310  0.2189  1.5819  0.7210
  140OSM   H16G15373   6.337   5.245   8.243  0.9968  0.0721  3.2795
  140OSM   C17F15374   6.450   5.110   8.362 -0.3684  0.1108 -0.5190
  140OSM   H17F15375   6.541   5.118   8.299 -1.4925 -0.5456 -2.3003
  140OSM   H17G15376   6.450   5.006   8.401  0.8274  0.1326 -0.4167
  140OSM   C18F15377   6.446   5.209   8.483 -0.3044  0.1328 -0.0026
  140OSM   H18F15378   6.353   5.194   8.541  0.2005 -1.0997  0.5133
  140OSM   H18G15379   6.464   5.313   8.447  0.4732  1.0876  2.9251
  140OSM   H18H15380   6.534   5.182   8.545  1.3500 -0.1491 -2.3251
  141OSM      N15381   6.763   6.342   6.029 -0.1693  0.1596 -0.1085
  141OSM    C1515382   6.907   6.298   5.996 -0.9711  0.3405 -0.0600
  141OSM   H15A15383   6.969   6.383   5.973  0.3725 -0.7888 -0.7468
  141OSM   H15B15384   6.910   6.223   5.919  0.5202 -0.1281  0.4104
  141OSM   H15C15385   6.958   6.244   6.075 -0.2747  0.1863 -0.6021
  141OSM    C1415386   6.765   6.457   6.129  0.0456 -0.2073  0.4809
  141OSM   H14A15387   6.829   6.539   6.099 -1.6340  1.6398  1.6518
  141OSM   H14B15388   6.801   6.412   6.220  1.9230  0.0170 -0.1096
  141OSM   H14C15389   6.665   6.495   6.141  0.5142  0.9358  0.9504
  141OSM    C1315390   6.707   6.392   5.898  0.3343 -0.2892 -0.1089
  141OSM   H13A15391   6.695   6.312   5.827  2.2485  0.5244 -1.4309
  141OSM   H13B15392   6.770   6.472   5.861  1.6346 -0.7415  1.0460
  141OSM   H13C15393   6.614   6.444   5.915 -0.0469 -0.9517 -0.1427
  141OSM    C1215394   6.691   6.223   6.077  0.5480 -0.7354 -0.2386
  141OSM   H12A15395   6.738   6.149   6.140 -1.5555 -1.1779  0.8891
  141OSM   H12B15396   6.673   6.164   5.989 -1.3289 -0.5665 -0.0104
  141OSM    C1115397   6.554   6.259   6.140  0.0804  0.5201 -0.7389
  141OSM   H11A15398   6.567   6.288   6.247 -2.2748  1.4641 -0.6449
  141OSM   H11B15399   6.504   6.161   6.152  1.1935  0.2771  3.9571
  141OSM      P15400   6.391   6.454   6.113 -0.7078  0.0824 -0.1439
  141OSM    O1315401   6.492   6.558   6.150 -0.0065 -0.4456 -0.2958
  141OSM    O1415402   6.295   6.501   6.016 -0.0743  0.0453 -0.1599
  141OSM    O1115403   6.326   6.405   6.240 -0.3371  0.3896  0.5129
  141OSM    O1215404   6.468   6.336   6.058 -0.4889  0.8737  0.1466
  141OSM    C1S15405   6.359   6.426   6.383  0.1303  0.1180  0.4522
  141OSM    H1S15406   6.332   6.530   6.412 -0.3371  0.2550 -0.4255
  141OSM    H1T15407   6.468   6.424   6.404 -0.0665 -0.6139  1.4816
  141OSM     NF15408   6.322   6.365   6.612  0.5308  0.0888 -0.3593
  141OSM    HNF15409   6.394   6.314   6.659 -1.4900 -1.6633  1.0369
  141OSM    C2S15410   6.288   6.332   6.475  0.5153 -1.1738  0.4017
  141OSM    H2S15411   6.182   6.363   6.462  0.0655 -1.9377  2.0129
  141OSM    C3S15412   6.314   6.188   6.444  0.1031  0.1117  0.3782
  141OSM    H3S15413   6.420   6.163   6.469  0.1506 -0.6721 -0.5265
  141OSM     O315414   6.302   6.147   6.309 -0.6897 -0.3251 -0.2927
  141OSM    HO315415   6.334   6.228   6.268  0.3194 -0.4852  0.1522
  141OSM    C4S15416   6.229   6.114   6.537  0.8594  0.2777  0.4223
  141OSM    H4S15417   6.284   6.049   6.605 -1.0305 -1.6363  0.2377
  141OSM    C5S15418   6.098   6.089   6.519 -0.3253  0.7826 -0.1389
  141OSM    H5S15419   6.050   6.116   6.424  1.3448  0.1810 -1.2123
  141OSM    C6S15420   6.018   6.013   6.619  0.1604  0.2067 -0.8028
  141OSM    H6S15421   6.019   5.907   6.587 -3.1240 -0.7128  1.6271
  141OSM    H6T15422   5.913   6.048   6.616  0.8034  2.1793 -2.4944
  141OSM    C7S15423   6.066   6.036   6.767 -0.0934 -0.8734 -0.3547
  141OSM    H7S15424   6.077   6.144   6.791 -0.1345 -0.9836  0.1703
  141OSM    H7T15425   6.164   5.989   6.794 -0.0048 -0.3946  0.1690
  141OSM    C8S15426   5.958   5.998   6.874  0.6892 -0.3949 -0.3445
  141OSM    H8S15427   5.911   5.898   6.861 -0.1570 -0.4946  2.5728
  141OSM    H8T15428   5.877   6.073   6.860  1.6140  0.3869 -1.6980
  141OSM    C9S15429   6.025   6.000   7.007 -0.2129 -0.3460 -0.2129
  141OSM    H9S15430   6.050   6.105   7.034 -1.8605  0.8221 -2.8073
  141OSM    H9T15431   6.121   5.944   7.015  0.6764  1.3107  1.5990
  141OSM   C10S15432   5.928   5.958   7.114 -0.0480 -0.2543  0.1114
  141OSM   H10S15433   5.911   5.850   7.093  2.4192 -0.7495  0.3694
  141OSM   H10T15434   5.834   6.017   7.125 -0.2051 -0.5785  0.5370
  141OSM   C11S15435   5.993   5.962   7.250  0.3668  0.3506 -0.2732
  141OSM   H11S15436   6.011   6.069   7.276 -0.4403  0.2760  0.6520
  141OSM   H11T15437   6.095   5.918   7.244 -0.0234 -0.8405  1.0753
  141OSM   C12S15438   5.926   5.889   7.366  0.1223 -0.3634 -0.0284
  141OSM   H12S15439   5.963   5.785   7.373  4.4677  0.7705 -2.0714
  141OSM   H12T15440   5.817   5.883   7.349  0.0298  0.6535  0.1115
  141OSM   C13S15441   5.952   5.957   7.507 -0.5323 -0.0088  0.0188
  141OSM   H13S15442   5.884   6.045   7.509 -1.1350 -0.4746  0.8087
  141OSM   H13T15443   6.058   5.988   7.507 -0.0420 -1.4385 -2.6480
  141OSM   C14S15444   5.924   5.863   7.630  0.5721 -0.5637  1.0756
  141OSM   H14S15445   6.008   5.790   7.629 -0.0242 -1.3520  3.1481
  141OSM   H14T15446   5.825   5.818   7.608  0.8002 -0.4885 -0.1386
  141OSM   C15S15447   5.922   5.944   7.759 -0.2406 -0.1393 -0.4495
  141OSM   H15S15448   5.857   6.034   7.752  1.7796  1.6929  2.3388
  141OSM   H15T15449   6.020   5.997   7.757 -0.9261  1.2359  0.3121
  141OSM   C16S15450   5.882   5.858   7.878  0.2743  0.7127 -0.8251
  141OSM   H16S15451   5.947   5.768   7.871  2.4530  2.2765 -2.1974
  141OSM   H16T15452   5.775   5.828   7.877  0.3241  0.5546 -1.3123
  141OSM   C17S15453   5.907   5.931   8.006  0.1310  0.3804 -0.5944
  141OSM   H17S15454   5.861   5.880   8.093 -0.2441  0.7389 -0.5807
  141OSM   H17T15455   5.861   6.032   8.006 -1.5878 -0.3504 -1.9247
  141OSM   C18S15456   6.054   5.960   8.040 -0.8975  0.3870 -0.5248
  141OSM   H18S15457   6.091   5.891   8.119  2.5637  2.6311  0.0363
  141OSM   H18T15458   6.066   6.065   8.074 -0.2404 -0.5047  2.1768
  141OSM   H18U15459   6.123   5.947   7.954 -0.4263  1.6938 -0.3572
  141OSM    C1F15460   6.266   6.472   6.682 -0.4463  0.0913  0.0807
  141OSM     OF15461   6.149   6.509   6.660 -1.0876 -0.4360  0.5043
  141OSM    C2F15462   6.358   6.528   6.781  0.6894 -0.5830  0.1275
  141OSM    H2F15463   6.369   6.635   6.753 -0.1413 -1.2075 -2.9127
  141OSM    H2G15464   6.455   6.477   6.764  0.0533 -1.5686 -0.6165
  141OSM    C3F15465   6.311   6.500   6.926  0.2860  0.4821 -0.2810
  141OSM    H3F15466   6.273   6.396   6.927  0.4995  0.4045  0.3700
  141OSM    H3G15467   6.224   6.564   6.952  0.6898  0.2619  1.8273
  141OSM    C4F15468   6.428   6.518   7.027 -0.2148  0.3576 -0.2644
  141OSM    H4F15469   6.519   6.463   6.994  1.1500  1.4343  1.5395
  141OSM    H4G15470   6.388   6.487   7.126 -0.8307  0.8972 -0.3401
  141OSM    C5F15471   6.450   6.669   7.040 -0.3679  0.5029 -0.6141
  141OSM    H5F15472   6.349   6.712   7.021 -0.6392 -0.4094 -1.2812
  141OSM    H5G15473   6.521   6.714   6.966 -0.5523 -0.4934 -1.4217
  141OSM    C6F15474   6.488   6.714   7.181  0.6293 -0.1079 -0.2472
  141OSM    H6F15475   6.417   6.671   7.254  0.4891  1.5318  0.6426
  141OSM    H6G15476   6.490   6.825   7.192  0.7807 -0.2991  2.2698
  141OSM    C7F15477   6.638   6.673   7.212 -0.9158 -0.2339 -0.1513
  141OSM    H7F15478   6.703   6.710   7.130  0.2436 -1.3435  0.2400
  141OSM    H7G15479   6.650   6.563   7.213  0.2621 -0.1178  0.5159
  141OSM    C8F15480   6.697   6.729   7.349  0.0949 -0.1813 -0.4744
  141OSM    H8F15481   6.665   6.835   7.362  0.4580 -0.2711  1.2919
  141OSM    H8G15482   6.806   6.724   7.368 -0.2231 -0.1912  1.5437
  141OSM    C9F15483   6.639   6.647   7.462  0.5389  0.7884  0.2121
  141OSM    H9F15484   6.546   6.689   7.504  1.0071  1.6462  0.4109
  141OSM   C10F15485   6.686   6.530   7.518 -0.3172  0.3324 -0.0881
  141OSM   H10F15486   6.629   6.469   7.590  0.4249 -2.4809 -1.7168
  141OSM   C11F15487   6.809   6.444   7.480  0.5062 -0.4924  0.5287
  141OSM   H11F15488   6.860   6.485   7.389  2.5441  0.2338  1.9322
  141OSM   H11G15489   6.786   6.339   7.453  0.5738 -0.5731  0.7875
  141OSM   C12F15490   6.927   6.465   7.574 -0.2963  0.0043  0.3530
  141OSM   H12F15491   6.964   6.570   7.567 -2.9477  1.0351  0.5655
  141OSM   H12G15492   7.016   6.408   7.541  0.8275  1.7936  0.1685
  141OSM   C13F15493   6.893   6.422   7.721  0.0288 -0.1093  0.3945
  141OSM   H13F15494   6.881   6.312   7.718  0.6255 -0.1644 -0.0448
  141OSM   H13G15495   6.797   6.465   7.757  0.1119  0.4385 -0.0388
  141OSM   C14F15496   6.988   6.438   7.841 -0.1327 -0.5048  0.2202
  141OSM   H14F15497   6.983   6.536   7.893 -0.7873 -0.9593  1.0213
  141OSM   H14G15498   7.088   6.433   7.792  1.1909  1.7811  2.4792
  141OSM   C15F15499   6.975   6.327   7.941  0.0146  0.2695 -0.2153
  141OSM   H15F15500   7.059   6.341   8.012  0.0646 -1.2175  0.0598
  141OSM   H15G15501   7.002   6.228   7.898  0.9875 -0.6542  2.3243
  141OSM   C16F15502   6.843   6.327   8.017  0.0138  0.4625  0.0844
  141OSM   H16F15503   6.846   6.234   8.077  0.1377  0.8163  0.6317
  141OSM   H16G15504   6.752   6.309   7.955  0.0063 -0.4524  0.3486
  141OSM   C17F15505   6.818   6.424   8.134 -0.9768  0.0616 -0.3814
  141OSM   H17F15506   6.849   6.522   8.092  1.5362 -1.1893 -1.6817
  141OSM   H17G15507   6.882   6.405   8.223 -0.2383  0.8388 -0.7266
  141OSM   C18F15508   6.674   6.410   8.193  0.4026  1.0055 -0.1490
  141OSM   H18F15509   6.648   6.500   8.253 -0.6488  1.8112 -1.7301
  141OSM   H18G15510   6.668   6.316   8.251  2.4132  2.1900  2.1987
  141OSM   H18H15511   6.596   6.408   8.114 -0.9458 -0.5552  1.1686
  142OSM      N15512   0.442   1.656   6.197 -0.4014 -0.7851  0.5371
  142OSM    C1515513   0.427   1.762   6.093 -0.3364 -0.3970 -0.2706
  142OSM   H15A15514   0.331   1.754   6.044  0.0171  2.0056 -1.5216
  142OSM   H15B15515   0.500   1.750   6.014  0.0881  0.7191 -0.0702
  142OSM   H15C15516   0.430   1.862   6.133  2.9792 -0.2953 -0.4576
  142OSM    C1415517   0.449   1.528   6.118 -0.2267  0.5310  0.2795
  142OSM   H14A15518   0.541   1.521   6.062  0.4127 -0.1350  1.3763
  142OSM   H14B15519   0.367   1.522   6.048 -0.1379 -0.5057  0.2454
  142OSM   H14C15520   0.429   1.442   6.181 -0.7251  0.7584  0.4308
  142OSM    C1315521   0.568   1.673   6.275  0.1258  0.7050 -0.6093
  142OSM   H13A15522   0.588   1.766   6.326  0.6692  0.3480 -0.1577
  142OSM   H13B15523   0.655   1.678   6.211 -0.4279  0.4274 -1.3966
  142OSM   H13C15524   0.578   1.598   6.352 -1.2827  1.0070 -0.0951
  142OSM    C1215525   0.322   1.669   6.288 -0.2071  0.2575  0.3876
  142OSM   H12A15526   0.234   1.634   6.236  1.3900 -2.2717 -0.8199
  142OSM   H12B15527   0.312   1.771   6.321  1.0723  0.9215 -1.1946
  142OSM    C1115528   0.316   1.577   6.422  0.0406 -0.0407 -0.3832
  142OSM   H11A15529   0.226   1.606   6.481  1.1524  1.5473  0.6214
  142OSM   H11B15530   0.408   1.607   6.477  0.9788  0.2182 -2.0193
  142OSM      P15531   0.195   1.351   6.343 -0.2050  0.4865 -0.0565
  142OSM    O1315532   0.138   1.407   6.221  0.1884  0.0871  0.7640
  142OSM    O1415533   0.234   1.207   6.325 -0.3155  0.4531 -0.0213
  142OSM    O1115534   0.086   1.358   6.461  0.3276 -0.4020 -0.3153
  142OSM    O1215535   0.322   1.435   6.397  0.1359  0.0977  0.3797
  142OSM    C1S15536   0.110   1.310   6.595 -0.0986 -0.4384 -0.1528
  142OSM    H1S15537   0.193   1.358   6.651 -1.4998  0.9090  0.8600
  142OSM    H1T15538   0.123   1.200   6.591 -0.9654 -0.5087 -2.2275
  142OSM     NF15539   0.005   1.328   6.827 -0.6063 -0.2318  0.1358
  142OSM    HNF15540  -0.035   1.250   6.875  2.3356 -0.8955  1.7392
  142OSM    C2S15541  -0.018   1.336   6.682 -0.4703  0.0719 -0.2270
  142OSM    H2S15542  -0.063   1.438   6.674  0.7492  0.8167  1.7953
  142OSM    C3S15543  -0.117   1.229   6.630 -0.5482 -0.0481  0.2041
  142OSM    H3S15544  -0.076   1.126   6.639 -1.0292 -0.4818 -1.9165
  142OSM     O315545  -0.137   1.227   6.489 -0.0057  0.7539 -0.1064
  142OSM    HO315546  -0.063   1.283   6.462  0.4884  0.5636  0.8277
  142OSM    C4S15547  -0.245   1.230   6.701  0.0471  0.1190  0.0901
  142OSM    H4S15548  -0.268   1.325   6.752  1.5349 -0.7650  2.5910
  142OSM    C5S15549  -0.314   1.118   6.731  0.0063 -0.3587  0.5423
  142OSM    H5S15550  -0.261   1.026   6.701 -1.6485 -0.9387 -0.6872
  142OSM    C6S15551  -0.447   1.113   6.797 -0.1240 -0.2995 -0.1759
  142OSM    H6S15552  -0.529   1.048   6.761 -2.6805  2.1986  0.7754
  142OSM    H6T15553  -0.488   1.215   6.779 -0.8429 -0.8773 -2.0105
  142OSM    C7S15554  -0.432   1.099   6.950 -0.2093 -0.3631 -0.1398
  142OSM    H7S15555  -0.346   1.156   6.991 -0.3639  1.2809 -1.9399
  142OSM    H7T15556  -0.406   0.991   6.962 -1.9452 -0.6483  1.5215
  142OSM    C8S15557  -0.560   1.140   7.021  0.2325  0.5741  0.5867
  142OSM    H8S15558  -0.646   1.079   6.986  0.6809  0.5986 -0.5819
  142OSM    H8T15559  -0.586   1.242   6.986 -0.8507 -0.0385 -0.4272
  142OSM    C9S15560  -0.541   1.142   7.175  0.1765 -0.1389 -0.1952
  142OSM    H9S15561  -0.454   1.204   7.204 -1.0739  1.6331 -0.0669
  142OSM    H9T15562  -0.520   1.038   7.209  1.2424  0.4853  1.1258
  142OSM   C10S15563  -0.667   1.178   7.252  0.2330 -0.4297  0.2965
  142OSM   H10S15564  -0.746   1.112   7.210  1.1490 -0.7178 -1.0325
  142OSM   H10T15565  -0.695   1.282   7.226  0.9795 -0.4186 -0.5119
  142OSM   C11S15566  -0.647   1.143   7.399 -0.5201 -0.8380 -0.4749
  142OSM   H11S15567  -0.568   1.069   7.423 -1.7504 -2.2643 -0.6658
  142OSM   H11T15568  -0.739   1.092   7.435  1.1671 -2.9286  1.1241
  142OSM   C12S15569  -0.627   1.264   7.490  0.0651  0.7505 -0.5107
  142OSM   H12S15570  -0.690   1.348   7.454 -0.5432 -0.0802 -1.4381
  142OSM   H12T15571  -0.521   1.298   7.488 -0.5485  3.0218  1.4193
  142OSM   C13S15572  -0.671   1.231   7.637  0.0813 -0.4342 -0.3481
  142OSM   H13S15573  -0.619   1.136   7.661  0.0483 -1.2493 -3.1765
  142OSM   H13T15574  -0.778   1.200   7.634  0.5287 -2.0868 -0.1756
  142OSM   C14S15575  -0.635   1.339   7.735 -0.5042 -0.6515  0.3644
  142OSM   H14S15576  -0.697   1.431   7.736  0.7120  0.1845  0.4162
  142OSM   H14T15577  -0.534   1.373   7.704 -1.1577 -0.1212 -1.3164
  142OSM   C15S15578  -0.630   1.281   7.876 -0.9311 -0.1937  0.7358
  142OSM   H15S15579  -0.599   1.362   7.946  2.4450  1.4255 -2.3288
  142OSM   H15T15580  -0.550   1.205   7.883 -0.2126  0.5566  0.7480
  142OSM   C16S15581  -0.760   1.209   7.929  0.2195 -0.2340 -0.1165
  142OSM   H16S15582  -0.770   1.110   7.881 -0.7097 -0.4890  0.5723
  142OSM   H16T15583  -0.842   1.281   7.905 -0.0867  0.0690  1.6529
  142OSM   C17S15584  -0.764   1.187   8.086  0.0687  0.5191 -0.3590
  142OSM   H17S15585  -0.853   1.123   8.103  1.0784 -0.6073  0.8423
  142OSM   H17T15586  -0.785   1.284   8.136 -0.3888  0.5009 -0.5129
  142OSM   C18S15587  -0.633   1.135   8.158  0.0760 -0.3729  0.4364
  142OSM   H18S15588  -0.605   1.041   8.106 -1.4974 -0.1108 -0.9603
  142OSM   H18T15589  -0.659   1.110   8.262 -1.7304 -0.2938  0.0363
  142OSM   H18U15590  -0.558   1.217   8.156 -1.2034  0.8124 -0.7597
  142OSM    C1F15591   0.082   1.409   6.907 -0.7146  0.6700  0.8882
  142OSM     OF15592   0.136   1.506   6.864 -0.0661  0.0738 -0.1444
  142OSM    C2F15593   0.122   1.354   7.038  0.7501 -0.3028 -0.4292
  142OSM    H2F15594   0.229   1.329   7.027  0.8382 -1.4119  2.1119
  142OSM    H2G15595   0.072   1.257   7.057 -0.3640  0.3270  0.0123
  142OSM    C3F15596   0.113   1.450   7.163  0.6576  0.2015  0.7199
  142OSM    H3F15597   0.012   1.497   7.170 -0.7086 -2.5522  1.0977
  142OSM    H3G15598   0.179   1.538   7.149  1.0876 -0.2443 -0.0925
  142OSM    C4F15599   0.136   1.386   7.302  0.1669 -0.0725  0.1328
  142OSM    H4F15600   0.239   1.344   7.306  0.5960  0.9763  0.6294
  142OSM    H4G15601   0.067   1.300   7.312 -0.3645  0.5062  1.9232
  142OSM    C5F15602   0.114   1.482   7.415  0.5224 -0.0319 -0.2371
  142OSM    H5F15603   0.022   1.541   7.391 -0.1766 -0.6998  0.7327
  142OSM    H5G15604   0.194   1.558   7.429  0.6763 -0.2827  0.2602
  142OSM    C6F15605   0.103   1.415   7.549  0.7174  1.1270 -0.0791
  142OSM    H6F15606   0.187   1.343   7.560  0.2249  0.4197 -0.8557
  142OSM    H6G15607   0.013   1.350   7.545 -0.3023  2.3350  1.7120
  142OSM    C7F15608   0.104   1.504   7.679  0.0441 -0.0623 -0.0385
  142OSM    H7F15609   0.006   1.556   7.685 -0.0519 -0.2340 -0.0938
  142OSM    H7G15610   0.185   1.579   7.667 -0.3955  0.2710 -1.0271
  142OSM    C8F15611   0.127   1.414   7.803 -0.4907 -0.6022 -0.4390
  142OSM    H8F15612   0.190   1.323   7.796  0.2852 -0.3275  2.1396
  142OSM    H8G15613   0.025   1.373   7.818 -0.3722 -2.0000 -2.8764
  142OSM    C9F15614   0.176   1.490   7.925  0.6052  0.5134 -0.1082
  142OSM    H9F15615   0.161   1.599   7.926 -2.8212  0.2194  3.3097
  142OSM   C10F15616   0.207   1.436   8.043  0.3517  0.1346 -1.0722
  142OSM   H10F15617   0.239   1.491   8.133  0.1922 -1.7509  0.2014
  142OSM   C11F15618   0.210   1.287   8.072  0.6665  0.2273 -0.2261
  142OSM   H11F15619   0.312   1.277   8.114  0.6134  1.6638  0.3126
  142OSM   H11G15620   0.191   1.231   7.978 -1.4171  0.4362  0.0275
  142OSM   C12F15621   0.112   1.246   8.182  0.4849 -0.2124 -0.1819
  142OSM   H12F15622   0.128   1.137   8.194 -0.6934 -0.1188  3.2324
  142OSM   H12G15623   0.006   1.265   8.157  1.2218  1.2859 -2.5637
  142OSM   C13F15624   0.149   1.298   8.326 -0.4074 -0.5201 -0.1838
  142OSM   H13F15625   0.113   1.403   8.333  2.8403  0.6831 -0.1686
  142OSM   H13G15626   0.259   1.298   8.342 -0.3264 -2.6061 -0.4480
  142OSM   C14F15627   0.090   1.215   8.437  0.3375 -0.3938  0.1356
  142OSM   H14F15628   0.107   1.107   8.417  0.7487  0.2258 -3.6202
  142OSM   H14G15629  -0.020   1.219   8.453  0.0164 -2.7575 -1.1053
  142OSM   C15F15630   0.147   1.253   8.579 -0.6663 -1.2465  0.3609
  142OSM   H15F15631   0.212   1.342   8.561 -0.2183 -2.0700 -2.6183
  142OSM   H15G15632   0.205   1.165   8.615 -0.3389 -0.7868  0.9868
  142OSM   C16F15633   0.045   1.283   8.694  0.0223 -0.0203  0.7533
  142OSM   H16F15634  -0.027   1.201   8.715 -1.2546  0.7488 -0.4195
  142OSM   H16G15635  -0.015   1.371   8.664 -0.4335 -0.2794  0.8885
  142OSM   C17F15636   0.116   1.321   8.829  0.2717  0.0664  0.1583
  142OSM   H17F15637   0.165   1.420   8.816 -1.3529  0.7030 -1.4320
  142OSM   H17G15638   0.198   1.253   8.861  0.5998  0.6982  0.6907
  142OSM   C18F15639   0.013   1.355   8.942 -0.2039  0.4423  0.6881
  142OSM   H18F15640   0.064   1.361   9.041  1.7227  0.1763 -0.2331
  142OSM   H18G15641  -0.079   1.294   8.952  0.8184 -1.3242 -0.1570
  142OSM   H18H15642  -0.030   1.451   8.909 -2.2324 -1.3011 -2.2442
  143OSM      N15643   2.348   2.982   6.295 -0.1768  0.1596  0.1140
  143OSM    C1515644   2.382   2.951   6.434  0.5094 -0.1499 -0.0276
  143OSM   H15A15645   2.350   3.021   6.509  1.4312 -1.6456  1.8478
  143OSM   H15B15646   2.490   2.948   6.437  0.5411  1.0996  0.3670
  143OSM   H15C15647   2.356   2.848   6.456 -0.1949 -0.8853 -3.5636
  143OSM    C1415648   2.401   2.863   6.215  0.4535 -0.0298 -0.7806
  143OSM   H14A15649   2.338   2.776   6.219 -1.1407  1.0855 -0.8825
  143OSM   H14B15650   2.496   2.825   6.252  0.7392  2.9798  2.1526
  143OSM   H14C15651   2.409   2.888   6.111 -1.6807  0.2307 -0.9161
  143OSM    C1315652   2.201   2.986   6.281 -0.3639  0.3482  1.2993
  143OSM   H13A15653   2.171   2.970   6.179 -0.8666  1.5182  1.2447
  143OSM   H13B15654   2.164   3.082   6.315  1.3499  0.8481  1.8795
  143OSM   H13C15655   2.154   2.907   6.337 -0.4940 -0.6494 -0.1776
  143OSM    C1215656   2.424   3.107   6.263  0.5957  0.2558  0.9122
  143OSM   H12A15657   2.404   3.128   6.159 -1.6225  0.3548  1.3272
  143OSM   H12B15658   2.532   3.096   6.265  0.5003 -1.3419 -0.7276
  143OSM    C1115659   2.383   3.237   6.341  0.0708 -0.8613  0.2111
  143OSM   H11A15660   2.453   3.320   6.318 -1.8678  1.0774  0.8821
  143OSM   H11B15661   2.380   3.212   6.449 -1.0409  2.9321  1.2338
  143OSM      P15662   2.210   3.357   6.184  0.2740 -0.4269  0.0490
  143OSM    O1315663   2.264   3.292   6.061 -0.3625 -0.0013  0.1579
  143OSM    O1415664   2.064   3.374   6.183  0.4710 -0.3300 -0.1184
  143OSM    O1115665   2.283   3.495   6.192 -0.2048 -0.4360 -0.4891
  143OSM    O1215666   2.248   3.273   6.311  0.4204 -0.1247  0.0894
  143OSM    C1S15667   2.294   3.570   6.316  0.4606  0.8841  0.1574
  143OSM    H1S15668   2.339   3.512   6.400  1.3552 -2.1594 -2.2056
  143OSM    H1T15669   2.192   3.598   6.351 -0.3353  1.0621 -2.1649
  143OSM     NF15670   2.409   3.760   6.427  0.0541  0.3017  0.2153
  143OSM    HNF15671   2.376   3.850   6.454  0.8524  1.2262 -1.7556
  143OSM    C2S15672   2.369   3.708   6.294 -0.2641  0.9303  0.1431
  143OSM    H2S15673   2.467   3.674   6.254 -0.2077  2.1661 -0.8228
  143OSM    C3S15674   2.297   3.796   6.193  0.0164 -0.7179  0.4878
  143OSM    H3S15675   2.193   3.817   6.225  0.1436  1.5920 -0.4133
  143OSM     O315676   2.283   3.730   6.059  0.6289  0.0327 -0.1590
  143OSM    HO315677   2.312   3.642   6.081  0.1973 -0.2836 -0.8222
  143OSM    C4S15678   2.370   3.929   6.175  0.1015 -0.4621 -0.9817
  143OSM    H4S15679   2.313   4.012   6.220 -0.9564 -2.2912  1.2392
  143OSM    C5S15680   2.493   3.958   6.127 -0.1211  0.0645 -0.0535
  143OSM    H5S15681   2.560   3.875   6.100 -1.7290 -2.3539  2.6447
  143OSM    C6S15682   2.544   4.095   6.127  0.0797 -0.0527  0.0199
  143OSM    H6S15683   2.482   4.137   6.045 -1.0779  1.8482  1.7752
  143OSM    H6T15684   2.652   4.086   6.099  0.2805  1.1844  0.3597
  143OSM    C7S15685   2.548   4.177   6.252  0.0702 -0.7603 -0.6095
  143OSM    H7S15686   2.450   4.220   6.280  1.5704  3.0838 -0.7838
  143OSM    H7T15687   2.603   4.270   6.227 -0.3800 -0.2260  0.3658
  143OSM    C8S15688   2.610   4.130   6.376 -0.3955 -0.1875 -0.2743
  143OSM    H8S15689   2.707   4.082   6.349 -0.5527 -1.0331  0.6353
  143OSM    H8T15690   2.546   4.056   6.428  1.0273  1.2799  3.9528
  143OSM    C9S15691   2.635   4.233   6.486 -0.4294 -0.5952  0.0923
  143OSM    H9S15692   2.533   4.277   6.494 -1.6599 -2.8775 -1.8059
  143OSM    H9T15693   2.709   4.312   6.459 -2.0533  1.4289  1.2472
  143OSM   C10S15694   2.677   4.156   6.614 -0.5336  0.2215  0.6865
  143OSM   H10S15695   2.768   4.095   6.593 -0.8675  0.6242 -2.4298
  143OSM   H10T15696   2.601   4.082   6.647 -1.6711  0.2271 -1.7354
  143OSM   C11S15697   2.702   4.253   6.729  0.4569 -0.7710  0.0022
  143OSM   H11S15698   2.612   4.318   6.728  1.5114  0.7544 -0.9812
  143OSM   H11T15699   2.794   4.315   6.721  0.3131 -0.4787  0.5874
  143OSM   C12S15700   2.713   4.188   6.862  0.9061 -0.0797 -0.0665
  143OSM   H12S15701   2.819   4.160   6.878  1.1277 -0.8627 -2.5983
  143OSM   H12T15702   2.657   4.093   6.871  1.2671 -0.2884 -0.0319
  143OSM   C13S15703   2.674   4.285   6.973  0.2520 -0.0053 -0.3081
  143OSM   H13S15704   2.564   4.298   6.984  0.1362 -1.3644  0.3207
  143OSM   H13T15705   2.710   4.386   6.945 -3.3273  1.4232 -0.2805
  143OSM   C14S15706   2.737   4.248   7.104 -0.3317 -0.8795 -0.4765
  143OSM   H14S15707   2.847   4.245   7.088 -0.2444 -0.2916 -0.0442
  143OSM   H14T15708   2.701   4.147   7.133 -0.6282 -0.7325 -0.3246
  143OSM   C15S15709   2.706   4.342   7.221 -0.2616 -0.1167 -0.4049
  143OSM   H15S15710   2.596   4.328   7.233 -0.7029  1.6405 -1.8969
  143OSM   H15T15711   2.737   4.448   7.205 -2.2172  0.4094 -0.9835
  143OSM   C16S15712   2.764   4.292   7.352  0.2324  0.1865  0.4777
  143OSM   H16S15713   2.869   4.262   7.333  0.0054  0.2493 -0.9882
  143OSM   H16T15714   2.707   4.203   7.385  2.3271 -1.2848  0.2961
  143OSM   C17S15715   2.759   4.395   7.471 -0.0066  0.1583  0.0783
  143OSM   H17S15716   2.669   4.459   7.463 -0.8381 -0.9175  0.5568
  143OSM   H17T15717   2.844   4.465   7.456  0.3380 -0.4469 -0.9381
  143OSM   C18S15718   2.752   4.315   7.602 -0.1318 -0.3133 -0.2061
  143OSM   H18S15719   2.851   4.272   7.629  0.5278  0.2192 -1.6883
  143OSM   H18T15720   2.680   4.230   7.598 -0.7508  0.2139 -0.3883
  143OSM   H18U15721   2.727   4.373   7.694 -1.1166 -2.4456  0.9656
  143OSM    C1F15722   2.488   3.697   6.515  0.2797 -0.5572  0.4236
  143OSM     OF15723   2.556   3.602   6.477 -0.1161 -0.1995 -0.0794
  143OSM    C2F15724   2.488   3.747   6.659 -0.1662  0.8689  0.1788
  143OSM    H2F15725   2.408   3.684   6.704  0.5749 -1.1054 -1.1569
  143OSM    H2G15726   2.450   3.852   6.660 -3.0630 -0.0588 -1.5287
  143OSM    C3F15727   2.621   3.732   6.733 -0.7063  0.3125 -1.1482
  143OSM    H3F15728   2.688   3.791   6.667  1.3382 -2.9603 -2.2105
  143OSM    H3G15729   2.654   3.626   6.725 -3.1985 -0.7043  0.7683
  143OSM    C4F15730   2.622   3.771   6.882  0.5184  0.1233 -0.2986
  143OSM    H4F15731   2.546   3.711   6.937 -0.3062  1.5058  0.1201
  143OSM    H4G15732   2.580   3.873   6.890 -2.9098 -1.1686  0.0568
  143OSM    C5F15733   2.757   3.771   6.942 -0.2864  0.1286 -0.0460
  143OSM    H5F15734   2.831   3.834   6.888 -0.4246  1.0751  0.8297
  143OSM    H5G15735   2.802   3.670   6.955  0.8574  0.8966  2.4957
  143OSM    C6F15736   2.756   3.827   7.086  0.5938 -0.1777 -0.8354
  143OSM    H6F15737   2.671   3.782   7.142  3.4088 -1.4406  2.7875
  143OSM    H6G15738   2.743   3.937   7.083 -0.0142 -0.1550  1.2619
  143OSM    C7F15739   2.887   3.801   7.159  0.0154 -0.0587 -0.1788
  143OSM    H7F15740   2.973   3.825   7.092 -1.1517 -0.4670 -1.9015
  143OSM    H7G15741   2.896   3.695   7.193 -1.2796 -0.1443 -0.0477
  143OSM    C8F15742   2.890   3.883   7.294 -0.5860 -0.2163  0.0191
  143OSM    H8F15743   2.859   3.987   7.270  1.0123 -0.0882 -1.7704
  143OSM    H8G15744   2.997   3.893   7.322 -1.1489  2.3930  1.5332
  143OSM    C9F15745   2.817   3.810   7.401  0.0839 -0.4922 -0.2818
  143OSM    H9F15746   2.723   3.762   7.371  0.3549 -0.1522 -1.7139
  143OSM   C10F15747   2.851   3.802   7.530  0.7718 -0.1872 -0.0443
  143OSM   H10F15748   2.794   3.736   7.597  1.4988 -1.0990 -0.2947
  143OSM   C11F15749   2.978   3.859   7.586 -0.2641  0.3732 -0.1566
  143OSM   H11F15750   3.043   3.913   7.515  1.0319 -0.8519  0.0662
  143OSM   H11G15751   3.041   3.777   7.626  0.5062  0.5988 -0.8983
  143OSM   C12F15752   2.947   3.941   7.714  0.3650  0.2243 -0.8518
  143OSM   H12F15753   2.876   4.020   7.681 -0.7337  0.1609  1.2187
  143OSM   H12G15754   3.042   3.989   7.744  0.4963  0.7902 -2.0909
  143OSM   C13F15755   2.893   3.855   7.828 -0.5473  0.1195 -0.3272
  143OSM   H13F15756   2.956   3.769   7.856 -1.3965 -0.7567 -1.0382
  143OSM   H13G15757   2.797   3.802   7.811 -0.8675  0.3185  0.8086
  143OSM   C14F15758   2.858   3.939   7.955  0.2348 -0.2267  0.1831
  143OSM   H14F15759   2.804   3.887   8.037 -1.3307  0.0186 -0.6575
  143OSM   H14G15760   2.787   4.012   7.910 -1.9472 -0.8075  2.4218
  143OSM   C15F15761   2.977   4.010   8.023  0.4782  0.0285 -0.1406
  143OSM   H15F15762   2.927   4.070   8.102  2.5263 -2.6270  3.4826
  143OSM   H15G15763   3.025   4.064   7.939 -0.8058 -0.5705 -1.3088
  143OSM   C16F15764   3.078   3.909   8.080 -0.2528  0.5417  0.6906
  143OSM   H16F15765   3.165   3.965   8.121 -0.5119  1.6305 -0.1863
  143OSM   H16G15766   3.122   3.838   8.008  0.7075  1.5557  0.2446
  143OSM   C17F15767   3.032   3.825   8.200 -0.3384  0.2268 -0.5850
  143OSM   H17F15768   2.931   3.786   8.174 -0.8726  0.8556  0.4919
  143OSM   H17G15769   3.009   3.888   8.288 -0.7889  0.8270 -1.1220
  143OSM   C18F15770   3.129   3.708   8.232  0.5055  0.2658 -0.0665
  143OSM   H18F15771   3.068   3.629   8.279  2.6221 -0.9929  0.7267
  143OSM   H18G15772   3.213   3.735   8.301  0.3502 -0.2824  0.3408
  143OSM   H18H15773   3.177   3.668   8.140 -1.0517 -0.1624 -0.7081
  144OSM      N15774   0.579   4.009   6.002  0.2461 -0.4173  0.7187
  144OSM    C1515775   0.662   3.975   5.875  0.2875  0.1962 -0.8034
  144OSM   H15A15776   0.764   3.954   5.904  0.3878  1.9851  0.2808
  144OSM   H15B15777   0.650   4.053   5.801  1.5083  0.5213 -0.6913
  144OSM   H15C15778   0.618   3.887   5.831  0.4011 -0.4592  0.3413
  144OSM    C1415779   0.584   3.899   6.095 -0.1223  0.0623 -0.7303
  144OSM   H14A15780   0.522   3.813   6.070  0.3706 -1.0147  1.5090
  144OSM   H14B15781   0.548   3.933   6.191  0.0722 -1.3505 -0.1266
  144OSM   H14C15782   0.686   3.864   6.106 -1.0679 -2.7998 -0.1185
  144OSM    C1315783   0.656   4.125   6.069  0.4649  0.0027  0.0544
  144OSM   H13A15784   0.752   4.094   6.107  0.9343  1.5453  0.1855
  144OSM   H13B15785   0.606   4.144   6.163 -0.4293 -2.0610  0.0546
  144OSM   H13C15786   0.674   4.210   6.005 -1.4345  0.2696 -0.1970
  144OSM    C1215787   0.438   4.054   5.970 -0.0411 -0.4896  0.2850
  144OSM   H12A15788   0.438   4.142   5.909 -0.1963 -2.2053 -2.3261
  144OSM   H12B15789   0.387   4.076   6.063  0.7291 -1.5987  0.9952
  144OSM    C1115790   0.345   3.955   5.899 -0.5001  0.4080  0.2301
  144OSM   H11A15791   0.382   3.956   5.794 -0.6986  0.4781  0.1609
  144OSM   H11B15792   0.243   3.999   5.894  0.2421  2.1251 -0.8100
  144OSM      P15793   0.269   3.763   6.082  0.0436 -0.1186  0.0567
  144OSM    O1315794   0.134   3.722   6.038 -0.2970  0.2373 -0.3485
  144OSM    O1415795   0.344   3.660   6.152  0.5094  0.5087  0.0679
  144OSM    O1115796   0.255   3.889   6.178 -0.0047  0.4509 -0.0030
  144OSM    O1215797   0.350   3.820   5.953 -0.0552 -0.0966 -0.3870
  144OSM    C1S15798   0.148   3.888   6.276 -0.3552  0.0602  0.0431
  144OSM    H1S15799   0.056   3.832   6.249  1.5954 -4.7475  2.0500
  144OSM    H1T15800   0.122   3.992   6.304  0.4739  0.4439 -0.5764
  144OSM     NF15801   0.079   3.804   6.500 -0.4256  0.3941 -0.4676
  144OSM    HNF15802   0.083   3.851   6.587  2.8524 -1.2395  0.4550
  144OSM    C2S15803   0.190   3.816   6.405 -0.2860  0.2842 -0.0587
  144OSM    H2S15804   0.216   3.711   6.379  3.6906  1.0540  0.2416
  144OSM    C3S15805   0.319   3.878   6.465 -0.5062 -0.7265 -0.2280
  144OSM    H3S15806   0.284   3.977   6.500 -1.2387 -0.6156 -1.2497
  144OSM     O315807   0.420   3.911   6.374  0.4880  0.0767 -0.1315
  144OSM    HO315808   0.378   3.904   6.288  0.0078  0.6221  0.0509
  144OSM    C4S15809   0.388   3.790   6.562 -0.4269  0.3495  0.3840
  144OSM    H4S15810   0.450   3.708   6.523 -0.2913  0.7726 -0.2936
  144OSM    C5S15811   0.384   3.803   6.693 -0.3879  0.6411  0.9839
  144OSM    H5S15812   0.313   3.880   6.728 -0.5242  0.5650  0.8776
  144OSM    C6S15813   0.441   3.710   6.794  0.4838  0.2489  0.2708
  144OSM    H6S15814   0.531   3.754   6.842 -0.6387  2.3793  0.5278
  144OSM    H6T15815   0.474   3.613   6.751 -0.4147 -0.9594  2.1593
  144OSM    C7S15816   0.341   3.664   6.904  0.3626  0.1658 -0.0322
  144OSM    H7S15817   0.277   3.594   6.847 -1.7155  1.1773  0.9534
  144OSM    H7T15818   0.270   3.743   6.935 -0.7702 -1.1276  0.7531
  144OSM    C8S15819   0.417   3.594   7.018 -0.7848 -0.5925 -0.3503
  144OSM    H8S15820   0.498   3.538   6.966  0.2695  2.5661 -2.3960
  144OSM    H8T15821   0.353   3.520   7.071 -2.2205  0.6510 -0.2759
  144OSM    C9S15822   0.475   3.699   7.118 -0.1695 -0.1240 -0.1948
  144OSM    H9S15823   0.391   3.762   7.152 -2.3719 -0.6806 -4.0118
  144OSM    H9T15824   0.544   3.752   7.049  0.2257  0.1939  0.4389
  144OSM   C10S15825   0.559   3.627   7.234  0.3732  0.0277  0.2941
  144OSM   H10S15826   0.594   3.705   7.304  0.2582  0.9941 -0.7085
  144OSM   H10T15827   0.646   3.571   7.192 -1.5064 -1.1891 -2.2236
  144OSM   C11S15828   0.472   3.528   7.321 -0.5203 -0.1920  0.7463
  144OSM   H11S15829   0.440   3.441   7.259 -1.3651 -0.8107  2.0101
  144OSM   H11T15830   0.381   3.589   7.339  0.8045  2.2156 -0.1944
  144OSM   C12S15831   0.542   3.482   7.453  0.3594 -0.6835  0.1204
  144OSM   H12S15832   0.558   3.574   7.512 -0.3123  0.3997 -1.3214
  144OSM   H12T15833   0.634   3.440   7.407  0.1124 -0.0970 -0.9524
  144OSM   C13S15834   0.464   3.381   7.526  0.8544 -0.1043  0.2183
  144OSM   H13S15835   0.464   3.280   7.480 -0.5678  0.0026 -0.0499
  144OSM   H13T15836   0.361   3.420   7.544  0.8075 -0.0791 -0.0995
  144OSM   C14S15837   0.515   3.370   7.670  0.3316 -0.2580  0.0840
  144OSM   H14S15838   0.454   3.302   7.733 -1.9973  0.1851 -1.5162
  144OSM   H14T15839   0.513   3.477   7.699 -3.7441  0.4544 -2.0147
  144OSM   C15S15840   0.660   3.335   7.681 -0.1625  0.6235  0.7875
  144OSM   H15S15841   0.730   3.409   7.637  0.1978 -1.0719 -1.6779
  144OSM   H15T15842   0.677   3.240   7.627 -2.3650  1.3875 -1.4474
  144OSM   C16S15843   0.711   3.315   7.831  0.5288 -0.1635 -0.2962
  144OSM   H16S15844   0.643   3.251   7.890  1.3234 -0.9434 -0.2088
  144OSM   H16T15845   0.705   3.421   7.864 -1.0066 -0.4312  0.3632
  144OSM   C17S15846   0.857   3.266   7.856 -0.6113  0.4303  1.4563
  144OSM   H17S15847   0.919   3.335   7.795 -3.7610  1.2347 -1.1137
  144OSM   H17T15848   0.875   3.162   7.819  0.6829  1.1110  0.0521
  144OSM   C18S15849   0.891   3.265   8.006 -0.6974  0.1615  0.3962
  144OSM   H18S15850   0.848   3.354   8.056 -1.1717  1.2634 -1.8161
  144OSM   H18T15851   1.000   3.249   8.020 -0.6379  0.5902  0.4520
  144OSM   H18U15852   0.845   3.172   8.047  1.8334 -1.6071 -0.5482
  144OSM    C1F15853  -0.028   3.728   6.476  0.4538  0.0350 -0.3137
  144OSM     OF15854  -0.033   3.648   6.388  0.2938 -0.6116  0.1318
  144OSM    C2F15855  -0.147   3.752   6.561 -0.4104  0.4546 -0.4345
  144OSM    H2F15856  -0.237   3.771   6.498 -0.3769 -0.4243 -0.7585
  144OSM    H2G15857  -0.129   3.840   6.626  1.3905  0.5206 -0.9537
  144OSM    C3F15858  -0.176   3.631   6.659 -0.3877 -0.1761  0.3995
  144OSM    H3F15859  -0.145   3.534   6.615  1.8909 -0.3516  2.2196
  144OSM    H3G15860  -0.286   3.629   6.677 -0.4202  0.0440  0.2289
  144OSM    C4F15861  -0.094   3.646   6.786  0.7541 -0.5181  1.2336
  144OSM    H4F15862  -0.102   3.748   6.828  0.1101 -0.0421  0.0209
  144OSM    H4G15863   0.010   3.637   6.748  0.2009  0.2791 -0.6128
  144OSM    C5F15864  -0.129   3.536   6.885 -0.3771 -0.3792  0.5147
  144OSM    H5F15865  -0.139   3.439   6.832 -0.8876  1.1530 -2.4308
  144OSM    H5G15866  -0.231   3.544   6.928 -0.3483  1.3614  0.3553
  144OSM    C6F15867  -0.025   3.520   6.995 -0.0361  0.3518  0.3107
  144OSM    H6F15868   0.004   3.621   7.028 -1.9955  1.0214  0.1085
  144OSM    H6G15869   0.066   3.469   6.956  0.5974  2.5124 -1.2078
  144OSM    C7F15870  -0.079   3.450   7.119 -0.3916  0.4105 -1.1680
  144OSM    H7F15871  -0.113   3.346   7.103 -1.5889  0.7337 -0.7956
  144OSM    H7G15872  -0.171   3.499   7.157  0.8562  0.2275  2.4818
  144OSM    C8F15873   0.016   3.465   7.245  0.1305 -0.3672  0.3522
  144OSM    H8F15874  -0.048   3.441   7.333  0.0234 -0.9667  0.1189
  144OSM    H8G15875   0.033   3.574   7.257 -0.0848 -0.3014  0.0550
  144OSM    C9F15876   0.145   3.391   7.244 -0.8163  0.6512  0.1882
  144OSM    H9F15877   0.216   3.415   7.164 -0.3054 -2.1115 -0.2804
  144OSM   C10F15878   0.169   3.272   7.311 -0.7259 -0.8732 -0.4232
  144OSM   H10F15879   0.273   3.238   7.318 -0.1351  0.4869 -1.8391
  144OSM   C11F15880   0.071   3.191   7.393  0.0373 -0.1691 -0.0175
  144OSM   H11F15881   0.080   3.083   7.367  1.0950  0.0495 -0.6600
  144OSM   H11G15882  -0.032   3.222   7.368  1.1659  1.7918 -2.8301
  144OSM   C12F15883   0.069   3.202   7.553 -0.2329  1.0333  0.3376
  144OSM   H12F15884  -0.020   3.152   7.598  1.2904  0.2406  2.6343
  144OSM   H12G15885   0.071   3.306   7.591 -1.9972  0.6019  1.7926
  144OSM   C13F15886   0.199   3.137   7.618 -0.2056 -0.1334  0.3452
  144OSM   H13F15887   0.294   3.172   7.573 -1.7380  2.6345 -0.9577
  144OSM   H13G15888   0.195   3.026   7.613 -1.6116 -0.3136  3.1284
  144OSM   C14F15889   0.204   3.156   7.773 -0.3909  0.5705  0.6059
  144OSM   H14F15890   0.109   3.138   7.828 -1.6065  4.1612 -0.0673
  144OSM   H14G15891   0.236   3.259   7.796 -1.7283  1.0266  0.4988
  144OSM   C15F15892   0.306   3.061   7.841  0.5142 -0.4835  0.1939
  144OSM   H15F15893   0.407   3.104   7.826  0.1568  0.7111  1.1109
  144OSM   H15G15894   0.295   2.957   7.803 -3.1890 -0.2020  0.1604
  144OSM   C16F15895   0.298   3.067   7.995 -0.3139  0.0977  0.4989
  144OSM   H16F15896   0.198   3.103   8.027 -0.2312  0.8828 -0.1177
  144OSM   H16G15897   0.372   3.140   8.033 -1.5270  1.5777  0.1104
  144OSM   C17F15898   0.320   2.934   8.059 -0.6372 -0.4570 -0.4179
  144OSM   H17F15899   0.344   2.966   8.163 -1.8634  0.3645 -0.3587
  144OSM   H17G15900   0.412   2.887   8.019 -1.0860  0.0729 -2.1498
  144OSM   C18F15901   0.207   2.831   8.053  0.3192 -0.5105  0.2886
  144OSM   H18F15902   0.170   2.835   7.948  0.8924  0.1779  0.1008
  144OSM   H18G15903   0.123   2.861   8.119  0.1881 -0.6608  0.1901
  144OSM   H18H15904   0.232   2.729   8.087  0.0732 -0.6050  0.1885
  145SAPE     N15905   0.625   0.244  10.672 -0.0124  0.1810  0.7480
  145SAPE   HN115906   0.530   0.203  10.668 -1.2722  2.9258  0.8250
  145SAPE   HN215907   0.672   0.256  10.580 -1.1582  0.5003  0.1980
  145SAPE   HN315908   0.677   0.171  10.725 -2.3905 -0.6784  1.9979
  145SAPE   C1215909   0.616   0.374  10.741  0.5078 -0.5573 -0.2783
  145SAPE  H12A15910   0.719   0.416  10.740 -0.4022  1.9725  1.5530
  145SAPE  H12B15911   0.582   0.368  10.847  2.6705 -2.0356  0.3924
  145SAPE   C1115912   0.533   0.483  10.670  0.2140  0.2961  0.1812
  145SAPE  H11A15913   0.533   0.487  10.559 -1.8865 -0.1863  0.1215
  145SAPE  H11B15914   0.563   0.587  10.698 -1.8708  1.8142 -2.6323
  145SAPE     P15915   0.292   0.577  10.674 -0.7403 -0.0687  0.2279
  145SAPE   O1315916   0.165   0.547  10.739  0.1471 -0.6965  0.0698
  145SAPE   O1415917   0.348   0.708  10.697 -0.1184  0.1075  0.1022
  145SAPE   O1215918   0.401   0.470  10.717  0.1280 -0.3472  0.6697
  145SAPE   O1115919   0.275   0.549  10.518 -0.2005  0.5650 -0.1125
  145SAPE    C115920   0.199   0.440  10.478  0.4421  0.0851  0.4522
  145SAPE    HA15921   0.132   0.397  10.555  1.4315  1.9240  2.4498
  145SAPE    HB15922   0.143   0.463  10.385  3.1642  0.5854 -1.1509
  145SAPE    C215923   0.295   0.329  10.418 -0.1185  0.1467  0.7082
  145SAPE    HS15924   0.368   0.307  10.499  1.4825  2.2411 -0.0842
  145SAPE   O2115925   0.372   0.387  10.309 -0.1850 -0.4698  0.3845
  145SAPE   C2115926   0.486   0.322  10.281  0.0546 -0.4223 -0.4936
  145SAPE   O2215927   0.536   0.233  10.345  0.2629 -0.3729 -0.1135
  145SAPE   C2215928   0.547   0.393  10.155  0.4652  0.7406  0.1860
  145SAPE   H2R15929   0.541   0.503  10.172  0.7101  0.8720 -0.5450
  145SAPE   H2S15930   0.655   0.368  10.153 -0.1379 -2.1508 -1.0089
  145SAPE    C315931   0.205   0.210  10.361 -0.1309  0.1711 -0.0421
  145SAPE    HX15932   0.147   0.169  10.446  1.1295 -1.0867  0.2609
  145SAPE    HY15933   0.271   0.133  10.316 -0.7176 -1.6304  2.0136
  145SAPE   O3115934   0.123   0.267  10.254 -0.4851 -0.6826  0.0004
  145SAPE   C3115935   0.082   0.184  10.165  0.5452  0.1167 -1.5066
  145SAPE   O3215936   0.093   0.062  10.173 -0.4050  0.2988 -0.1212
  145SAPE   C3215937   0.006   0.249  10.050 -0.8740  0.3088 -0.2602
  145SAPE   H2X15938   0.039   0.355  10.048 -0.0006  0.0694  0.6641
  145SAPE   H2Y15939  -0.105   0.247  10.063 -0.7826  0.8195  0.6784
  145SAPE   C2315940   0.495   0.333  10.019 -0.2065  0.5688  0.3295
  145SAPE   H3R15941   0.516   0.225  10.012  0.9546  0.7171  1.1544
  145SAPE   H3S15942   0.559   0.391   9.949  0.6921  0.3236  0.9321
  145SAPE   C2415943   0.345   0.375   9.977 -0.6699  0.0795 -0.7128
  145SAPE   H4R15944   0.273   0.353  10.058 -1.6239  0.1859 -1.5038
  145SAPE   H4S15945   0.319   0.311   9.890 -1.2367 -0.3847 -0.2071
  145SAPE   C2515946   0.343   0.523   9.955 -0.2185  0.6213  0.2501
  145SAPE   H5R15947   0.348   0.581  10.049  0.8802 -0.6818  1.0435
  145SAPE   C2615948   0.331   0.592   9.841  0.1227 -0.1396 -0.2261
  145SAPE   H6R15949   0.324   0.701   9.851 -4.2407 -0.3753  1.4714
  145SAPE   C2715950   0.315   0.544   9.700  0.1273 -0.7672 -0.6817
  145SAPE   H7R15951   0.301   0.632   9.634  2.7180 -1.7701 -2.7527
  145SAPE   H7S15952   0.224   0.481   9.687 -1.2680  0.7492  1.2551
  145SAPE   C2815953   0.442   0.482   9.640  0.4853  0.1201 -0.6083
  145SAPE   H8R15954   0.534   0.503   9.695  0.0786 -2.3776  1.1920
  145SAPE   C2915955   0.436   0.420   9.521  0.4839 -0.4504  0.5232
  145SAPE   H9R15956   0.531   0.379   9.485  1.3565  1.4684  0.5153
  145SAPE  C21015957   0.323   0.382   9.430 -0.1381  0.3678  0.5941
  145SAPE  H10R15958   0.234   0.437   9.466  1.4010  2.6361  1.1443
  145SAPE  H10S15959   0.290   0.277   9.447 -0.3270  0.5035  1.0629
  145SAPE  C21115960   0.351   0.411   9.282  0.0266  0.5130 -0.8121
  145SAPE  H11R15961   0.419   0.346   9.227  0.9618  1.6452 -1.0287
  145SAPE  C21215962   0.291   0.513   9.214 -0.1553  0.3251  0.2418
  145SAPE  H12R15963   0.330   0.536   9.114 -0.8127  0.5661  0.0390
  145SAPE  C21315964   0.197   0.615   9.273  0.2208  0.1564  0.5286
  145SAPE  H13R15965   0.237   0.714   9.244 -4.6995  1.4471 -3.2610
  145SAPE  H13S15966   0.200   0.610   9.384  0.3390  1.2572  0.5843
  145SAPE  C21415967   0.053   0.592   9.228  0.3059  0.5910 -0.5660
  145SAPE  H14R15968   0.009   0.496   9.259 -3.9482  2.0989 -1.2469
  145SAPE  C21515969  -0.025   0.688   9.166 -0.1904  0.2528 -0.7383
  145SAPE  H15R15970  -0.128   0.653   9.147  0.1577 -0.8610 -0.5857
  145SAPE  C21615971   0.007   0.836   9.143 -0.6444 -0.0324 -0.3808
  145SAPE  H16R15972  -0.040   0.871   9.048 -0.7883 -0.9137 -0.6494
  145SAPE  H16S15973   0.115   0.848   9.120 -0.7807  1.3073 -0.3528
  145SAPE  C21715974  -0.040   0.927   9.261  0.2501 -0.2204 -0.4482
  145SAPE  H17R15975   0.025   0.909   9.349  1.4053  1.6174 -0.8859
  145SAPE  H17S15976  -0.142   0.903   9.298 -0.3739 -1.1787 -2.6045
  145SAPE  C21815977  -0.043   1.072   9.216  0.6983  0.8508  0.5369
  145SAPE  H18R15978  -0.132   1.079   9.150  0.6232 -4.0610 -0.2756
  145SAPE  H18S15979   0.041   1.087   9.146  1.2889  0.5683  1.1737
  145SAPE  C21915980  -0.041   1.184   9.316 -0.6812 -0.3777  0.8409
  145SAPE  H19R15981  -0.027   1.283   9.267 -1.5499  0.2359  1.7722
  145SAPE  H19S15982   0.055   1.168   9.369  0.0152 -1.9630 -0.8155
  145SAPE  C22015983  -0.159   1.198   9.415  0.2328 -0.3346 -0.3214
  145SAPE  H20R15984  -0.138   1.277   9.490  1.6598 -0.6574 -0.3500
  145SAPE  H20S15985  -0.182   1.094   9.448  2.6248 -1.6552 -2.4350
  145SAPE  H20T15986  -0.247   1.224   9.352  0.4735 -0.5486 -0.7432
  145SAPE   C3315987   0.033   0.181   9.917 -0.0085  0.3029 -0.0063
  145SAPE   H3X15988  -0.015   0.081   9.911  1.7899 -0.5054 -4.3892
  145SAPE   H3Y15989   0.143   0.165   9.908  0.1029 -1.8721  3.3822
  145SAPE   C3415990  -0.019   0.257   9.795 -0.0450 -0.5355 -0.1407
  145SAPE   H4X15991   0.019   0.361   9.791  0.5179 -0.6991  0.6941
  145SAPE   H4Y15992  -0.130   0.253   9.792 -0.1515  0.5170  1.3033
  145SAPE   C3515993   0.006   0.187   9.659 -0.0659  0.5408  0.3725
  145SAPE   H5X15994  -0.012   0.078   9.659 -0.0966  0.5056 -1.4772
  145SAPE   H5Y15995   0.107   0.205   9.617  0.3593 -1.9093  0.2372
  145SAPE   C3615996  -0.094   0.246   9.554  0.3680 -0.4256 -0.0229
  145SAPE   H6X15997  -0.091   0.357   9.561 -1.5864 -0.2668 -1.0271
  145SAPE   H6Y15998  -0.198   0.216   9.579  0.9139 -3.1822 -0.6996
  145SAPE   C3715999  -0.065   0.205   9.408  0.6594 -0.1624 -0.3063
  145SAPE   H7X16000  -0.029   0.100   9.404  2.2130  0.3528 -0.1602
  145SAPE   H7Y16001   0.022   0.269   9.383  0.1542  1.2226  1.3237
  145SAPE   C3816002  -0.179   0.226   9.313  1.6806 -0.2408  0.2173
  145SAPE   H8X16003  -0.223   0.327   9.326 -0.3286 -1.3184  2.6470
  145SAPE   H8Y16004  -0.253   0.144   9.328  1.1338  0.4351  1.3054
  145SAPE   C3916005  -0.136   0.218   9.164  0.3818  0.3141 -0.2920
  145SAPE   H9X16006  -0.161   0.113   9.140  1.0366  0.0960 -0.0477
  145SAPE   H9Y16007  -0.027   0.218   9.143  0.0890 -1.1350 -2.0580
  145SAPE  C31016008  -0.206   0.297   9.056  0.9912  0.1689  0.0401
  145SAPE  H10X16009  -0.173   0.403   9.062  0.1139  0.4347  0.3586
  145SAPE  H10Y16010  -0.316   0.300   9.072  0.9198 -0.9964 -0.1727
  145SAPE  C31116011  -0.187   0.229   8.918  0.4256  0.4688  0.6355
  145SAPE  H11X16012  -0.228   0.126   8.929  0.8013  0.2055 -0.3058
  145SAPE  H11Y16013  -0.078   0.238   8.898  0.3504  1.1990  0.5185
  145SAPE  C31216014  -0.246   0.320   8.806  0.6422  0.6145 -0.4089
  145SAPE  H12X16015  -0.216   0.288   8.704 -2.5073 -1.4622 -0.8047
  145SAPE  H12Y16016  -0.229   0.428   8.828  1.7481  0.0703  1.7093
  145SAPE  C31316017  -0.403   0.306   8.796  0.5015  0.2853  0.2007
  145SAPE  H13X16018  -0.449   0.328   8.895  1.2505  0.5746  0.4931
  145SAPE  H13Y16019  -0.426   0.204   8.761  1.2803  0.4464 -0.8378
  145SAPE  C31416020  -0.455   0.405   8.690 -0.2923  0.4079 -0.4896
  145SAPE  H14X16021  -0.386   0.392   8.604 -0.9147 -0.1275 -0.9151
  145SAPE  H14Y16022  -0.433   0.507   8.729  0.4746  1.4487 -3.3704
  145SAPE  C31516023  -0.604   0.366   8.654 -0.6690 -0.1692  0.0793
  145SAPE  H15X16024  -0.600   0.263   8.612  1.2096 -0.3561  0.6279
  145SAPE  H15Y16025  -0.634   0.440   8.577  1.6657 -0.9105 -1.6364
  145SAPE  C31616026  -0.716   0.371   8.766  0.4653  0.7441  0.0443
  145SAPE  H16X16027  -0.726   0.476   8.799 -1.8624  0.6685 -0.2159
  145SAPE  H16Y16028  -0.695   0.292   8.841  0.5426  0.7041 -0.0193
  145SAPE  C31716029  -0.853   0.334   8.707  0.5561  0.5854  1.0029
  145SAPE  H17X16030  -0.879   0.227   8.722 -0.8112  1.0625  2.3149
  145SAPE  H17Y16031  -0.867   0.363   8.601  2.4877 -0.7437  0.3245
  145SAPE  C31816032  -0.972   0.411   8.766 -1.0991  0.2372 -0.3097
  145SAPE  H18X16033  -1.073   0.380   8.733 -1.3422  1.0210 -0.3074
  145SAPE  H18Y16034  -0.949   0.519   8.752  2.2863 -0.1046  1.4366
  145SAPE  H18Z16035  -0.975   0.388   8.875 -0.7182 -2.4158 -0.7961
  146SAPE     N16036   6.382   6.550  10.840 -0.2329  0.4458  0.5130
  146SAPE   HN116037   6.459   6.489  10.875  1.2042  1.8709 -0.0276
  146SAPE   HN216038   6.383   6.646  10.880  0.6215 -0.0256  1.6788
  146SAPE   HN316039   6.288   6.513  10.862  0.0855  0.0821  1.2799
  146SAPE   C1216040   6.392   6.568  10.689  0.0650 -0.1895  0.3659
  146SAPE  H12A16041   6.495   6.596  10.659 -0.1674  1.3353  0.9179
  146SAPE  H12B16042   6.337   6.661  10.665  0.5382 -0.3203 -1.3584
  146SAPE   C1116043   6.346   6.442  10.624 -0.1322 -0.7830  0.8194
  146SAPE  H11A16044   6.345   6.456  10.513 -1.0534  2.6737  1.1687
  146SAPE  H11B16045   6.238   6.427  10.645 -0.6599 -1.6436 -2.0114
  146SAPE     P16046   6.558   6.280  10.606  0.3533  0.6376 -0.2006
  146SAPE   O1316047   6.651   6.390  10.638 -0.1950 -0.1139 -0.1085
  146SAPE   O1416048   6.598   6.146  10.651  0.1858 -0.1181 -0.5207
  146SAPE   O1216049   6.421   6.326  10.670  0.5443  0.5074 -0.3888
  146SAPE   O1116050   6.535   6.273  10.449 -0.3121  0.0014  0.0177
  146SAPE    C116051   6.429   6.201  10.391  0.7488  0.1524  0.0871
  146SAPE    HA16052   6.438   6.090  10.394  0.8986  0.1063 -1.3736
  146SAPE    HB16053   6.330   6.220  10.438  0.0803 -2.1795 -0.2513
  146SAPE    C216054   6.423   6.223  10.237 -0.2495  0.8365  0.6186
  146SAPE    HS16055   6.342   6.170  10.184  1.2471 -2.1109  1.0809
  146SAPE   O2116056   6.554   6.179  10.184 -0.3246 -0.6304  0.0519
  146SAPE   C2116057   6.581   6.056  10.179  0.1380 -0.2773  0.6205
  146SAPE   O2216058   6.506   5.964  10.221 -0.4791 -0.7382  0.5064
  146SAPE   C2216059   6.730   6.039  10.138  0.2833 -0.8399  0.6937
  146SAPE   H2R16060   6.797   6.097  10.205  2.0163 -1.1262 -0.7276
  146SAPE   H2S16061   6.747   5.929  10.143 -0.6764 -1.0075  0.4089
  146SAPE    C316062   6.414   6.373  10.201  0.4617  0.7733 -0.7489
  146SAPE    HX16063   6.511   6.421  10.229  0.1722  2.4690 -2.4089
  146SAPE    HY16064   6.330   6.416  10.259  0.8399  2.2218 -1.2315
  146SAPE   O3116065   6.393   6.393  10.063  0.9115  0.3775 -0.1701
  146SAPE   C3116066   6.288   6.332  10.001  0.8300 -0.3039 -0.3235
  146SAPE   O3216067   6.188   6.289  10.060 -0.7245 -0.5983  0.3220
  146SAPE   C3216068   6.304   6.342   9.847 -0.4560  0.0890 -0.3573
  146SAPE   H2X16069   6.398   6.289   9.823 -0.3243  0.4039 -0.5422
  146SAPE   H2Y16070   6.330   6.449   9.837  1.6482 -0.2988  0.6209
  146SAPE   C2316071   6.745   6.069   9.983 -0.4548  0.2587  0.5392
  146SAPE   H3R16072   6.853   6.087   9.966  0.1730 -0.5800  3.1700
  146SAPE   H3S16073   6.695   6.166   9.965 -2.3086 -1.2837 -4.0782
  146SAPE   C2416074   6.709   5.957   9.889  0.8485 -0.1367  0.5283
  146SAPE   H4R16075   6.600   5.932   9.895  0.9399 -0.3907  1.2941
  146SAPE   H4S16076   6.765   5.863   9.906 -0.7722 -1.1050  0.7538
  146SAPE   C2516077   6.750   5.995   9.746 -0.1302  0.0312 -1.1569
  146SAPE   H5R16078   6.858   6.010   9.737  0.6686 -2.7004  1.8177
  146SAPE   C2616079   6.671   6.012   9.640 -0.6232 -0.2337  0.1065
  146SAPE   H6R16080   6.721   6.039   9.545 -2.2320  0.7658 -0.5039
  146SAPE   C2716081   6.524   6.004   9.638 -0.3372  0.1919 -0.2338
  146SAPE   H7R16082   6.485   6.021   9.741  0.7590 -2.1065  0.6304
  146SAPE   H7S16083   6.497   5.899   9.614 -1.5102  0.6813 -1.1220
  146SAPE   C2816084   6.460   6.094   9.540 -0.4620 -0.4532 -0.3568
  146SAPE   H8R16085   6.410   6.176   9.593  1.0392 -0.2474  0.8090
  146SAPE   C2916086   6.453   6.086   9.409 -0.0175  0.5435 -0.8185
  146SAPE   H9R16087   6.403   6.164   9.349 -1.5556  0.1071 -0.1523
  146SAPE  C21016088   6.525   5.984   9.319 -0.5316 -0.7882 -0.0109
  146SAPE  H10R16089   6.549   5.895   9.381 -0.4065 -0.7921 -0.0647
  146SAPE  H10S16090   6.620   6.025   9.280 -1.4998  0.4066 -1.2282
  146SAPE  C21116091   6.435   5.953   9.201 -0.2817  0.1823  0.1312
  146SAPE  H11R16092   6.362   5.873   9.220 -1.0892  1.0590  0.7857
  146SAPE  C21216093   6.405   6.027   9.087 -0.2377  0.4999  0.2864
  146SAPE  H12R16094   6.345   5.977   9.010 -0.2759 -1.8074  1.6977
  146SAPE  C21316095   6.474   6.153   9.056 -0.1034 -0.3910  0.5729
  146SAPE  H13R16096   6.580   6.128   9.081 -0.7096 -2.1820  1.5923
  146SAPE  H13S16097   6.440   6.232   9.126 -1.3577 -0.4426  0.0480
  146SAPE  C21416098   6.488   6.199   8.910  0.5909 -0.1386 -0.7644
  146SAPE  H14R16099   6.474   6.124   8.831 -2.6887 -1.5473  0.9478
  146SAPE  C21516100   6.527   6.322   8.884  0.0103  0.5018  0.0431
  146SAPE  H15R16101   6.535   6.336   8.775 -2.1626 -1.9127 -0.5320
  146SAPE  C21616102   6.563   6.440   8.965  0.8020 -0.5757 -0.4676
  146SAPE  H16R16103   6.563   6.404   9.070 -0.0340 -0.7882 -0.5281
  146SAPE  H16S16104   6.482   6.516   8.965  0.3669 -0.8129  4.0877
  146SAPE  C21716105   6.693   6.504   8.930  0.1322 -0.1639  0.4640
  146SAPE  H17R16106   6.773   6.429   8.912 -0.0814 -0.0153 -1.3060
  146SAPE  H17S16107   6.731   6.567   9.012  0.4004  1.1383 -0.6233
  146SAPE  C21816108   6.677   6.597   8.804  0.6309 -0.2445 -0.0577
  146SAPE  H18R16109   6.669   6.703   8.837 -0.1422  0.0257 -1.0465
  146SAPE  H18S16110   6.587   6.563   8.749  2.1226 -1.3718 -1.9634
  146SAPE  C21916111   6.798   6.600   8.711 -0.6642  0.1877  0.0413
  146SAPE  H19R16112   6.829   6.497   8.683 -0.2042  0.7913 -1.8016
  146SAPE  H19S16113   6.883   6.638   8.772  0.3201 -2.4089  0.4157
  146SAPE  C22016114   6.768   6.678   8.578  0.2996  0.0495 -0.4452
  146SAPE  H20R16115   6.863   6.698   8.523  1.2106 -1.4007  0.5295
  146SAPE  H20S16116   6.706   6.769   8.592  1.4200  0.7002  0.4421
  146SAPE  H20T16117   6.718   6.616   8.500  0.0929  1.9761 -1.9119
  146SAPE   C3316118   6.180   6.311   9.761 -0.3357  0.8541 -0.0496
  146SAPE   H3X16119   6.088   6.340   9.816  0.7293 -0.8120  2.8270
  146SAPE   H3Y16120   6.186   6.201   9.751 -0.0281  0.8601  0.0629
  146SAPE   C3416121   6.193   6.382   9.621  0.0273 -0.3552 -0.3255
  146SAPE   H4X16122   6.284   6.349   9.566  1.4529  0.5980  1.3846
  146SAPE   H4Y16123   6.195   6.493   9.628 -3.9756 -0.2303  2.2174
  146SAPE   C3516124   6.076   6.347   9.532 -0.0734 -0.4852  0.4879
  146SAPE   H5X16125   5.981   6.379   9.580 -0.7358 -1.8174  0.1019
  146SAPE   H5Y16126   6.081   6.237   9.525  0.2748 -0.5524  1.6100
  146SAPE   C3616127   6.070   6.396   9.388  0.9478 -0.2511 -0.2006
  146SAPE   H6X16128   6.047   6.505   9.391 -0.1033 -0.4989  1.5897
  146SAPE   H6Y16129   5.977   6.347   9.351  0.5805 -0.6632  1.2369
  146SAPE   C3716130   6.184   6.363   9.289 -0.8576 -0.8839 -0.0365
  146SAPE   H7X16131   6.218   6.257   9.294  1.7116 -0.2568 -2.0035
  146SAPE   H7Y16132   6.275   6.419   9.318 -1.1566 -0.5333  0.2314
  146SAPE   C3816133   6.150   6.376   9.135 -0.0403  0.0291  0.4320
  146SAPE   H8X16134   6.247   6.401   9.088 -0.2373  0.2613  0.1486
  146SAPE   H8Y16135   6.086   6.465   9.117  1.2973  0.7190 -1.1586
  146SAPE   C3916136   6.100   6.252   9.059  0.3290  0.2755  0.0926
  146SAPE   H9X16137   6.008   6.208   9.102  0.3592  0.9361  0.8546
  146SAPE   H9Y16138   6.181   6.177   9.069  0.3585 -0.0043 -1.8226
  146SAPE  C31016139   6.079   6.274   8.907 -0.0964  0.3958  0.2032
  146SAPE  H10X16140   6.050   6.175   8.867  2.8175 -0.4466 -0.0368
  146SAPE  H10Y16141   6.168   6.320   8.860 -0.8393  0.8221 -0.8430
  146SAPE  C31116142   5.955   6.365   8.863  0.0991 -0.1930  0.1643
  146SAPE  H11X16143   5.946   6.456   8.926  0.3113 -0.4852  0.6219
  146SAPE  H11Y16144   5.867   6.299   8.879 -0.1260 -0.3793 -1.6361
  146SAPE  C31216145   5.953   6.392   8.710 -0.2993  0.0111 -0.1582
  146SAPE  H12X16146   6.046   6.446   8.682 -0.3166  0.9666  1.5341
  146SAPE  H12Y16147   5.874   6.467   8.689 -0.7550 -0.5914 -0.6537
  146SAPE  C31316148   5.937   6.262   8.623  0.0817  0.7360  0.8237
  146SAPE  H13X16149   5.888   6.179   8.678 -0.0260 -0.9395 -1.5948
  146SAPE  H13Y16150   6.038   6.221   8.597  0.3563  1.6756  0.3441
  146SAPE  C31416151   5.850   6.295   8.493 -0.3582 -0.1289 -0.7897
  146SAPE  H14X16152   5.918   6.358   8.431 -1.2457 -0.0414 -1.6931
  146SAPE  H14Y16153   5.757   6.353   8.508 -0.5841 -1.1310  2.6434
  146SAPE  C31516154   5.820   6.177   8.401  0.3184  0.5278  0.0674
  146SAPE  H15X16155   5.908   6.113   8.378  0.3072  0.7030 -0.4756
  146SAPE  H15Y16156   5.802   6.209   8.296  1.6229 -0.6644 -0.5586
  146SAPE  C31616157   5.700   6.089   8.448  0.6561 -0.1718  0.0345
  146SAPE  H16X16158   5.604   6.135   8.417  1.1992 -0.1288 -1.7040
  146SAPE  H16Y16159   5.695   6.075   8.558 -2.0310 -0.8634 -0.1107
  146SAPE  C31716160   5.691   5.955   8.379  0.1783 -0.2700 -0.1941
  146SAPE  H17X16161   5.726   5.975   8.275  0.0581  0.3116 -0.1239
  146SAPE  H17Y16162   5.587   5.917   8.378  0.2143 -0.3809  0.1895
  146SAPE  C31816163   5.781   5.848   8.440 -0.2396 -0.7277  0.1306
  146SAPE  H18X16164   5.727   5.812   8.530 -0.3718 -0.7167  0.0563
  146SAPE  H18Y16165   5.880   5.888   8.473  0.2403 -0.0396 -1.9913
  146SAPE  H18Z16166   5.794   5.766   8.366  0.9465  0.7744 -1.4216
  147SAPE     N16167   0.334   2.705  11.050 -0.2213 -0.5208 -0.1912
  147SAPE   HN116168   0.246   2.683  11.101 -0.6159  0.7062 -0.3076
  147SAPE   HN216169   0.316   2.785  10.985  0.1611 -0.3812 -0.1307
  147SAPE   HN316170   0.359   2.621  10.993  4.1321  0.3257  0.1216
  147SAPE   C1216171   0.459   2.726  11.140  0.8022 -0.0432  0.1100
  147SAPE  H12A16172   0.465   2.650  11.221  3.7195  0.9377  0.9083
  147SAPE  H12B16173   0.450   2.825  11.189  2.3290 -1.0047  2.5358
  147SAPE   C1116174   0.587   2.720  11.059 -0.1568  0.0338  0.9796
  147SAPE  H11A16175   0.661   2.751  11.137 -1.7290  3.8899  1.1712
  147SAPE  H11B16176   0.579   2.808  10.991 -1.3008  1.6212  3.0321
  147SAPE     P16177   0.682   2.558  10.868  0.0755  0.2419 -0.3067
  147SAPE   O1316178   0.821   2.613  10.882 -0.4746 -0.0731  0.3891
  147SAPE   O1416179   0.663   2.412  10.852  0.4459 -0.1992  0.2543
  147SAPE   O1216180   0.606   2.596  11.006 -0.4301  0.1266  0.4245
  147SAPE   O1116181   0.603   2.644  10.765  0.0975 -0.2218 -0.0168
  147SAPE    C116182   0.665   2.758  10.697 -0.0546  0.9538  1.3210
  147SAPE    HA16183   0.588   2.837  10.685 -1.6858 -0.8054 -0.6295
  147SAPE    HB16184   0.745   2.813  10.749  1.3190  1.3917 -1.0993
  147SAPE    C216185   0.706   2.724  10.547  0.3098 -0.3763  0.1746
  147SAPE    HS16186   0.694   2.822  10.495 -1.5482  0.2474  1.6380
  147SAPE   O2116187   0.618   2.618  10.497 -0.3834 -0.7648 -0.4473
  147SAPE   C2116188   0.501   2.660  10.453 -0.8417 -0.0838  0.2422
  147SAPE   O2216189   0.474   2.777  10.434 -0.4663  0.4564 -0.4239
  147SAPE   C2216190   0.411   2.538  10.429 -0.8575 -0.2135  0.9719
  147SAPE   H2R16191   0.400   2.493  10.530 -2.7473  1.8547  1.7739
  147SAPE   H2S16192   0.312   2.572  10.391  0.2541  0.2210 -1.7362
  147SAPE    C316193   0.855   2.675  10.546 -0.1382  0.3738  0.5439
  147SAPE    HX16194   0.865   2.574  10.593 -0.5726 -0.1586 -0.4705
  147SAPE    HY16195   0.895   2.742  10.625  0.5713  1.0077 -0.3524
  147SAPE   O3116196   0.924   2.683  10.416  0.1936  0.3562  0.0747
  147SAPE   C3116197   1.027   2.592  10.386 -0.2946  0.4913 -0.0638
  147SAPE   O3216198   1.070   2.509  10.460 -0.5160  0.2144  0.0479
  147SAPE   C3216199   1.089   2.648  10.258 -0.2224  0.5514  0.4919
  147SAPE   H2X16200   1.178   2.709  10.284  0.5751  0.0368 -0.9218
  147SAPE   H2Y16201   1.016   2.709  10.200  1.0018 -1.1716 -3.1573
  147SAPE   C2316202   0.462   2.440  10.323  0.2850 -0.2463 -0.1965
  147SAPE   H3R16203   0.424   2.337  10.341 -0.7965  0.1358 -0.2246
  147SAPE   H3S16204   0.569   2.426  10.349 -0.2556  0.3029  2.6735
  147SAPE   C2416205   0.429   2.470  10.175  0.4044 -0.6933 -0.7477
  147SAPE   H4R16206   0.332   2.524  10.182  0.8142 -0.1206  2.0435
  147SAPE   H4S16207   0.412   2.370  10.131 -2.0994  0.3164 -2.2878
  147SAPE   C2516208   0.547   2.551  10.114  0.4820 -0.2113 -0.4603
  147SAPE   H5R16209   0.586   2.634  10.174 -1.8694  1.1244 -0.6527
  147SAPE   C2616210   0.601   2.524   9.992  0.4775  0.7385  0.0127
  147SAPE   H6R16211   0.685   2.587   9.960 -1.8938  3.2589 -1.6856
  147SAPE   C2716212   0.573   2.422   9.891  0.5639  0.9562 -0.2804
  147SAPE   H7R16213   0.512   2.339   9.934 -1.2153  2.2066 -0.2619
  147SAPE   H7S16214   0.673   2.387   9.859  0.4623  0.8397 -0.4754
  147SAPE   C2816215   0.490   2.480   9.777  0.4813  1.2320  0.7547
  147SAPE   H8R16216   0.393   2.521   9.807 -0.8973 -1.4902  0.3613
  147SAPE   C2916217   0.519   2.489   9.645  0.2492  0.2096  0.1946
  147SAPE   H9R16218   0.447   2.540   9.580 -0.0076 -0.5022 -0.0891
  147SAPE  C21016219   0.643   2.445   9.576 -0.3076  0.2274 -0.3634
  147SAPE  H10R16220   0.713   2.397   9.648  0.2413 -0.8477 -1.5784
  147SAPE  H10S16221   0.706   2.534   9.556  1.8850 -0.8438  1.2369
  147SAPE  C21116222   0.623   2.362   9.457 -0.1135  0.0197 -0.8584
  147SAPE  H11R16223   0.555   2.276   9.468 -0.8935  0.8420  1.0644
  147SAPE  C21216224   0.676   2.371   9.333 -0.0875 -0.5496  0.5614
  147SAPE  H12R16225   0.655   2.312   9.243  5.0763  0.3092 -1.5761
  147SAPE  C21316226   0.782   2.464   9.288 -0.0213  0.0232 -0.4864
  147SAPE  H13R16227   0.835   2.508   9.375 -1.6205 -1.6130  1.4222
  147SAPE  H13S16228   0.725   2.546   9.239 -2.8176 -0.8425  1.0720
  147SAPE  C21416229   0.890   2.388   9.211  0.0625 -0.6011  0.3059
  147SAPE  H14R16230   0.960   2.327   9.270 -2.2448 -2.7042  1.0488
  147SAPE  C21516231   0.902   2.376   9.075 -0.5390 -0.0294 -1.2685
  147SAPE  H15R16232   0.986   2.313   9.041 -0.4788 -1.9253  2.0039
  147SAPE  C21616233   0.823   2.437   8.969  0.6577 -0.0212 -0.4289
  147SAPE  H16R16234   0.731   2.470   9.022  0.6365  0.8794 -1.0181
  147SAPE  H16S16235   0.794   2.364   8.890 -1.6520  0.8575 -0.4788
  147SAPE  C21716236   0.878   2.561   8.902  0.2793  0.3026  0.0142
  147SAPE  H17R16237   0.902   2.621   8.992 -2.9521 -0.5369  1.5691
  147SAPE  H17S16238   0.800   2.615   8.845  1.0911 -0.1414 -1.5857
  147SAPE  C21816239   0.997   2.532   8.807 -0.2555 -0.2094 -0.0280
  147SAPE  H18R16240   1.083   2.491   8.864 -1.1250 -1.0259  0.7115
  147SAPE  H18S16241   1.038   2.628   8.767  1.5519 -0.8767  0.1468
  147SAPE  C21916242   0.968   2.430   8.697  0.1724 -0.5585  0.0923
  147SAPE  H19R16243   0.889   2.476   8.633  1.2698 -0.1381 -0.9851
  147SAPE  H19S16244   0.915   2.336   8.727 -1.5013 -0.2896 -1.8006
  147SAPE  C22016245   1.084   2.396   8.598  0.2479  0.1258  0.2526
  147SAPE  H20R16246   1.169   2.344   8.646 -0.0912  0.6052  1.4057
  147SAPE  H20S16247   1.137   2.491   8.580 -2.6557  1.5941 -1.3169
  147SAPE  H20T16248   1.032   2.339   8.517  0.3956  0.6959 -0.2483
  147SAPE   C3316249   1.143   2.529  10.170 -0.6020 -0.3308  0.5874
  147SAPE   H3X16250   1.078   2.438  10.172 -1.3448  0.1703 -0.3092
  147SAPE   H3Y16251   1.236   2.492  10.218  1.7801  1.6608 -2.1544
  147SAPE   C3416252   1.181   2.563  10.028 -0.5738 -0.5592 -0.5758
  147SAPE   H4X16253   1.276   2.507  10.014  1.0426  1.1589  2.6501
  147SAPE   H4Y16254   1.214   2.668  10.035  0.6636 -0.9991  0.7961
  147SAPE   C3516255   1.078   2.558   9.916 -0.6783 -0.1536  0.4557
  147SAPE   H5X16256   0.994   2.629   9.929 -0.5781  0.0100  0.2143
  147SAPE   H5Y16257   1.035   2.457   9.901 -0.3686 -0.4345  1.3848
  147SAPE   C3616258   1.136   2.610   9.781 -0.2381 -0.0945  0.6094
  147SAPE   H6X16259   1.221   2.550   9.744  0.1229  0.5443  0.3911
  147SAPE   H6Y16260   1.185   2.709   9.797  1.3328 -0.2128 -2.6847
  147SAPE   C3716261   1.024   2.643   9.676  0.1848  0.3604 -0.4974
  147SAPE   H7X16262   0.972   2.740   9.689 -1.6489  0.1612 -4.7378
  147SAPE   H7Y16263   0.954   2.558   9.661 -1.9204  1.5905  1.5407
  147SAPE   C3816264   1.088   2.675   9.537 -0.1596 -0.1593  0.5495
  147SAPE   H8X16265   1.178   2.741   9.541 -0.9167  0.8471  1.6511
  147SAPE   H8Y16266   1.010   2.731   9.481  0.2776  0.3904  0.4792
  147SAPE   C3916267   1.151   2.556   9.458  0.3984  0.9585  0.3370
  147SAPE   H9X16268   1.076   2.479   9.430  1.1332  0.1820  0.4805
  147SAPE   H9Y16269   1.228   2.510   9.522  0.4320 -0.1941 -0.5031
  147SAPE  C31016270   1.208   2.613   9.322  0.3113  0.6596  0.0118
  147SAPE  H10X16271   1.299   2.674   9.340 -0.1235  1.5725 -0.7495
  147SAPE  H10Y16272   1.130   2.673   9.270  0.7674  1.5914  0.3780
  147SAPE  C31116273   1.267   2.496   9.239  0.1042 -0.3064 -0.1581
  147SAPE  H11X16274   1.188   2.424   9.209  1.9032 -1.4944 -2.3782
  147SAPE  H11Y16275   1.340   2.434   9.296  0.3525  0.0115 -0.1278
  147SAPE  C31216276   1.333   2.543   9.108  0.1825 -1.0917 -1.4439
  147SAPE  H12X16277   1.413   2.618   9.125 -1.1799 -0.0926  0.9550
  147SAPE  H12Y16278   1.251   2.583   9.045 -1.0603 -0.9645  0.1867
  147SAPE  C31316279   1.406   2.437   9.034  0.1563  0.1537 -0.4683
  147SAPE  H13X16280   1.343   2.346   9.024  1.2998 -0.9025  1.4063
  147SAPE  H13Y16281   1.484   2.395   9.100 -2.1717 -2.7409  0.6751
  147SAPE  C31416282   1.470   2.489   8.905 -0.5423 -0.1791 -0.7926
  147SAPE  H14X16283   1.538   2.574   8.925  0.2097 -0.2921 -2.6524
  147SAPE  H14Y16284   1.389   2.524   8.838 -1.4151 -3.3515 -1.5840
  147SAPE  C31516285   1.557   2.386   8.841  0.2580  0.0249 -0.0131
  147SAPE  H15X16286   1.503   2.289   8.850  0.3274  0.1326  2.0668
  147SAPE  H15Y16287   1.648   2.379   8.905 -0.7993  3.3115  2.0938
  147SAPE  C31616288   1.593   2.420   8.702 -1.2454 -0.9472 -0.9482
  147SAPE  H16X16289   1.499   2.415   8.642  0.3398  0.9541 -3.8678
  147SAPE  H16Y16290   1.660   2.348   8.651  1.7003  1.3609 -0.5485
  147SAPE  C31716291   1.653   2.558   8.687 -0.0410  0.1168 -0.2591
  147SAPE  H17X16292   1.757   2.569   8.725 -0.2155  0.6767  0.0609
  147SAPE  H17Y16293   1.590   2.634   8.737  1.7681  0.5731  1.4692
  147SAPE  C31816294   1.648   2.599   8.532  0.1190  0.2417  0.7549
  147SAPE  H18X16295   1.698   2.698   8.533 -1.1586  0.9434  3.0201
  147SAPE  H18Y16296   1.542   2.619   8.504  0.6418 -0.1295 -1.7432
  147SAPE  H18Z16297   1.695   2.526   8.463  1.7857  1.5008  0.4972
  148SAPE     N16298   1.529   4.576  10.512  0.0754 -0.1718 -0.7858
  148SAPE   HN116299   1.619   4.529  10.532  0.0549  0.3169  0.5650
  148SAPE   HN216300   1.516   4.648  10.586  2.7919  0.1843 -0.5579
  148SAPE   HN316301   1.454   4.504  10.510  0.5471 -0.6651 -1.3801
  148SAPE   C1216302   1.551   4.642  10.381  0.0412 -0.4359  0.0837
  148SAPE  H12A16303   1.468   4.715  10.370  0.4659  0.4300  2.2397
  148SAPE  H12B16304   1.551   4.564  10.302  0.5008  0.1880 -0.5366
  148SAPE   C1116305   1.684   4.724  10.388  1.1925  0.3924 -0.5773
  148SAPE  H11A16306   1.677   4.783  10.482  0.0273  0.0723 -0.4509
  148SAPE  H11B16307   1.697   4.787  10.297  1.9385  0.1938 -0.6146
  148SAPE     P16308   1.905   4.619  10.303  0.5266  0.0131  0.1681
  148SAPE   O1316309   1.956   4.752  10.273 -0.3526 -0.2335  0.2047
  148SAPE   O1416310   1.996   4.509  10.342 -0.3856 -0.2026  0.5380
  148SAPE   O1216311   1.788   4.633  10.412  0.0195 -0.5279  0.7533
  148SAPE   O1116312   1.810   4.573  10.183 -0.5989  0.2447  0.7475
  148SAPE    C116313   1.824   4.645  10.062 -0.1443 -0.0966 -0.3601
  148SAPE    HA16314   1.764   4.738  10.070 -1.1791 -0.8766  1.9015
  148SAPE    HB16315   1.930   4.672  10.040 -0.6006  0.3809 -2.0960
  148SAPE    C216316   1.801   4.560   9.935  0.2511 -0.0206  0.5094
  148SAPE    HS16317   1.697   4.522   9.933  0.6285 -1.0652 -1.5172
  148SAPE   O2116318   1.898   4.449   9.936  0.0938  0.0311 -0.0693
  148SAPE   C2116319   1.866   4.352   9.841 -0.3841  0.5302 -0.3706
  148SAPE   O2216320   1.764   4.340   9.778 -0.0272 -0.4410  0.9120
  148SAPE   C2216321   1.974   4.247   9.842 -0.6624 -0.2378 -0.0997
  148SAPE   H2R16322   2.069   4.304   9.828 -1.3087  0.7822 -0.4556
  148SAPE   H2S16323   1.991   4.207   9.945  1.7756  1.5637  0.3003
  148SAPE    C316324   1.823   4.658   9.817  0.7641 -0.1007 -0.0152
  148SAPE    HX16325   1.933   4.667   9.809  1.2515 -2.7102  2.2873
  148SAPE    HY16326   1.777   4.759   9.828  0.4469  0.1543 -2.9535
  148SAPE   O3116327   1.792   4.600   9.687 -0.0610  0.4848  0.3571
  148SAPE   C3116328   1.664   4.597   9.658  0.3789 -0.5054  0.1394
  148SAPE   O3216329   1.571   4.628   9.734  0.0552  0.0055  0.5924
  148SAPE   C3216330   1.636   4.552   9.517 -0.3091  0.4185  0.2420
  148SAPE   H2X16331   1.719   4.495   9.469  0.4637  1.0436  0.8029
  148SAPE   H2Y16332   1.618   4.640   9.452 -0.2275  0.1512 -0.1455
  148SAPE   C2316333   1.970   4.141   9.731 -0.4393  0.5095  0.6902
  148SAPE   H3R16334   1.984   4.191   9.632  2.4300 -0.0968  0.7032
  148SAPE   H3S16335   1.870   4.095   9.741 -1.4986  2.8509  1.7475
  148SAPE   C2416336   2.090   4.041   9.725  0.1844  0.2483 -0.3413
  148SAPE   H4R16337   2.179   4.089   9.679  2.2844 -1.0912  2.0823
  148SAPE   H4S16338   2.058   3.963   9.653 -0.1010 -1.9397  2.0069
  148SAPE   C2516339   2.135   3.976   9.857 -0.6569  0.3311 -0.8476
  148SAPE   H5R16340   2.185   4.041   9.931 -0.3822  0.7459 -1.3939
  148SAPE   C2616341   2.128   3.841   9.882 -0.3206 -0.2866  0.0796
  148SAPE   H6R16342   2.139   3.811   9.987  0.4289  0.2217  0.1540
  148SAPE   C2716343   2.070   3.730   9.792 -0.0337 -0.6784 -1.0080
  148SAPE   H7R16344   2.003   3.774   9.715  0.9670  1.3289 -0.8000
  148SAPE   H7S16345   2.017   3.652   9.850 -1.0296  1.1797  0.7166
  148SAPE   C2816346   2.185   3.659   9.719 -0.0809 -0.3380  0.3785
  148SAPE   H8R16347   2.280   3.651   9.774 -0.3738 -0.2849  0.8869
  148SAPE   C2916348   2.179   3.611   9.592 -0.4777 -0.4059 -0.0077
  148SAPE   H9R16349   2.262   3.545   9.561  1.2631  2.2206 -1.3049
  148SAPE  C21016350   2.075   3.605   9.486 -0.6189  0.0698  0.5597
  148SAPE  H10R16351   1.971   3.600   9.525 -1.3784 -1.2379 -1.4407
  148SAPE  H10S16352   2.089   3.508   9.434  1.0612 -0.2885  1.6203
  148SAPE  C21116353   2.094   3.717   9.387  0.1801 -0.3883 -0.4711
  148SAPE  H11R16354   2.110   3.819   9.427 -1.3302 -0.2088 -0.2614
  148SAPE  C21216355   2.081   3.711   9.254 -0.3729 -0.9510 -0.0109
  148SAPE  H12R16356   2.118   3.797   9.197  3.1189 -2.2080  0.1170
  148SAPE  C21316357   2.043   3.587   9.174 -0.3429  0.1492  0.7536
  148SAPE  H13R16358   1.982   3.518   9.236 -1.6455  1.7171  1.3189
  148SAPE  H13S16359   2.127   3.524   9.138 -1.1924 -0.7810  0.3764
  148SAPE  C21416360   1.954   3.622   9.061 -0.8475 -1.3406  0.1109
  148SAPE  H14R16361   1.859   3.673   9.082  0.3890  0.6562  1.1894
  148SAPE  C21516362   1.977   3.593   8.933  0.0212 -0.2356 -0.3658
  148SAPE  H15R16363   1.904   3.625   8.857 -0.4983 -1.8760 -0.6050
  148SAPE  C21616364   2.095   3.515   8.883  0.4136  0.5931  0.0870
  148SAPE  H16R16365   2.096   3.421   8.942  2.9038  0.5849  0.1264
  148SAPE  H16S16366   2.196   3.559   8.893 -0.5471  3.1030 -0.4035
  148SAPE  C21716367   2.080   3.471   8.742  0.2657 -0.4462  0.3354
  148SAPE  H17R16368   1.976   3.445   8.714 -0.3738  2.0637  0.1649
  148SAPE  H17S16369   2.150   3.388   8.715  0.2980 -0.2001 -0.3618
  148SAPE  C21816370   2.113   3.589   8.645  0.1160 -0.4386  0.0335
  148SAPE  H18R16371   2.041   3.672   8.663 -0.2839 -0.4531 -1.3885
  148SAPE  H18S16372   2.085   3.552   8.544  0.5934 -0.9028  0.0631
  148SAPE  C21916373   2.257   3.639   8.642  0.1915  0.0303  0.1564
  148SAPE  H19R16374   2.334   3.560   8.648 -0.2060 -0.3756 -0.0472
  148SAPE  H19S16375   2.275   3.712   8.724  1.3396  0.5093 -0.5036
  148SAPE  C22016376   2.281   3.727   8.517 -0.4615  0.2179  0.1914
  148SAPE  H20R16377   2.385   3.765   8.506  0.5020 -2.4879 -1.1974
  148SAPE  H20S16378   2.217   3.816   8.504  0.6753  0.8875 -1.1397
  148SAPE  H20T16379   2.275   3.658   8.429  2.7658 -0.6859  0.5495
  148SAPE   C3316380   1.512   4.466   9.486  0.0076  0.0508 -0.7585
  148SAPE   H3X16381   1.424   4.523   9.524 -0.4782 -0.9254 -0.3824
  148SAPE   H3Y16382   1.503   4.373   9.547 -3.1336  0.1363 -0.9082
  148SAPE   C3416383   1.505   4.433   9.335 -0.1624 -0.0142 -0.4141
  148SAPE   H4X16384   1.572   4.350   9.304 -0.8463  0.2728 -2.8256
  148SAPE   H4Y16385   1.547   4.517   9.275 -0.3740  0.8271  0.5800
  148SAPE   C3516386   1.366   4.416   9.284 -0.2158  0.2921 -0.4241
  148SAPE   H5X16387   1.297   4.501   9.304  2.1322  2.2749 -0.3168
  148SAPE   H5Y16388   1.326   4.327   9.336 -0.3263  1.1030  0.9291
  148SAPE   C3616389   1.351   4.385   9.140 -0.1893  0.1856 -0.2139
  148SAPE   H6X16390   1.385   4.474   9.082 -0.6239 -1.3111 -2.9245
  148SAPE   H6Y16391   1.243   4.380   9.114  0.2010  1.4528 -2.3951
  148SAPE   C3716392   1.421   4.256   9.091 -0.4458  0.5567  0.6763
  148SAPE   H7X16393   1.401   4.162   9.148  0.8960 -1.3834 -1.8395
  148SAPE   H7Y16394   1.525   4.282   9.120 -0.9870  2.6609  0.8710
  148SAPE   C3816395   1.406   4.233   8.942  0.2304 -0.0925 -0.0329
  148SAPE   H8X16396   1.308   4.182   8.932  0.2615 -0.1313 -0.1480
  148SAPE   H8Y16397   1.477   4.152   8.913 -1.4149 -1.0332 -1.6741
  148SAPE   C3916398   1.423   4.358   8.850 -0.1429 -0.1952  0.2732
  148SAPE   H9X16399   1.509   4.414   8.893 -1.3434  0.9565  1.2267
  148SAPE   H9Y16400   1.343   4.433   8.863  0.0374 -0.4202  3.6816
  148SAPE  C31016401   1.461   4.332   8.703  0.7903  0.2713 -0.9926
  148SAPE  H10X16402   1.563   4.287   8.692  1.3559  1.6864 -1.8518
  148SAPE  H10Y16403   1.456   4.423   8.639 -1.6491  0.3913 -0.7292
  148SAPE  C31116404   1.345   4.253   8.634 -0.5771 -0.0018  0.5384
  148SAPE  H11X16405   1.260   4.322   8.615 -1.0431 -0.9788 -1.0247
  148SAPE  H11Y16406   1.314   4.166   8.695 -1.6112 -0.3594 -0.4678
  148SAPE  C31216407   1.388   4.178   8.504  0.2182 -0.6375 -0.4603
  148SAPE  H12X16408   1.461   4.094   8.509  1.0161 -0.0671 -1.9148
  148SAPE  H12Y16409   1.435   4.263   8.449 -2.0772  1.3499  0.4674
  148SAPE  C31316410   1.264   4.137   8.422  0.0193  0.6508  0.1352
  148SAPE  H13X16411   1.297   4.118   8.318  0.4385 -0.9181  0.5280
  148SAPE  H13Y16412   1.199   4.227   8.418 -0.2290  0.4267 -1.1802
  148SAPE  C31416413   1.180   4.016   8.473  0.4230 -0.3055 -0.9703
  148SAPE  H14X16414   1.090   4.013   8.408 -1.0046 -0.7593  0.9136
  148SAPE  H14Y16415   1.143   4.021   8.578  0.0091  0.4242 -1.1454
  148SAPE  C31516416   1.258   3.890   8.458  0.4679 -0.5669  0.0383
  148SAPE  H15X16417   1.357   3.905   8.507 -0.1825  1.5856  0.8209
  148SAPE  H15Y16418   1.276   3.866   8.351 -0.3246 -1.4023  0.0821
  148SAPE  C31616419   1.191   3.762   8.514 -0.2533 -0.7625  0.2251
  148SAPE  H16X16420   1.269   3.684   8.531  0.6115 -0.4906 -2.1669
  148SAPE  H16Y16421   1.129   3.729   8.429  2.2698  2.0708 -2.9719
  148SAPE  C31716422   1.116   3.780   8.652  0.5428  0.6382 -0.3522
  148SAPE  H17X16423   1.015   3.826   8.646  0.0601 -0.0688  1.5583
  148SAPE  H17Y16424   1.176   3.837   8.726  1.2754 -2.2144  1.4311
  148SAPE  C31816425   1.090   3.643   8.716  0.4957 -0.2484  0.4667
  148SAPE  H18X16426   1.035   3.663   8.810 -0.0480 -0.6965  0.2514
  148SAPE  H18Y16427   1.182   3.581   8.716 -0.1650 -1.3007 -0.9843
  148SAPE  H18Z16428   1.027   3.577   8.653  2.6648 -0.4353 -1.6548
  149SAPE     N16429   4.023   0.160  11.243  0.2677 -0.6094  0.9107
  149SAPE   HN116430   3.996   0.081  11.182 -0.4133 -0.3557  0.8745
  149SAPE   HN216431   3.984   0.141  11.338 -2.6465  1.0062  0.1427
  149SAPE   HN316432   3.984   0.252  11.213  0.9091  0.1088  2.1400
  149SAPE   C1216433   4.172   0.168  11.270 -0.2595  0.3932  0.4953
  149SAPE  H12A16434   4.202   0.064  11.291 -1.7243  0.1455  1.5090
  149SAPE  H12B16435   4.189   0.236  11.356  2.0995  1.2377 -0.5389
  149SAPE   C1116436   4.254   0.204  11.145  0.5761 -0.3238  0.2269
  149SAPE  H11A16437   4.360   0.197  11.175  0.4788 -0.9559  0.4265
  149SAPE  H11B16438   4.239   0.313  11.129 -0.7364 -0.0290  2.8855
  149SAPE     P16439   4.312   0.088  10.908 -0.2877 -0.3142 -0.3978
  149SAPE   O1316440   4.422   0.186  10.898  0.2449  0.0023 -0.2353
  149SAPE   O1416441   4.339  -0.055  10.889 -0.1259 -0.5444  0.4202
  149SAPE   O1216442   4.231   0.110  11.042 -0.2293 -0.1009  0.0402
  149SAPE   O1116443   4.208   0.134  10.798  0.0039 -0.8624 -0.2029
  149SAPE    C116444   4.067   0.112  10.805  0.1248  0.1037  0.3881
  149SAPE    HA16445   4.035   0.074  10.905 -0.1138 -3.0768 -0.7791
  149SAPE    HB16446   4.020   0.209  10.778 -0.5596 -0.4551 -0.4722
  149SAPE    C216447   4.020   0.014  10.695  0.6044 -0.5433 -0.5981
  149SAPE    HS16448   4.089  -0.073  10.704  0.4570 -0.7762 -1.6485
  149SAPE   O2116449   4.026   0.068  10.558 -0.1537  0.3172  0.6892
  149SAPE   C2116450   4.027  -0.025  10.455  0.4013  0.5642  0.0030
  149SAPE   O2216451   4.032  -0.144  10.471 -0.4430  0.0281  0.0877
  149SAPE   C2216452   4.008   0.048  10.329  0.6378  0.2862 -0.4116
  149SAPE   H2R16453   3.900   0.052  10.304  0.8331 -0.8902 -1.5720
  149SAPE   H2S16454   4.034   0.154  10.351 -0.4019  0.4445  0.0945
  149SAPE    C316455   3.871  -0.022  10.730  0.3155  0.0710 -0.4433
  149SAPE    HX16456   3.865  -0.098  10.811  2.1473 -0.0556 -0.3957
  149SAPE    HY16457   3.822  -0.077  10.647 -0.3027 -0.2213  0.1053
  149SAPE   O3116458   3.788   0.096  10.753  0.6374 -0.2698 -0.0800
  149SAPE   C3116459   3.730   0.117  10.870 -0.6023  0.3461 -0.5813
  149SAPE   O3216460   3.742   0.046  10.972  0.1252 -0.4706  1.4289
  149SAPE   C3216461   3.660   0.250  10.872  0.1213  0.2367 -0.3094
  149SAPE   H2X16462   3.680   0.296  10.773  0.8650  1.2434  0.2832
  149SAPE   H2Y16463   3.705   0.322  10.945  0.7780 -0.2256 -0.2490
  149SAPE   C2316464   4.079  -0.027  10.218 -0.2672 -0.2491 -0.5738
  149SAPE   H3R16465   4.182  -0.052  10.251 -0.5913  0.1965  0.8708
  149SAPE   H3S16466   4.082   0.044  10.134 -2.1325  0.4793 -0.0707
  149SAPE   C2416467   4.004  -0.152  10.171 -0.4709  0.4443  0.7252
  149SAPE   H4R16468   4.014  -0.228  10.251 -2.2777  0.0184  0.5960
  149SAPE   H4S16469   4.062  -0.195  10.087 -0.3527  1.6037  0.1950
  149SAPE   C2516470   3.859  -0.142  10.132  0.3952 -0.8986  0.2314
  149SAPE   H5R16471   3.785  -0.177  10.206  0.9645 -1.5616  0.5097
  149SAPE   C2616472   3.818  -0.097  10.006  0.0295  0.2205 -0.0820
  149SAPE   H6R16473   3.715  -0.111   9.972 -0.4380  0.5559  1.1526
  149SAPE   C2716474   3.913  -0.069   9.889 -0.2508 -0.6679 -0.7058
  149SAPE   H7R16475   3.956  -0.168   9.861 -0.9138 -1.6940  1.6326
  149SAPE   H7S16476   3.997  -0.008   9.928 -1.0181 -0.1960  0.2361
  149SAPE   C2816477   3.856  -0.009   9.767 -0.6976  0.0858  0.2771
  149SAPE   H8R16478   3.872   0.100   9.761 -1.2835  0.1528 -0.1593
  149SAPE   C2916479   3.796  -0.072   9.662 -1.0746  0.4124  0.6473
  149SAPE   H9R16480   3.767  -0.019   9.570  0.0972 -0.7510 -0.4260
  149SAPE  C21016481   3.781  -0.223   9.659  0.1561 -0.5982 -0.4106
  149SAPE  H10R16482   3.791  -0.271   9.759  0.1477 -0.1060 -0.1721
  149SAPE  H10S16483   3.860  -0.274   9.601  0.6269 -1.4540  0.9323
  149SAPE  C21116484   3.651  -0.253   9.593 -0.1549 -0.8671  1.1436
  149SAPE  H11R16485   3.564  -0.277   9.655 -1.4740 -0.9403 -0.6615
  149SAPE  C21216486   3.634  -0.258   9.462 -0.1764  0.1550  0.0862
  149SAPE  H12R16487   3.535  -0.293   9.429 -1.6739  1.8830  2.4252
  149SAPE  C21316488   3.739  -0.228   9.364 -0.2122 -0.4630 -0.5742
  149SAPE  H13R16489   3.756  -0.322   9.307 -0.1601 -1.7528  1.4829
  149SAPE  H13S16490   3.841  -0.212   9.405 -0.4504  0.3845 -0.2973
  149SAPE  C21416491   3.687  -0.110   9.282 -0.0516  0.2574 -0.1538
  149SAPE  H14R16492   3.601  -0.050   9.318 -0.2504  0.4443 -0.9264
  149SAPE  C21516493   3.741  -0.084   9.164  0.2890  0.2722 -0.6336
  149SAPE  H15R16494   3.695  -0.005   9.103  1.8212 -0.0426 -2.2596
  149SAPE  C21616495   3.848  -0.158   9.091  0.2245 -0.0123  0.6514
  149SAPE  H16R16496   3.869  -0.252   9.147  1.0583  0.0143  0.4012
  149SAPE  H16S16497   3.938  -0.093   9.091  1.5170 -1.7175 -0.1108
  149SAPE  C21716498   3.795  -0.185   8.950  0.7242 -0.0362  0.5893
  149SAPE  H17R16499   3.710  -0.257   8.954  0.7819 -0.0374  2.3846
  149SAPE  H17S16500   3.870  -0.246   8.896  0.6692  0.6092 -0.2539
  149SAPE  C21816501   3.771  -0.061   8.858 -0.4050  0.0797 -0.0535
  149SAPE  H18R16502   3.870  -0.027   8.822  1.0588 -2.3863  1.3370
  149SAPE  H18S16503   3.729   0.024   8.916 -2.0597 -0.8271  0.1614
  149SAPE  C21916504   3.686  -0.108   8.744 -0.9408 -0.4767 -0.3621
  149SAPE  H19R16505   3.589  -0.149   8.779 -2.5224  2.6095 -0.7829
  149SAPE  H19S16506   3.740  -0.188   8.690  1.8389  0.4756  0.7948
  149SAPE  C22016507   3.660   0.007   8.646  0.1623  0.8835 -0.2555
  149SAPE  H20R16508   3.576  -0.038   8.589  1.0662 -0.1488 -0.8310
  149SAPE  H20S16509   3.741   0.019   8.570  0.2312 -1.4881 -0.6401
  149SAPE  H20T16510   3.631   0.103   8.693 -0.6789  1.0257 -1.0531
  149SAPE   C3316511   3.509   0.222  10.885 -0.4829  0.1183  0.1235
  149SAPE   H3X16512   3.475   0.294  10.963  1.4838  1.1820  0.0628
  149SAPE   H3Y16513   3.490   0.124  10.934  1.4206 -0.4248 -0.1654
  149SAPE   C3416514   3.427   0.226  10.762  0.2632  0.5982  0.5944
  149SAPE   H4X16515   3.439   0.327  10.718 -0.7427  1.6859  2.6763
  149SAPE   H4Y16516   3.321   0.217  10.793 -1.3200 -0.1896 -4.2055
  149SAPE   C3516517   3.460   0.117  10.657  0.1826 -0.3673 -0.4022
  149SAPE   H5X16518   3.404   0.030  10.698  0.5281 -0.2300  0.3793
  149SAPE   H5Y16519   3.567   0.092  10.641 -0.5634 -2.8106 -2.1220
  149SAPE   C3616520   3.409   0.166  10.516  0.4861  0.1411  0.3153
  149SAPE   H6X16521   3.462   0.257  10.481 -1.2960  0.1301 -2.6715
  149SAPE   H6Y16522   3.302   0.195  10.526  0.0744 -1.3685  0.4606
  149SAPE   C3716523   3.416   0.066  10.397  0.0232 -0.2533 -0.0877
  149SAPE   H7X16524   3.338  -0.014  10.403 -0.0483 -0.4782 -2.8160
  149SAPE   H7Y16525   3.509   0.006  10.404 -1.1239 -2.0566  0.2488
  149SAPE   C3816526   3.405   0.128  10.262  0.5393 -0.3550 -0.5316
  149SAPE   H8X16527   3.503   0.176  10.241 -0.3381  1.5989 -0.4413
  149SAPE   H8Y16528   3.330   0.210  10.267  3.2867  2.2774  0.4603
  149SAPE   C3916529   3.367   0.029  10.160  0.4543  0.4378 -0.4017
  149SAPE   H9X16530   3.264  -0.009  10.177  1.0614 -0.6660  1.0564
  149SAPE   H9Y16531   3.433  -0.061  10.168  0.2065  0.3651  1.0427
  149SAPE  C31016532   3.396   0.070  10.015 -0.7336  0.0028 -0.2478
  149SAPE  H10X16533   3.503   0.100  10.010 -0.9534  1.4814  2.2399
  149SAPE  H10Y16534   3.345   0.165   9.990  0.6475  1.4326  2.0267
  149SAPE  C31116535   3.370  -0.029   9.907 -0.0522 -0.2571 -0.2254
  149SAPE  H11X16536   3.266  -0.067   9.915 -0.1632 -0.0572 -0.7212
  149SAPE  H11Y16537   3.434  -0.118   9.925 -0.0052 -0.3122 -0.6523
  149SAPE  C31216538   3.394   0.046   9.771  0.0201 -0.3801 -0.1074
  149SAPE  H12X16539   3.504   0.052   9.757  0.0779  0.5298  0.6411
  149SAPE  H12Y16540   3.352   0.149   9.771  0.2697 -0.2704  0.7107
  149SAPE  C31316541   3.345  -0.036   9.654  0.2806  0.0402  0.9389
  149SAPE  H13X16542   3.235  -0.045   9.667  0.1550  1.6916  1.2067
  149SAPE  H13Y16543   3.398  -0.134   9.649 -0.9857 -0.5787 -1.4282
  149SAPE  C31416544   3.381   0.031   9.519  0.2062 -0.6848 -0.1833
  149SAPE  H14X16545   3.488   0.059   9.504 -0.4566  1.9529 -0.5169
  149SAPE  H14Y16546   3.319   0.122   9.509 -1.8598 -1.9330  0.7564
  149SAPE  C31516547   3.324  -0.049   9.400  0.0528 -0.0536  0.5092
  149SAPE  H15X16548   3.214  -0.050   9.414 -0.2818  0.3563 -1.7060
  149SAPE  H15Y16549   3.368  -0.151   9.403  0.4771  0.1407  1.2122
  149SAPE  C31616550   3.338   0.001   9.253  0.0217 -0.1839  0.7202
  149SAPE  H16X16551   3.440   0.042   9.239 -0.0672 -0.3455 -0.4844
  149SAPE  H16Y16552   3.269   0.087   9.238  2.6267  2.0648  0.9054
  149SAPE  C31716553   3.318  -0.109   9.158  0.2163 -0.4052 -0.1554
  149SAPE  H17X16554   3.233  -0.175   9.186  2.5159 -3.3763  0.3091
  149SAPE  H17Y16555   3.407  -0.173   9.171  1.6006  1.6530  0.9834
  149SAPE  C31816556   3.306  -0.074   9.004 -0.5466  0.3312  0.4099
  149SAPE  H18X16557   3.401  -0.029   8.970  0.0418 -1.4309 -0.3901
  149SAPE  H18Y16558   3.223  -0.005   8.978 -2.0282 -1.9710 -1.2817
  149SAPE  H18Z16559   3.298  -0.170   8.949  0.1468  0.2212  0.4961
  150SAPE     N16560   5.183   3.959  10.783  0.3066 -0.0247 -0.1152
  150SAPE   HN116561   5.209   4.020  10.863 -0.1970 -0.4303  0.3657
  150SAPE   HN216562   5.079   3.961  10.788  0.3482 -0.4231  1.2261
  150SAPE   HN316563   5.220   3.863  10.799 -0.1687 -0.1729  0.1269
  150SAPE   C1216564   5.211   4.030  10.655  0.4906 -0.0492 -0.0529
  150SAPE  H12A16565   5.163   4.130  10.660  1.8680  0.5631  2.2598
  150SAPE  H12B16566   5.159   3.975  10.574 -2.9971  1.2691  1.1119
  150SAPE   C1116567   5.361   4.058  10.626  0.0013 -0.5110 -0.5829
  150SAPE  H11A16568   5.367   4.143  10.555  1.8215 -1.1970 -1.3043
  150SAPE  H11B16569   5.399   3.971  10.567  2.3782  1.5678 -2.3548
  150SAPE     P16570   5.547   4.005  10.800 -0.2378  0.4949  0.3351
  150SAPE   O1316571   5.621   4.087  10.898  0.0799 -0.1932  0.1897
  150SAPE   O1416572   5.487   3.879  10.853 -0.2832 -0.1261 -0.0737
  150SAPE   O1216573   5.432   4.095  10.744  0.8827  0.0545  0.7973
  150SAPE   O1116574   5.635   3.966  10.684  0.0245 -0.5192  0.2279
  150SAPE    C116575   5.757   4.045  10.650 -0.1403  0.1218  0.2678
  150SAPE    HA16576   5.803   4.077  10.746  0.7292 -2.5602  0.8441
  150SAPE    HB16577   5.837   3.980  10.608 -0.3480  0.3900 -0.5487
  150SAPE    C216578   5.724   4.174  10.561  0.6698  0.0427  0.4699
  150SAPE    HS16579   5.617   4.166  10.531  1.1605  2.1205 -2.1674
  150SAPE   O2116580   5.814   4.187  10.449  0.0746  0.4309  0.0104
  150SAPE   C2116581   5.801   4.094  10.362  0.2864 -0.0408  0.6617
  150SAPE   O2216582   5.724   3.998  10.364  0.5760 -0.4897  0.3620
  150SAPE   C2216583   5.902   4.117  10.245 -0.1486 -0.4430 -0.0552
  150SAPE   H2R16584   5.904   4.022  10.188  0.2959 -0.6453  0.2919
  150SAPE   H2S16585   5.868   4.195  10.174 -0.0981 -1.4219 -1.1747
  150SAPE    C316586   5.738   4.309  10.639  0.0915 -0.2876  0.2197
  150SAPE    HX16587   5.842   4.328  10.672  0.5185 -0.8981 -0.7329
  150SAPE    HY16588   5.684   4.293  10.734  0.8842 -1.1704  0.5384
  150SAPE   O3116589   5.687   4.419  10.565 -0.3142  0.7145 -0.2010
  150SAPE   C3116590   5.776   4.492  10.499 -0.4146 -0.2635  0.1293
  150SAPE   O3216591   5.897   4.468  10.490 -0.5410  0.7798  0.0933
  150SAPE   C3216592   5.701   4.611  10.438 -0.6030  0.0241 -0.4451
  150SAPE   H2X16593   5.707   4.692  10.514 -0.9071  0.5733 -0.9949
  150SAPE   H2Y16594   5.593   4.585  10.434 -0.3007 -1.3651 -0.1184
  150SAPE   C2316595   6.044   4.158  10.281 -0.5097  0.1539  0.4211
  150SAPE   H3R16596   6.098   4.087  10.348  0.2538 -0.6667 -1.0167
  150SAPE   H3S16597   6.056   4.252  10.339  0.0310 -0.1542  0.8217
  150SAPE   C2416598   6.132   4.168  10.153  0.4335 -0.2787  0.1305
  150SAPE   H4R16599   6.123   4.076  10.091 -0.7544  0.0294 -0.1801
  150SAPE   H4S16600   6.236   4.171  10.193  0.2689  0.4119  0.5319
  150SAPE   C2516601   6.120   4.300  10.084  0.1769 -0.2717  0.6149
  150SAPE   H5R16602   6.137   4.384  10.153  0.5266 -1.7033  2.3628
  150SAPE   C2616603   6.097   4.324   9.958 -0.4637 -0.2709  0.4164
  150SAPE   H6R16604   6.108   4.427   9.922 -1.5156 -0.5843 -0.8856
  150SAPE   C2716605   6.081   4.214   9.854  0.3082  0.3426  0.3823
  150SAPE   H7R16606   6.044   4.123   9.905 -2.0405  1.4682  0.8233
  150SAPE   H7S16607   6.185   4.198   9.817  0.1970  0.0707  0.1830
  150SAPE   C2816608   5.986   4.257   9.746  0.1814 -0.5684 -0.7458
  150SAPE   H8R16609   5.957   4.363   9.734 -0.7629 -1.0808 -3.9517
  150SAPE   C2916610   5.927   4.180   9.654 -0.4676  0.0316 -0.2594
  150SAPE   H9R16611   5.845   4.232   9.601 -0.0655  3.2869  1.9995
  150SAPE  C21016612   5.930   4.030   9.626 -0.9473  0.5819  0.1506
  150SAPE  H10R16613   5.834   3.999   9.580  0.5178 -0.7461 -2.2590
  150SAPE  H10S16614   5.937   3.967   9.717  0.2969 -2.3825 -1.8519
  150SAPE  C21116615   6.045   3.981   9.532 -0.0334 -0.1802  0.7942
  150SAPE  H11R16616   6.133   3.940   9.584  1.4812  1.8164 -0.0617
  150SAPE  C21216617   6.047   3.991   9.397  0.5433  0.7915  0.1688
  150SAPE  H12R16618   6.133   3.947   9.345 -1.1227 -0.9044 -1.2727
  150SAPE  C21316619   5.934   4.045   9.313  0.7183  0.1240 -0.1409
  150SAPE  H13R16620   5.962   4.127   9.243  0.9231  1.9421  1.9549
  150SAPE  H13S16621   5.851   4.081   9.378 -0.1164 -0.0844 -1.0732
  150SAPE  C21416622   5.866   3.922   9.238  0.0387 -0.5024  0.5735
  150SAPE  H14R16623   5.818   3.846   9.301 -0.0649 -1.7799 -0.9916
  150SAPE  C21516624   5.848   3.921   9.106 -0.6335 -0.3366  0.5076
  150SAPE  H15R16625   5.792   3.840   9.058  0.4581  0.0189 -1.4730
  150SAPE  C21616626   5.890   4.022   8.996  0.4210 -0.5107  0.3367
  150SAPE  H16R16627   5.923   4.117   9.042  1.0841 -0.5403 -0.0494
  150SAPE  H16S16628   5.820   4.045   8.913  1.9199  0.9154 -0.6161
  150SAPE  C21716629   6.013   3.970   8.917  0.1692  0.2342 -0.3221
  150SAPE  H17R16630   6.031   4.058   8.851 -2.0701 -0.4005 -1.9406
  150SAPE  H17S16631   5.978   3.892   8.846 -2.4706  1.6076 -0.6576
  150SAPE  C21816632   6.139   3.924   8.994 -0.0379  0.0876 -0.0456
  150SAPE  H18R16633   6.110   3.841   9.061  0.3129 -0.7055 -0.8540
  150SAPE  H18S16634   6.178   4.011   9.051  1.4049 -2.1375  2.5780
  150SAPE  C21916635   6.254   3.880   8.904  0.4733  0.8753 -0.7022
  150SAPE  H19R16636   6.302   3.962   8.846  2.2820 -1.0142 -2.0444
  150SAPE  H19S16637   6.214   3.804   8.833 -1.3970  2.6159 -1.6220
  150SAPE  C22016638   6.365   3.817   8.995 -0.2083 -0.0183 -0.1321
  150SAPE  H20R16639   6.452   3.767   8.947  1.0301 -0.5826  2.5100
  150SAPE  H20S16640   6.320   3.742   9.063 -0.9035  1.2894  0.8983
  150SAPE  H20T16641   6.412   3.899   9.054  1.6800 -0.5332 -0.8278
  150SAPE   C3316642   5.754   4.648  10.304 -0.0557 -0.0136 -0.4584
  150SAPE   H3X16643   5.863   4.664  10.319 -0.1932 -0.7846  1.7678
  150SAPE   H3Y16644   5.711   4.745  10.269 -2.5164 -1.0612 -0.5704
  150SAPE   C3416645   5.726   4.548  10.192 -0.3434 -1.0566 -0.3649
  150SAPE   H4X16646   5.615   4.548  10.186 -0.6018  1.7511  1.9827
  150SAPE   H4Y16647   5.772   4.451  10.222 -0.5790 -0.6065  1.6124
  150SAPE   C3516648   5.779   4.595  10.062 -0.2467  0.4294  0.7328
  150SAPE   H5X16649   5.889   4.592  10.049 -0.5742 -1.9470 -2.9944
  150SAPE   H5Y16650   5.752   4.703  10.058 -1.4950  0.1045 -0.3525
  150SAPE   C3616651   5.716   4.541   9.930  0.7480 -0.1141  0.7246
  150SAPE   H6X16652   5.607   4.560   9.940  0.9113  2.9586 -1.8058
  150SAPE   H6Y16653   5.721   4.430   9.924 -2.8858 -0.3069 -1.3167
  150SAPE   C3716654   5.768   4.608   9.797 -0.1968 -0.1575  0.2165
  150SAPE   H7X16655   5.877   4.586   9.796 -0.5882 -2.3157 -1.0548
  150SAPE   H7Y16656   5.760   4.719   9.800  0.5588 -0.0274 -1.2043
  150SAPE   C3816657   5.712   4.546   9.661  0.1051  0.3970  0.1556
  150SAPE   H8X16658   5.603   4.567   9.651 -0.1144 -0.6685  0.1693
  150SAPE   H8Y16659   5.735   4.437   9.661  1.2270  0.5965  1.6733
  150SAPE   C3916660   5.775   4.609   9.539 -0.2216 -0.1786 -0.0992
  150SAPE   H9X16661   5.885   4.608   9.557 -0.1283  0.1639 -0.6299
  150SAPE   H9Y16662   5.748   4.717   9.536  0.5505  0.0057 -0.8206
  150SAPE  C31016663   5.742   4.544   9.407  0.2076 -0.4236 -0.5040
  150SAPE  H10X16664   5.631   4.541   9.402  0.1250 -0.1639  0.7396
  150SAPE  H10Y16665   5.786   4.442   9.407  4.3085  1.0366  3.5542
  150SAPE  C31116666   5.810   4.621   9.289 -0.7112  0.3272  0.0373
  150SAPE  H11X16667   5.918   4.616   9.312 -0.9893  0.0447  1.3746
  150SAPE  H11Y16668   5.793   4.731   9.293 -2.4168  0.1010 -0.2070
  150SAPE  C31216669   5.755   4.572   9.150 -0.1594  0.0444  0.3625
  150SAPE  H12X16670   5.647   4.594   9.148 -0.5419 -1.6954  0.1577
  150SAPE  H12Y16671   5.771   4.462   9.143 -1.2182 -0.1364  0.6565
  150SAPE  C31316672   5.827   4.656   9.036  0.3258  0.5277 -0.5875
  150SAPE  H13X16673   5.935   4.641   9.058 -0.5171 -1.6964  2.9743
  150SAPE  H13Y16674   5.793   4.761   9.045  1.1396  0.9308 -1.9364
  150SAPE  C31416675   5.801   4.603   8.897  0.1058  0.9928 -0.7220
  150SAPE  H14X16676   5.695   4.582   8.868 -1.0755 -1.7640  4.4262
  150SAPE  H14Y16677   5.841   4.500   8.892  0.6910  1.1750  0.1382
  150SAPE  C31516678   5.887   4.679   8.793  0.3699  0.4206  0.1609
  150SAPE  H15X16679   5.904   4.609   8.709 -0.1928  0.4324  0.0339
  150SAPE  H15Y16680   5.985   4.695   8.842 -0.0926  0.8379  0.9908
  150SAPE  C31616681   5.812   4.811   8.746  0.1445 -0.4131 -0.2849
  150SAPE  H16X16682   5.771   4.863   8.836  0.4598 -1.2345  0.3520
  150SAPE  H16Y16683   5.724   4.792   8.681 -2.5136 -0.7438  3.0976
  150SAPE  C31716684   5.905   4.909   8.677 -0.1271 -0.8599 -0.2999
  150SAPE  H17X16685   5.928   4.858   8.581  1.4801 -0.5399 -0.1087
  150SAPE  H17Y16686   5.992   4.917   8.745 -2.1761 -0.5583  2.4533
  150SAPE  C31816687   5.844   5.051   8.658 -0.0128  0.5263  0.3052
  150SAPE  H18X16688   5.905   5.125   8.602 -2.4740  0.9640 -2.0039
  150SAPE  H18Y16689   5.818   5.092   8.758 -2.0489 -0.3016  0.1652
  150SAPE  H18Z16690   5.746   5.045   8.607  0.4685 -0.6035 -0.5516
  151SAPE     N16691   4.738   3.067  10.285  1.0648  0.0213  0.3237
  151SAPE   HN116692   4.794   3.064  10.372 -0.2227 -0.6609  1.1615
  151SAPE   HN216693   4.735   2.981  10.227 -2.8096  0.6578 -0.6918
  151SAPE   HN316694   4.770   3.150  10.232 -0.1942 -1.2600 -2.6659
  151SAPE   C1216695   4.592   3.085  10.338 -0.0277  0.5887  0.4807
  151SAPE  H12A16696   4.593   3.188  10.380 -0.2832  0.4819  0.7531
  151SAPE  H12B16697   4.576   3.010  10.418 -0.6811  0.9600  0.7021
  151SAPE   C1116698   4.489   3.074  10.232  0.3892 -0.4249 -0.2141
  151SAPE  H11A16699   4.460   2.968  10.218  0.8151 -0.5831  0.0792
  151SAPE  H11B16700   4.532   3.100  10.133 -1.1892 -2.5647 -1.5448
  151SAPE     P16701   4.272   3.134  10.385  0.0606 -0.1504  0.4346
  151SAPE   O1316702   4.313   3.019  10.468 -0.4365 -0.5029  0.1151
  151SAPE   O1416703   4.258   3.263  10.455  0.0519  0.4206  0.1058
  151SAPE   O1216704   4.366   3.152  10.254 -0.6354  0.2072 -0.1236
  151SAPE   O1116705   4.133   3.088  10.330  0.0217  0.1975  0.1584
  151SAPE    C116706   4.137   2.971  10.241 -0.2106 -0.5003 -0.3342
  151SAPE    HA16707   4.210   2.977  10.157 -0.1040 -1.0521 -0.2806
  151SAPE    HB16708   4.151   2.879  10.301  1.5321  1.9268  3.3875
  151SAPE    C216709   4.005   2.970  10.149  0.5709 -0.1820 -0.3247
  151SAPE    HS16710   3.928   2.933  10.220  1.0476  0.8586  0.7697
  151SAPE   O2116711   4.030   2.884  10.045 -0.0566  0.3648  0.3014
  151SAPE   C2116712   3.928   2.818  10.004 -0.8364  0.0703 -0.3909
  151SAPE   O2216713   3.816   2.801  10.051  0.0990 -0.2287  0.1341
  151SAPE   C2216714   3.969   2.759   9.864  0.0764  0.0307  0.1766
  151SAPE   H2R16715   3.995   2.844   9.797  0.8740 -0.6106 -0.3446
  151SAPE   H2S16716   4.061   2.701   9.886 -0.0261 -0.0427  0.4166
  151SAPE    C316717   3.976   3.119  10.107 -0.2488 -0.4196 -0.0053
  151SAPE    HX16718   4.062   3.189  10.099  0.5784 -1.5371 -1.3522
  151SAPE    HY16719   3.914   3.161  10.189 -0.6385  1.6321 -1.2859
  151SAPE   O3116720   3.881   3.123   9.996 -0.2776 -0.0587  0.2797
  151SAPE   C3116721   3.928   3.147   9.880 -0.1863 -0.4766 -0.2408
  151SAPE   O3216722   4.053   3.157   9.858  0.5538  0.5169 -0.0321
  151SAPE   C3216723   3.819   3.158   9.779  1.0521  0.5735 -0.2073
  151SAPE   H2X16724   3.784   3.263   9.788 -0.8981 -0.1853  1.9426
  151SAPE   H2Y16725   3.735   3.103   9.826 -0.0398  3.0400  0.8882
  151SAPE   C2316726   3.855   2.675   9.798 -0.2678  0.2853 -0.0830
  151SAPE   H3R16727   3.773   2.744   9.768 -0.3113  0.0223 -0.5731
  151SAPE   H3S16728   3.798   2.618   9.875 -0.5803 -1.6607 -1.6775
  151SAPE   C2416729   3.879   2.579   9.680 -0.3322 -0.1967 -0.1980
  151SAPE   H4R16730   3.790   2.514   9.663 -0.2213 -1.2667  2.6709
  151SAPE   H4S16731   3.963   2.509   9.697 -0.8304 -0.5707  0.8607
  151SAPE   C2516732   3.915   2.662   9.562  0.3365 -0.1512 -0.1297
  151SAPE   H5R16733   4.016   2.702   9.577  0.4079 -0.7363  1.1222
  151SAPE   C2616734   3.842   2.693   9.457  0.6673  0.1547 -0.3027
  151SAPE   H6R16735   3.898   2.755   9.385  0.9340  0.8103  0.4476
  151SAPE   C2716736   3.701   2.641   9.422 -0.0950  0.8243 -0.1306
  151SAPE   H7R16737   3.658   2.572   9.498 -1.9069  1.0174 -0.9107
  151SAPE   H7S16738   3.706   2.576   9.333  2.4700 -2.1284  1.9697
  151SAPE   C2816739   3.599   2.753   9.415 -0.1536  0.5937 -0.3813
  151SAPE   H8R16740   3.579   2.803   9.511  1.0706 -0.6208  0.5319
  151SAPE   C2916741   3.560   2.816   9.294  0.6239  0.1822 -0.0208
  151SAPE   H9R16742   3.478   2.888   9.305  0.2242 -0.5747  2.6738
  151SAPE  C21016743   3.602   2.780   9.151  0.1874 -1.0816  0.4563
  151SAPE  H10R16744   3.539   2.695   9.116 -1.0492  0.9821 -2.8467
  151SAPE  H10S16745   3.711   2.760   9.144  1.2237  3.3665  1.2284
  151SAPE  C21116746   3.556   2.893   9.064 -0.6464 -0.3881  0.3386
  151SAPE  H11R16747   3.459   2.942   9.082 -0.0085  2.4220 -2.7613
  151SAPE  C21216748   3.632   2.942   8.958  0.3870  0.2926 -1.3545
  151SAPE  H12R16749   3.575   3.014   8.898 -1.7545  1.0240  1.3429
  151SAPE  C21316750   3.768   2.909   8.897  0.3368  0.1150  0.0668
  151SAPE  H13R16751   3.847   2.894   8.973  0.3349  2.6042  0.6384
  151SAPE  H13S16752   3.792   3.000   8.839 -1.2216  0.2273 -0.4611
  151SAPE  C21416753   3.759   2.783   8.813 -0.0186 -0.1365  0.1372
  151SAPE  H14R16754   3.765   2.691   8.873  2.7479  0.1191  0.3814
  151SAPE  C21516755   3.747   2.776   8.678  0.7169  0.2569 -0.2151
  151SAPE  H15R16756   3.758   2.683   8.620 -0.7529  0.8767 -1.5532
  151SAPE  C21616757   3.731   2.898   8.587 -0.2934  0.3743  0.1001
  151SAPE  H16R16758   3.808   2.904   8.507 -0.9578 -1.0800 -0.6901
  151SAPE  H16S16759   3.751   2.989   8.646 -0.0211 -0.5364  1.4636
  151SAPE  C21716760   3.596   2.899   8.512  0.4343 -0.2091  1.0921
  151SAPE  H17R16761   3.568   2.999   8.472 -2.7649 -1.1700  0.6874
  151SAPE  H17S16762   3.514   2.887   8.587 -0.2639  0.1609  0.4010
  151SAPE  C21816763   3.583   2.796   8.399 -0.3627 -0.4541 -0.0076
  151SAPE  H18R16764   3.605   2.698   8.446  0.1895  0.3190  1.4277
  151SAPE  H18S16765   3.668   2.811   8.328  0.9743 -0.3382  1.5498
  151SAPE  C21916766   3.451   2.788   8.332  0.9353  0.1124 -0.2913
  151SAPE  H19R16767   3.451   2.863   8.250 -0.9109  2.1021  1.3786
  151SAPE  H19S16768   3.372   2.815   8.406 -0.2482  0.4358 -1.6245
  151SAPE  C22016769   3.433   2.651   8.270 -0.0599 -0.1081  0.8360
  151SAPE  H20R16770   3.466   2.579   8.348 -1.3071 -0.1857  1.3123
  151SAPE  H20S16771   3.486   2.637   8.173 -0.3746 -0.5044  0.7186
  151SAPE  H20T16772   3.323   2.637   8.262 -0.0461 -0.6641  1.5419
  151SAPE   C3316773   3.841   3.095   9.631 -0.3172  0.0355 -0.5977
  151SAPE   H3X16774   3.839   2.987   9.657 -0.3831  0.2031  0.1107
  151SAPE   H3Y16775   3.943   3.128   9.602 -0.4050  0.7707 -0.1216
  151SAPE   C3416776   3.735   3.141   9.538 -0.6180 -0.4168 -0.6344
  151SAPE   H4X16777   3.732   3.252   9.534 -0.9157 -0.4544 -3.7354
  151SAPE   H4Y16778   3.629   3.108   9.547  0.0242 -2.2144  1.0672
  151SAPE   C3516779   3.782   3.094   9.393  0.3034 -0.2711 -0.9937
  151SAPE   H5X16780   3.689   3.092   9.332 -0.3680  0.9000 -0.0497
  151SAPE   H5Y16781   3.816   2.990   9.414 -0.9273 -0.0960  2.5434
  151SAPE   C3616782   3.887   3.184   9.325  0.0962 -0.3102 -0.2081
  151SAPE   H6X16783   3.975   3.195   9.391 -0.9981 -2.0911  1.6541
  151SAPE   H6Y16784   3.842   3.286   9.326 -1.6794 -1.0549  1.3941
  151SAPE   C3716785   3.925   3.139   9.189 -0.4305 -0.7248  0.1315
  151SAPE   H7X16786   3.833   3.139   9.127  0.2974 -0.7388 -0.9723
  151SAPE   H7Y16787   3.957   3.033   9.197  0.4081 -0.3468  2.8956
  151SAPE   C3816788   4.030   3.230   9.130 -0.1300 -0.3804 -0.0688
  151SAPE   H8X16789   4.126   3.217   9.185 -0.8137  1.6035  1.7223
  151SAPE   H8Y16790   3.995   3.335   9.141 -1.6902 -0.8908  0.0389
  151SAPE   C3916791   4.067   3.202   8.979  0.1738 -0.3839  0.2445
  151SAPE   H9X16792   4.113   3.289   8.928 -1.7209 -0.5147 -1.8586
  151SAPE   H9Y16793   3.968   3.206   8.929  0.0246  0.0940  0.5762
  151SAPE  C31016794   4.118   3.060   8.949  0.5291 -0.8955  0.0347
  151SAPE  H10X16795   4.062   2.985   9.009 -1.8269  1.8678  1.5132
  151SAPE  H10Y16796   4.226   3.046   8.973  0.0466 -0.8023  2.4719
  151SAPE  C31116797   4.101   3.025   8.795 -0.2059  0.2913  0.5260
  151SAPE  H11X16798   4.141   3.100   8.724  1.9821 -1.8712 -0.6768
  151SAPE  H11Y16799   3.994   3.006   8.769  0.3581  0.1927 -1.9615
  151SAPE  C31216800   4.167   2.885   8.750 -0.1486  0.5873  0.8356
  151SAPE  H12X16801   4.126   2.807   8.818 -1.8913 -0.2854 -1.1112
  151SAPE  H12Y16802   4.275   2.888   8.779  0.4792 -3.4115 -0.5152
  151SAPE  C31316803   4.131   2.856   8.600 -0.2091 -0.7032 -0.6862
  151SAPE  H13X16804   4.023   2.880   8.594 -0.2170 -0.6691 -0.4035
  151SAPE  H13Y16805   4.150   2.747   8.588 -2.7611 -1.5172  1.6948
  151SAPE  C31416806   4.214   2.942   8.509  0.3014 -0.0358 -0.6494
  151SAPE  H14X16807   4.322   2.931   8.530  0.0797 -0.3870  0.3705
  151SAPE  H14Y16808   4.185   3.049   8.512 -2.4577 -0.7340  0.7153
  151SAPE  C31516809   4.190   2.911   8.357  0.6144  0.5777  0.2122
  151SAPE  H15X16810   4.080   2.905   8.339  0.7005  1.0950 -0.5084
  151SAPE  H15Y16811   4.238   2.813   8.340 -2.3959 -1.1999  1.1247
  151SAPE  C31616812   4.246   3.026   8.271  0.3388  0.2984  0.3071
  151SAPE  H16X16813   4.353   3.017   8.299 -0.0418 -1.3850  1.3288
  151SAPE  H16Y16814   4.204   3.126   8.292 -0.4331 -0.0613  0.5062
  151SAPE  C31716815   4.232   2.989   8.121 -0.7874 -0.4250  0.0080
  151SAPE  H17X16816   4.280   2.893   8.094 -0.9605 -0.2430 -0.9909
  151SAPE  H17Y16817   4.302   3.059   8.071  0.8594 -0.6801  1.8218
  151SAPE  C31816818   4.095   3.004   8.062 -0.2784  0.0396 -0.0877
  151SAPE  H18X16819   4.025   2.945   8.126  2.5899 -2.0150  1.4082
  151SAPE  H18Y16820   4.076   2.950   7.967 -0.6015 -3.1149  1.6062
  151SAPE  H18Z16821   4.059   3.109   8.060 -2.4056 -0.5525  2.1623
  152SAPE     N16822   5.018   1.660  10.746 -0.2524 -0.0049 -0.1727
  152SAPE   HN116823   4.920   1.651  10.714 -0.7595 -1.3800  1.6066
  152SAPE   HN216824   5.036   1.574  10.801 -0.3330  0.2148  0.1977
  152SAPE   HN316825   5.024   1.734  10.819  3.1423 -0.0481 -0.2362
  152SAPE   C1216826   5.119   1.674  10.644  0.3201  0.4342 -0.2078
  152SAPE  H12A16827   5.220   1.672  10.688  0.9001  0.5531 -1.4970
  152SAPE  H12B16828   5.099   1.769  10.592  0.7471  1.2272  1.0328
  152SAPE   C1116829   5.090   1.558  10.542 -0.3095 -0.9516 -0.4690
  152SAPE  H11A16830   5.158   1.570  10.454  1.2373 -0.7416  0.7018
  152SAPE  H11B16831   4.984   1.570  10.512 -0.1594  1.5838 -0.1999
  152SAPE     P16832   5.006   1.325  10.598 -0.1185 -0.1765  0.6317
  152SAPE   O1316833   5.063   1.188  10.624  0.1850  0.1882 -0.6617
  152SAPE   O1416834   4.895   1.371  10.686 -0.1716 -0.1871  0.3614
  152SAPE   O1216835   5.129   1.427  10.594 -0.2461 -0.7607  0.2506
  152SAPE   O1116836   4.955   1.318  10.448  0.5695 -0.2519  0.0473
  152SAPE    C116837   5.059   1.290  10.348 -0.5565 -0.0640  0.4382
  152SAPE    HA16838   5.147   1.356  10.353 -0.2447 -0.2315 -1.7480
  152SAPE    HB16839   5.101   1.189  10.368  0.1334 -0.3572 -2.0999
  152SAPE    C216840   5.007   1.304  10.204  0.2215  0.7512  0.6650
  152SAPE    HS16841   4.955   1.401  10.196 -1.7504 -0.3996 -1.6386
  152SAPE   O2116842   4.929   1.186  10.170  0.2017  0.2147  0.0372
  152SAPE   C2116843   4.803   1.213  10.171  0.0846 -0.3948  0.7133
  152SAPE   O2216844   4.754   1.323  10.187  0.7309 -0.2288 -0.4967
  152SAPE   C2216845   4.722   1.087  10.122  0.1339 -0.1658 -0.0415
  152SAPE   H2R16846   4.786   0.997  10.114  1.1183  0.5878 -0.9811
  152SAPE   H2S16847   4.650   1.067  10.203 -1.4607  1.5199 -0.9643
  152SAPE    C316848   5.131   1.308  10.105  0.0638 -0.0655  0.0643
  152SAPE    HX16849   5.214   1.236  10.122  0.4913  0.6053  0.8673
  152SAPE    HY16850   5.184   1.402  10.132  0.1263  0.1992 -0.9229
  152SAPE   O3116851   5.101   1.328   9.966 -0.5605  0.9215 -0.1231
  152SAPE   C3116852   5.127   1.223   9.880 -0.5577  0.4961 -0.4618
  152SAPE   O3216853   5.177   1.121   9.922  0.1939 -0.5591  0.0211
  152SAPE   C3216854   5.094   1.257   9.733 -0.0837  0.0100 -0.4828
  152SAPE   H2X16855   5.134   1.358   9.712 -1.1412  0.2935 -1.1839
  152SAPE   H2Y16856   4.984   1.271   9.730 -0.0445  2.8382  3.2536
  152SAPE   C2316857   4.641   1.118   9.995  0.1962  0.4261  0.3396
  152SAPE   H3R16858   4.581   1.210  10.013  1.4089  1.1747  0.6205
  152SAPE   H3S16859   4.572   1.031   9.981 -0.9396  1.3223  0.2177
  152SAPE   C2416860   4.738   1.126   9.874 -0.3190 -0.0035 -0.2967
  152SAPE   H4R16861   4.798   1.033   9.860 -1.0437 -0.9126  2.1740
  152SAPE   H4S16862   4.814   1.201   9.905  1.6860 -3.2539  3.5140
  152SAPE   C2516863   4.668   1.170   9.747  0.2325 -0.3699 -0.0223
  152SAPE   H5R16864   4.627   1.272   9.745  1.0356 -0.0122  0.7775
  152SAPE   C2616865   4.650   1.089   9.638 -0.3133  0.8059 -0.6507
  152SAPE   H6R16866   4.608   1.131   9.546  0.7150  1.2178 -0.9416
  152SAPE   C2716867   4.695   0.949   9.623 -0.3881 -0.5927  0.2835
  152SAPE   H7R16868   4.634   0.902   9.543  0.7411 -0.9737 -0.3861
  152SAPE   H7S16869   4.669   0.894   9.715  2.0146 -2.4425 -0.0269
  152SAPE   C2816870   4.842   0.934   9.587  0.5691 -0.2849 -0.3954
  152SAPE   H8R16871   4.909   0.986   9.658 -0.8088  1.8325 -0.5566
  152SAPE   C2916872   4.890   0.876   9.479 -0.2867  0.6979  0.5768
  152SAPE   H9R16873   4.999   0.866   9.466 -0.1740 -0.2028  2.0002
  152SAPE  C21016874   4.812   0.827   9.366  0.2934  0.1422 -0.0997
  152SAPE  H10R16875   4.703   0.843   9.373  0.1670 -0.6032 -0.3246
  152SAPE  H10S16876   4.820   0.717   9.366  1.7814  0.2237 -0.9354
  152SAPE  C21116877   4.862   0.881   9.234 -0.1735  0.3848  0.3421
  152SAPE  H11R16878   4.955   0.828   9.210 -1.2898 -1.0012 -1.1763
  152SAPE  C21216879   4.811   0.970   9.150 -0.3344  0.3946  0.6146
  152SAPE  H12R16880   4.860   0.976   9.052 -2.1567 -0.4017 -0.3865
  152SAPE  C21316881   4.687   1.048   9.163  0.2093 -0.5874 -0.0635
  152SAPE  H13R16882   4.682   1.148   9.115 -1.5006 -0.3736  0.4725
  152SAPE  H13S16883   4.654   1.076   9.266 -1.6129 -0.8735 -0.5257
  152SAPE  C21416884   4.576   0.965   9.113 -0.2894  0.7347 -0.8753
  152SAPE  H14R16885   4.543   0.885   9.182  0.4163  0.5311 -0.7708
  152SAPE  C21516886   4.516   0.962   8.993  0.6506  0.6461 -0.0010
  152SAPE  H15R16887   4.434   0.889   8.983 -0.7670  2.3820 -1.6554
  152SAPE  C21616888   4.544   1.058   8.877  0.1805 -0.5551  0.0592
  152SAPE  H16R16889   4.629   1.127   8.898 -0.4383  0.4437 -0.6263
  152SAPE  H16S16890   4.456   1.110   8.833  1.2275  1.5558  0.3247
  152SAPE  C21716891   4.587   0.957   8.765 -1.2447 -0.2221 -0.3779
  152SAPE  H17R16892   4.599   1.013   8.670  0.5590  0.1881  0.0449
  152SAPE  H17S16893   4.513   0.877   8.745 -0.1147 -1.5998  0.7034
  152SAPE  C21816894   4.710   0.864   8.786  0.0473 -0.0131 -0.1862
  152SAPE  H18R16895   4.681   0.784   8.857  0.3919  1.5426  1.8086
  152SAPE  H18S16896   4.797   0.918   8.828  0.3667  0.9468 -1.9754
  152SAPE  C21916897   4.754   0.795   8.648  0.4512 -0.2598  0.2803
  152SAPE  H19R16898   4.656   0.751   8.619 -1.2525  3.0149  0.5542
  152SAPE  H19S16899   4.826   0.713   8.668  1.1229 -0.2593 -1.9086
  152SAPE  C22016900   4.817   0.895   8.552 -0.9164 -0.7056  0.1883
  152SAPE  H20R16901   4.833   0.846   8.453  2.2656  2.0524 -0.8724
  152SAPE  H20S16902   4.918   0.925   8.588 -1.2220  0.8039 -0.1416
  152SAPE  H20T16903   4.752   0.983   8.533  0.8592  0.0748 -3.1038
  152SAPE   C3316904   5.158   1.166   9.627  0.1964 -0.5132 -0.1943
  152SAPE   H3X16905   5.120   1.062   9.638 -1.9695  0.1834 -0.6716
  152SAPE   H3Y16906   5.267   1.167   9.648  0.7043 -0.7252 -2.5363
  152SAPE   C3416907   5.129   1.204   9.485  0.6122 -0.6938  0.1242
  152SAPE   H4X16908   5.156   1.311   9.471 -0.6816 -0.3712  0.0245
  152SAPE   H4Y16909   5.025   1.178   9.458 -0.0397  0.9475  0.9422
  152SAPE   C3516910   5.213   1.131   9.378 -0.8255  0.4681 -0.0587
  152SAPE   H5X16911   5.175   1.026   9.382 -2.2999  1.0027  0.4490
  152SAPE   H5Y16912   5.320   1.151   9.402 -0.2495 -0.4218 -1.7059
  152SAPE   C3616913   5.198   1.190   9.242 -0.3989  0.3716 -0.3267
  152SAPE   H6X16914   5.244   1.292   9.235 -0.5582  0.3488 -2.3478
  152SAPE   H6Y16915   5.090   1.198   9.216  0.4282 -0.3366 -4.7648
  152SAPE   C3716916   5.261   1.110   9.124  0.1330 -0.7106  0.2882
  152SAPE   H7X16917   5.204   1.018   9.103 -0.5282 -0.1000 -0.6413
  152SAPE   H7Y16918   5.366   1.076   9.138  0.0009 -1.5607 -0.7072
  152SAPE   C3816919   5.283   1.189   8.994 -0.0482 -0.7696  0.1414
  152SAPE   H8X16920   5.344   1.125   8.927  0.2069 -0.5968  0.2082
  152SAPE   H8Y16921   5.350   1.275   9.013  1.4018 -2.3544  2.7480
  152SAPE   C3916922   5.150   1.234   8.932  0.1158 -0.4273 -0.2545
  152SAPE   H9X16923   5.090   1.279   9.013 -0.4160  0.1401 -0.9589
  152SAPE   H9Y16924   5.091   1.144   8.903 -1.4018 -0.2673  2.0556
  152SAPE  C31016925   5.176   1.324   8.806  0.0527  0.3610  0.0587
  152SAPE  H10X16926   5.211   1.261   8.722  1.1127 -1.4276  1.7793
  152SAPE  H10Y16927   5.255   1.400   8.826  0.8212 -0.2102 -0.7603
  152SAPE  C31116928   5.050   1.388   8.747 -0.2624  0.2291  1.3621
  152SAPE  H11X16929   5.067   1.465   8.668  2.0832 -0.2643  1.3048
  152SAPE  H11Y16930   4.992   1.439   8.826 -1.0824  1.6523 -0.0960
  152SAPE  C31216931   4.935   1.296   8.683 -0.3670  0.7094 -0.0861
  152SAPE  H12X16932   4.901   1.227   8.764  1.9506  0.6177  0.8980
  152SAPE  H12Y16933   4.984   1.237   8.603 -0.5505  0.2517  0.1294
  152SAPE  C31316934   4.819   1.378   8.625 -0.3771 -0.0380 -0.3824
  152SAPE  H13X16935   4.854   1.466   8.567 -3.2914  2.8833  1.8633
  152SAPE  H13Y16936   4.766   1.436   8.704  0.4616  0.1904  0.0270
  152SAPE  C31416937   4.714   1.303   8.546  0.6818  0.4973 -0.4869
  152SAPE  H14X16938   4.665   1.231   8.616 -0.2253  1.4388 -0.1339
  152SAPE  H14Y16939   4.756   1.250   8.458 -1.7636  0.6959 -1.8312
  152SAPE  C31516940   4.589   1.374   8.495 -0.1751 -0.1572  0.2270
  152SAPE  H15X16941   4.616   1.440   8.410 -0.1336 -0.0412  0.3289
  152SAPE  H15Y16942   4.565   1.442   8.579 -0.1754  1.5119 -1.0763
  152SAPE  C31616943   4.470   1.288   8.462  0.1573  0.0106  0.0499
  152SAPE  H16X16944   4.389   1.360   8.437  1.4320  1.4771 -0.0758
  152SAPE  H16Y16945   4.446   1.221   8.546  5.4963 -3.6748 -0.8178
  152SAPE  C31716946   4.515   1.187   8.353  0.0350 -0.6161  0.1760
  152SAPE  H17X16947   4.593   1.111   8.377 -1.9149 -3.4950 -1.8566
  152SAPE  H17Y16948   4.557   1.247   8.269  1.5999  0.6554  1.7809
  152SAPE  C31816949   4.406   1.107   8.300 -0.3112  0.1949 -0.1601
  152SAPE  H18X16950   4.448   1.057   8.211 -0.6252 -0.3665  0.0002
  152SAPE  H18Y16951   4.320   1.175   8.280 -1.0039 -1.3036 -2.7186
  152SAPE  H18Z16952   4.365   1.032   8.372 -1.3737  1.1366  0.2466
  153SAPE     N16953   5.505   2.614  10.539  0.0205 -0.0580 -0.4591
  153SAPE   HN116954   5.444   2.696  10.522  0.2411  1.1998  3.5852
  153SAPE   HN216955   5.584   2.614  10.471 -0.1047 -2.1090 -0.6511
  153SAPE   HN316956   5.447   2.530  10.520  1.0549 -0.8967 -0.0023
  153SAPE   C1216957   5.556   2.603  10.679  0.5663 -0.8263 -0.2814
  153SAPE  H12A16958   5.463   2.580  10.734  0.8045 -1.0849  0.0144
  153SAPE  H12B16959   5.604   2.699  10.706  1.7039 -0.8042 -2.1790
  153SAPE   C1116960   5.662   2.494  10.679  1.0768 -0.7430 -0.0887
  153SAPE  H11A16961   5.619   2.400  10.639  1.3582 -1.5260  1.3714
  153SAPE  H11B16962   5.680   2.478  10.787 -0.9058  1.4059  0.6371
  153SAPE     P16963   5.903   2.457  10.625  0.6632  0.1565  0.0407
  153SAPE   O1316964   5.958   2.501  10.755 -0.1856 -0.1034  0.2175
  153SAPE   O1416965   5.881   2.307  10.627  0.3050 -0.2432 -0.0853
  153SAPE   O1216966   5.771   2.532  10.599 -0.1836  0.8784  0.9329
  153SAPE   O1116967   5.999   2.494  10.506 -0.9417 -0.1628 -0.1757
  153SAPE    C116968   5.977   2.436  10.374 -0.2279 -0.1453 -0.1802
  153SAPE    HA16969   6.060   2.364  10.354 -0.7616 -0.3755 -1.6737
  153SAPE    HB16970   5.885   2.375  10.360  0.9726 -1.6598 -2.1154
  153SAPE    C216971   5.978   2.552  10.275  0.1142 -0.3398 -0.0278
  153SAPE    HS16972   5.903   2.625  10.311  0.5096  0.2029 -0.2841
  153SAPE   O2116973   5.945   2.485  10.152  0.0868 -0.4754 -0.7558
  153SAPE   C2116974   5.864   2.551  10.073 -0.2485 -0.5914 -0.0752
  153SAPE   O2216975   5.806   2.657  10.107  0.0518 -0.3424  0.5006
  153SAPE   C2216976   5.827   2.465   9.951 -0.2944 -0.4922  0.9006
  153SAPE   H2R16977   5.816   2.361   9.989 -3.1524  0.1680  2.1404
  153SAPE   H2S16978   5.722   2.491   9.924 -1.1299 -2.1494  2.3286
  153SAPE    C316979   6.115   2.625  10.278 -0.4999  0.0484 -0.0546
  153SAPE    HX16980   6.198   2.552  10.284 -1.3952 -0.8295  2.9120
  153SAPE    HY16981   6.123   2.688  10.369 -2.0283  1.1081 -0.5987
  153SAPE   O3116982   6.133   2.709  10.163  0.3549 -0.5286 -0.0783
  153SAPE   C3116983   6.087   2.829  10.171  0.2529  0.1822  0.1932
  153SAPE   O3216984   6.033   2.886  10.269 -0.2557  0.8428  0.1750
  153SAPE   C3216985   6.099   2.899  10.031  0.3763 -0.3954  0.0564
  153SAPE   H2X16986   6.207   2.924  10.026  0.1077  1.1581  1.1828
  153SAPE   H2Y16987   6.040   2.992  10.047 -0.7599 -0.3913 -3.3099
  153SAPE   C2316988   5.928   2.473   9.825 -0.3937 -0.2529  0.6177
  153SAPE   H3R16989   6.027   2.442   9.864  0.2872 -0.9716 -1.5322
  153SAPE   H3S16990   5.932   2.581   9.798  0.7142 -0.2836  0.6104
  153SAPE   C2416991   5.889   2.399   9.696 -0.1695 -0.6938 -0.8854
  153SAPE   H4R16992   5.973   2.405   9.624  1.2696  0.1281  0.7602
  153SAPE   H4S16993   5.801   2.452   9.656 -1.3109 -1.7860  0.0581
  153SAPE   C2516994   5.840   2.252   9.712 -1.0378  1.0360  0.2814
  153SAPE   H5R16995   5.785   2.232   9.806  0.2611 -1.6858  0.5674
  153SAPE   C2616996   5.867   2.148   9.636  0.2903  0.6867  0.8496
  153SAPE   H6R16997   5.816   2.052   9.654 -1.6686  1.7741  1.4292
  153SAPE   C2716998   5.947   2.156   9.512  0.2603  0.3021 -0.5599
  153SAPE   H7R16999   5.985   2.056   9.485 -2.6765 -0.7142 -1.2993
  153SAPE   H7S17000   6.036   2.219   9.532  0.9912 -0.7804 -0.3599
  153SAPE   C2817001   5.881   2.213   9.392  0.0645 -0.1254  0.1921
  153SAPE   H8R17002   5.780   2.249   9.416 -0.6701 -1.8795 -0.1064
  153SAPE   C2917003   5.922   2.211   9.270  0.0462 -0.4983  0.5015
  153SAPE   H9R17004   5.851   2.265   9.205 -1.4745 -1.1818  1.5363
  153SAPE  C21017005   6.047   2.147   9.217 -0.0554 -0.5109  0.5994
  153SAPE  H10R17006   6.080   2.065   9.285  2.1115 -0.6585 -0.5226
  153SAPE  H10S17007   6.131   2.220   9.224 -0.3662 -0.1400  0.4834
  153SAPE  C21117008   6.026   2.085   9.082 -0.3503  0.0532 -0.1092
  153SAPE  H11R17009   5.931   2.030   9.070  1.6280 -3.7024 -0.1546
  153SAPE  C21217010   6.118   2.082   8.976 -0.2046  0.2414  0.6374
  153SAPE  H12R17011   6.081   2.038   8.883 -0.5241  0.5411  0.6171
  153SAPE  C21317012   6.253   2.145   8.960 -1.3675  0.1984 -0.7398
  153SAPE  H13R17013   6.278   2.211   9.046  1.6693 -0.5236 -0.9671
  153SAPE  H13S17014   6.258   2.212   8.872  0.8594  2.5050  0.9974
  153SAPE  C21417015   6.356   2.034   8.941 -0.6616  0.5806  0.1706
  153SAPE  H14R17016   6.357   1.960   9.022 -0.8170  0.3848 -0.0070
  153SAPE  C21517017   6.441   2.014   8.837  0.0708 -0.2912 -0.3521
  153SAPE  H15R17018   6.513   1.931   8.840  0.7331  0.2796 -0.1725
  153SAPE  C21617019   6.451   2.094   8.712 -0.3565 -1.0033  0.4097
  153SAPE  H16R17020   6.539   2.162   8.713 -1.1296  0.0095  1.8550
  153SAPE  H16S17021   6.360   2.156   8.701  0.6598  0.3365 -0.8716
  153SAPE  C21717022   6.456   1.998   8.594 -0.2390  0.5594 -0.5048
  153SAPE  H17R17023   6.351   1.971   8.569 -0.2581  0.6147 -0.4858
  153SAPE  H17S17024   6.515   1.908   8.621 -0.7651  0.1367 -0.7467
  153SAPE  C21817025   6.525   2.060   8.463  0.0054 -0.3009 -0.0847
  153SAPE  H18R17026   6.487   2.162   8.438 -0.2587 -0.6423 -1.1589
  153SAPE  H18S17027   6.511   1.989   8.378 -1.2551 -1.6181  1.1779
  153SAPE  C21917028   6.675   2.087   8.478  0.4974  0.2925 -1.0132
  153SAPE  H19R17029   6.727   1.991   8.499 -1.6672 -0.8104 -0.3585
  153SAPE  H19S17030   6.700   2.159   8.559  2.3268 -0.9817 -0.3911
  153SAPE  C22017031   6.738   2.130   8.349  0.1329 -0.2386 -0.2201
  153SAPE  H20R17032   6.849   2.134   8.355  0.2683 -0.4746 -2.0544
  153SAPE  H20S17033   6.696   2.225   8.309 -0.5834 -0.5437 -0.1910
  153SAPE  H20T17034   6.722   2.058   8.266  2.2245 -1.4455  0.3333
  153SAPE   C3317035   6.063   2.820   9.905 -0.5406 -0.5526  0.3745
  153SAPE   H3X17036   5.953   2.804   9.915 -0.3889 -2.1932 -0.2839
  153SAPE   H3Y17037   6.107   2.720   9.889 -0.0953 -0.1605 -1.1079
  153SAPE   C3417038   6.099   2.901   9.775  0.6377 -0.3702  0.0653
  153SAPE   H4X17039   6.208   2.903   9.752  0.7459  0.5465  0.6174
  153SAPE   H4Y17040   6.070   3.008   9.785  1.2451 -0.0565 -1.3198
  153SAPE   C3517041   6.033   2.838   9.654  0.7495  0.1823  0.6234
  153SAPE   H5X17042   5.923   2.827   9.665  0.8511 -0.9728  0.5489
  153SAPE   H5Y17043   6.065   2.733   9.638  0.5403  0.5348 -3.0892
  153SAPE   C3617044   6.066   2.918   9.521  0.0722  0.5060 -0.0701
  153SAPE   H6X17045   6.177   2.923   9.512 -0.1236  3.5948 -1.9079
  153SAPE   H6Y17046   6.038   3.025   9.532 -0.2225  0.3733  0.4844
  153SAPE   C3717047   6.012   2.847   9.394 -0.1357 -0.4955  0.0807
  153SAPE   H7X17048   5.903   2.830   9.409 -0.8337  2.0896 -1.3218
  153SAPE   H7Y17049   6.056   2.746   9.381 -1.9302 -1.1792 -1.2064
  153SAPE   C3817050   6.041   2.945   9.281 -1.0533  0.1329  0.6088
  153SAPE   H8X17051   6.040   2.890   9.184  1.0533  2.3165 -0.7795
  153SAPE   H8Y17052   6.144   2.983   9.296 -1.5231  2.0540 -0.6427
  153SAPE   C3917053   5.957   3.079   9.265  0.6771 -0.0500  0.5280
  153SAPE   H9X17054   5.991   3.133   9.175 -0.1403 -2.0667 -1.0824
  153SAPE   H9Y17055   5.980   3.155   9.343  2.3680  3.2290 -2.8626
  153SAPE  C31017056   5.806   3.067   9.256  0.7230 -0.5230  0.1484
  153SAPE  H10X17057   5.752   3.164   9.244 -0.1147 -1.1282 -1.1735
  153SAPE  H10Y17058   5.758   3.027   9.347 -1.6432 -0.2500 -0.9048
  153SAPE  C31117059   5.757   2.983   9.137 -0.1216  0.3100  0.0445
  153SAPE  H11X17060   5.773   2.875   9.156 -1.9574  0.1434  0.8625
  153SAPE  H11Y17061   5.807   3.015   9.043 -3.0362  0.4271 -1.5756
  153SAPE  C31217062   5.609   3.002   9.112  0.1001  0.2047 -0.0321
  153SAPE  H12X17063   5.577   3.107   9.130 -0.4459 -0.1331  1.0568
  153SAPE  H12Y17064   5.561   2.929   9.180  0.9195 -0.6841 -0.3731
  153SAPE  C31317065   5.570   2.969   8.967 -0.0717  0.2020 -0.7969
  153SAPE  H13X17066   5.626   2.877   8.942  2.2272  1.7748 -1.7443
  153SAPE  H13Y17067   5.624   3.050   8.914  2.4203 -0.9641 -0.2077
  153SAPE  C31417068   5.420   2.958   8.953  0.6962 -0.2893 -0.0431
  153SAPE  H14X17069   5.386   3.058   8.985 -3.0152 -1.7643  1.2302
  153SAPE  H14Y17070   5.371   2.882   9.018  2.0543  0.0283  1.3969
  153SAPE  C31517071   5.393   2.935   8.800 -0.3349  0.6143 -0.3046
  153SAPE  H15X17072   5.440   2.839   8.770 -1.1848 -0.4918  1.6808
  153SAPE  H15Y17073   5.434   3.023   8.747  0.3120  1.7902  2.0639
  153SAPE  C31617074   5.248   2.911   8.767 -0.5410  0.2919 -0.1642
  153SAPE  H16X17075   5.186   2.985   8.822 -1.2440 -0.3737 -0.0280
  153SAPE  H16Y17076   5.234   2.809   8.811 -1.0265  0.3951 -0.0776
  153SAPE  C31717077   5.221   2.904   8.615 -0.5233  0.0014  0.6964
  153SAPE  H17X17078   5.288   2.830   8.567  0.8877  1.3136  0.5745
  153SAPE  H17Y17079   5.241   2.996   8.556 -0.9471 -0.3423  0.0089
  153SAPE  C31817080   5.072   2.855   8.595  0.1698  0.5055  0.0217
  153SAPE  H18X17081   5.055   2.747   8.614 -0.2848  0.8073  1.5345
  153SAPE  H18Y17082   5.048   2.879   8.489  0.7747 -1.2622 -0.5492
  153SAPE  H18Z17083   5.008   2.906   8.671  0.1441 -0.7296  0.8579
  154SAPE     N17084   6.567   3.333  10.936 -0.3557 -0.1100  0.5197
  154SAPE   HN117085   6.511   3.268  10.877  0.0293 -0.8736  0.9943
  154SAPE   HN217086   6.535   3.339  11.035  0.4080  2.2939  0.6997
  154SAPE   HN317087   6.558   3.430  10.899  0.3162 -0.8557 -1.7431
  154SAPE   C1217088   6.716   3.296  10.928 -0.3686 -0.3759 -0.2718
  154SAPE  H12A17089   6.720   3.199  10.981 -1.2863  0.4043  1.2956
  154SAPE  H12B17090   6.768   3.368  10.995  0.6541 -0.8170 -0.5654
  154SAPE   C1117091   6.774   3.308  10.782 -0.5373  0.0041 -0.1344
  154SAPE  H11A17092   6.881   3.277  10.777 -0.4685  0.2854 -0.4775
  154SAPE  H11B17093   6.761   3.414  10.750  0.8146  0.7470  1.5833
  154SAPE     P17094   6.733   3.092  10.636  0.1131  0.2583  0.8221
  154SAPE   O1317095   6.760   3.000  10.750 -0.6760  0.3244 -0.3493
  154SAPE   O1417096   6.634   3.051  10.537  0.5221  0.1275 -0.0891
  154SAPE   O1217097   6.690   3.237  10.688 -0.1206  0.4308 -0.3321
  154SAPE   O1117098   6.873   3.114  10.556  0.1230 -0.0895 -0.5953
  154SAPE    C117099   6.873   3.203  10.441  0.0989 -0.0883  0.2503
  154SAPE    HA17100   6.801   3.287  10.450  0.3688  0.1747  0.0203
  154SAPE    HB17101   6.973   3.247  10.420  0.3960 -0.4984  0.7759
  154SAPE    C217102   6.836   3.120  10.310  0.1736  0.3447 -0.3315
  154SAPE    HS17103   6.748   3.059  10.341  1.6574 -0.8836  1.6776
  154SAPE   O2117104   6.948   3.036  10.264  0.1198  0.6056  0.5296
  154SAPE   C2117105   6.925   2.902  10.245 -0.6188 -0.5551 -0.0887
  154SAPE   O2217106   6.814   2.852  10.241  0.5835  0.6011 -0.1462
  154SAPE   C2217107   7.052   2.821  10.213 -0.3620 -0.0027  0.3376
  154SAPE   H2R17108   7.134   2.881  10.259  0.6712 -0.0144 -1.3943
  154SAPE   H2S17109   7.048   2.717  10.251 -0.1433 -2.0089 -4.5313
  154SAPE    C317110   6.789   3.202  10.192  0.4206 -0.1023 -0.0464
  154SAPE    HX17111   6.871   3.264  10.150  0.9542 -2.0632 -2.0622
  154SAPE    HY17112   6.710   3.270  10.230  0.7938 -0.5974  1.6939
  154SAPE   O3117113   6.734   3.117  10.087 -0.3676 -0.6246 -0.0609
  154SAPE   C3117114   6.601   3.099  10.091 -0.2287  0.1128  0.4277
  154SAPE   O3217115   6.521   3.146  10.169 -0.1096 -0.1623  0.1623
  154SAPE   C3217116   6.550   3.009   9.980 -0.2181 -0.1844  0.0477
  154SAPE   H2X17117   6.442   3.007  10.006 -0.6243  2.0448 -1.1624
  154SAPE   H2Y17118   6.603   2.913   9.995  1.1427  0.5773  0.3377
  154SAPE   C2317119   7.090   2.821  10.060  0.1605  0.5531 -0.1778
  154SAPE   H3R17120   7.182   2.761  10.042 -0.5608 -0.1462 -1.8182
  154SAPE   H3S17121   7.112   2.921  10.017 -0.9829  0.2763 -1.4723
  154SAPE   C2417122   6.986   2.737   9.972 -0.2219  0.2387 -0.3451
  154SAPE   H4R17123   6.901   2.693  10.030 -0.2004 -0.5598 -0.8988
  154SAPE   H4S17124   7.038   2.655   9.918  0.5724  0.7936 -0.4359
  154SAPE   C2517125   6.920   2.838   9.879 -0.2892  0.3816  0.0237
  154SAPE   H5R17126   6.853   2.907   9.931 -0.0522  1.0853 -0.5898
  154SAPE   C2617127   6.952   2.861   9.751 -0.4504 -0.3864  0.1545
  154SAPE   H6R17128   6.892   2.939   9.702  2.0535  0.7248 -1.3115
  154SAPE   C2717129   7.058   2.786   9.665  0.8915  0.1215 -0.3082
  154SAPE   H7R17130   7.136   2.748   9.734 -0.4056 -0.2400  1.0079
  154SAPE   H7S17131   7.092   2.858   9.588  1.2084  0.1530 -0.1397
  154SAPE   C2817132   6.987   2.665   9.611 -0.0558 -0.0985  0.8533
  154SAPE   H8R17133   6.978   2.584   9.685  0.8971  0.5175  1.6889
  154SAPE   C2917134   6.929   2.640   9.488  0.1368  0.0468  0.6778
  154SAPE   H9R17135   6.880   2.545   9.464 -0.1432  0.3134  0.1644
  154SAPE  C21017136   6.936   2.730   9.369  0.1349 -0.3105 -1.1253
  154SAPE  H10R17137   7.013   2.692   9.298  2.3314  0.3695  0.7736
  154SAPE  H10S17138   6.973   2.831   9.395 -0.6285 -0.2579 -0.1840
  154SAPE  C21117139   6.803   2.761   9.310  0.1712  0.5867 -0.1277
  154SAPE  H11R17140   6.750   2.843   9.361  2.7680  0.1661  3.7256
  154SAPE  C21217141   6.744   2.687   9.208  1.1191  0.1019  0.4805
  154SAPE  H12R17142   6.646   2.706   9.161  2.0971  3.7708 -0.3904
  154SAPE  C21317143   6.816   2.576   9.137  0.0353  0.0597  0.0024
  154SAPE  H13R17144   6.882   2.521   9.207  0.0167  0.4964  0.3679
  154SAPE  H13S17145   6.869   2.616   9.048 -0.9266 -1.2628 -1.2151
  154SAPE  C21417146   6.720   2.469   9.098  0.2224 -0.1256 -0.0790
  154SAPE  H14R17147   6.682   2.402   9.176  0.7765  3.3897  3.5382
  154SAPE  C21517148   6.682   2.452   8.971  0.3475  0.8956  0.0131
  154SAPE  H15R17149   6.615   2.367   8.953 -1.1968  1.7085  1.5782
  154SAPE  C21617150   6.723   2.533   8.849 -0.0549  0.6588  0.8270
  154SAPE  H16R17151   6.792   2.616   8.873  0.2916  0.2454  1.2886
  154SAPE  H16S17152   6.638   2.577   8.792  1.4462 -0.7755 -2.8290
  154SAPE  C21717153   6.810   2.457   8.751  0.7564 -0.7201  0.2404
  154SAPE  H17R17154   6.751   2.379   8.699 -1.7825  1.1494  0.1011
  154SAPE  H17S17155   6.893   2.412   8.808 -0.3995  0.4993  3.0694
  154SAPE  C21817156   6.884   2.558   8.653 -0.4514 -0.2958 -0.9189
  154SAPE  H18R17157   6.942   2.486   8.592  1.2300  0.1187  0.1170
  154SAPE  H18S17158   6.948   2.624   8.715  0.7661  0.9086 -3.3455
  154SAPE  C21917159   6.789   2.656   8.567  0.4276  0.4907 -0.9790
  154SAPE  H19R17160   6.748   2.744   8.621  0.5045  1.7360 -2.8697
  154SAPE  H19S17161   6.704   2.590   8.539 -0.7642  1.8877 -0.7971
  154SAPE  C22017162   6.846   2.707   8.434  0.0095 -0.3278  0.0170
  154SAPE  H20R17163   6.891   2.808   8.449  1.9780 -1.1665 -0.0542
  154SAPE  H20S17164   6.760   2.717   8.364  0.4339 -0.9558 -0.6018
  154SAPE  H20T17165   6.922   2.637   8.394  0.9383  0.7437 -0.1491
  154SAPE   C3317166   6.580   3.061   9.845 -0.1343  0.3761  0.5560
  154SAPE   H3X17167   6.685   3.091   9.825 -0.9309  3.3648  0.4325
  154SAPE   H3Y17168   6.535   3.161   9.828 -1.4329 -0.0573  1.3279
  154SAPE   C3417169   6.539   2.968   9.728  0.0497 -0.2024  0.9911
  154SAPE   H4X17170   6.435   2.929   9.724 -0.2985  0.8470 -0.9023
  154SAPE   H4Y17171   6.612   2.885   9.712 -1.4275 -2.2961  4.0481
  154SAPE   C3517172   6.550   3.048   9.591  0.1805 -0.9173 -0.1635
  154SAPE   H5X17173   6.656   3.077   9.571 -0.2344 -0.2343 -1.4734
  154SAPE   H5Y17174   6.502   3.148   9.602  0.2259 -1.0204  1.1053
  154SAPE   C3617175   6.496   2.982   9.466 -0.9097 -0.1365  0.0439
  154SAPE   H6X17176   6.391   2.957   9.493 -1.3860  1.2945 -0.4003
  154SAPE   H6Y17177   6.566   2.899   9.445  2.5320  3.1511 -3.2015
  154SAPE   C3717178   6.505   3.070   9.339  0.7349 -0.2393 -0.8403
  154SAPE   H7X17179   6.613   3.087   9.316  0.8651  0.6091  0.3424
  154SAPE   H7Y17180   6.461   3.170   9.357  1.8734  0.0206  0.7716
  154SAPE   C3817181   6.440   3.001   9.219 -0.8233  0.6431 -0.5299
  154SAPE   H8X17182   6.339   2.964   9.250  0.0193 -0.8528  0.5720
  154SAPE   H8Y17183   6.505   2.920   9.181  2.0137  1.1541  2.7830
  154SAPE   C3917184   6.416   3.102   9.111 -0.3715 -0.8207  0.7785
  154SAPE   H9X17185   6.492   3.182   9.119 -2.1169  0.8231  1.8521
  154SAPE   H9Y17186   6.322   3.161   9.122 -0.7303 -1.4997  1.3830
  154SAPE  C31017187   6.433   3.037   8.972 -0.2647 -0.1669  0.4158
  154SAPE  H10X17188   6.523   2.973   8.982 -0.8138 -1.0320 -0.0192
  154SAPE  H10Y17189   6.454   3.114   8.895 -0.2173 -0.4980  0.0904
  154SAPE  C31117190   6.316   2.949   8.921 -0.6178 -0.5425 -0.3843
  154SAPE  H11X17191   6.305   2.874   9.001  1.4236  1.1885  1.6407
  154SAPE  H11Y17192   6.332   2.901   8.822 -0.7279  1.0233 -1.2059
  154SAPE  C31217193   6.177   3.025   8.920  0.2603  0.1022  0.6069
  154SAPE  H12X17194   6.196   3.111   8.853  0.1144  0.4315  0.9856
  154SAPE  H12Y17195   6.146   3.065   9.019  1.1216  1.5744  0.3067
  154SAPE  C31317196   6.065   2.945   8.853 -1.2313  0.2657 -0.0774
  154SAPE  H13X17197   6.016   2.885   8.932  0.4621 -1.2065 -0.0725
  154SAPE  H13Y17198   6.114   2.881   8.776 -0.6919  0.4847  0.0770
  154SAPE  C31417199   5.959   3.023   8.776 -0.0386 -0.3626  0.2871
  154SAPE  H14X17200   6.007   3.079   8.692  1.2114 -1.0204  0.5317
  154SAPE  H14Y17201   5.903   3.086   8.848  0.0862 -0.9465  0.9002
  154SAPE  C31517202   5.860   2.933   8.699 -0.2959  0.1138  0.2892
  154SAPE  H15X17203   5.824   2.850   8.764 -2.1372  0.8765  0.2920
  154SAPE  H15Y17204   5.918   2.891   8.614 -0.8505  0.2349 -0.1608
  154SAPE  C31617205   5.745   3.014   8.633  0.1877  0.3361  0.2899
  154SAPE  H16X17206   5.793   3.094   8.571 -0.8354  0.4330 -0.4034
  154SAPE  H16Y17207   5.685   3.056   8.716 -0.0778  1.2122 -0.3283
  154SAPE  C31717208   5.675   2.928   8.530  0.8109  0.8293  0.4920
  154SAPE  H17X17209   5.634   2.840   8.585 -1.2253  1.0883 -0.5313
  154SAPE  H17Y17210   5.749   2.891   8.457  0.4459 -1.3613  1.1591
  154SAPE  C31817211   5.567   3.003   8.446  0.1322 -1.2301 -0.1705
  154SAPE  H18X17212   5.506   3.059   8.520  0.6340 -0.3137 -0.4437
  154SAPE  H18Y17213   5.509   2.926   8.390 -1.5557 -1.1544  1.4025
  154SAPE  H18Z17214   5.609   3.080   8.377  1.8102 -0.8497  1.2053
  155SAPE     N17215   0.409   4.489  10.618 -0.0344 -0.1597  0.5017
  155SAPE   HN117216   0.470   4.430  10.558  0.5871 -0.2281  1.1761
  155SAPE   HN217217   0.459   4.579  10.606  1.5323 -1.0415  0.0760
  155SAPE   HN317218   0.426   4.464  10.718 -0.8246 -1.1584  0.4014
  155SAPE   C1217219   0.266   4.504  10.591  0.2355 -0.0890 -0.4641
  155SAPE  H12A17220   0.217   4.406  10.609 -2.5291  1.3966  0.6638
  155SAPE  H12B17221   0.259   4.526  10.482 -0.7374  2.3908  0.0396
  155SAPE   C1117222   0.195   4.616  10.665 -0.0295 -0.1698 -0.4283
  155SAPE  H11A17223   0.089   4.609  10.632  0.2095 -3.5655 -0.8616
  155SAPE  H11B17224   0.238   4.716  10.645  1.7490 -0.9984 -0.9288
  155SAPE     P17225   0.124   4.659  10.916 -0.2966 -0.2621 -0.2728
  155SAPE   O1317226   0.049   4.552  10.992 -0.2344  0.0676  0.1513
  155SAPE   O1417227   0.223   4.746  10.990 -0.0262 -0.0973  0.5954
  155SAPE   O1217228   0.206   4.585  10.809 -0.5755  0.1426  0.4337
  155SAPE   O1117229   0.025   4.747  10.827  0.6205  0.1848 -0.5665
  155SAPE    C117230   0.049   4.888  10.823  0.3040 -0.4640 -0.1138
  155SAPE    HA17231   0.026   4.931  10.922  0.7834 -1.0977  0.2802
  155SAPE    HB17232   0.154   4.914  10.801 -0.0533  1.8718  0.6914
  155SAPE    C217233  -0.035   4.960  10.713  0.2553  0.1361 -0.2645
  155SAPE    HS17234  -0.140   4.949  10.747  1.3067 -1.9065  2.6006
  155SAPE   O2117235  -0.011   4.886  10.591  0.4562 -0.0093  0.3089
  155SAPE   C2117236  -0.117   4.884  10.507 -0.8985 -0.5464  0.3223
  155SAPE   O2217237  -0.233   4.900  10.539 -1.0819 -0.5778 -0.4126
  155SAPE   C2217238  -0.068   4.840  10.360 -0.0108  0.6212  0.1379
  155SAPE   H2R17239   0.013   4.765  10.366 -1.8792 -1.7342 -1.7586
  155SAPE   H2S17240  -0.153   4.785  10.314 -0.3764  1.0828  0.2620
  155SAPE    C317241  -0.013   5.115  10.700 -0.0258  0.6737 -0.7421
  155SAPE    HX17242   0.089   5.137  10.662  0.0560  1.2915 -0.1748
  155SAPE    HY17243  -0.018   5.156  10.803 -0.0827 -1.4604  0.1556
  155SAPE   O3117244  -0.101   5.190  10.611 -0.2782 -0.2032  0.3968
  155SAPE   C3117245  -0.226   5.211  10.656 -0.4166 -0.5569  0.0377
  155SAPE   O3217246  -0.272   5.172  10.765 -0.3730 -0.4283  0.3355
  155SAPE   C3217247  -0.305   5.285  10.556  0.0068 -0.1921 -0.1985
  155SAPE   H2X17248  -0.260   5.290  10.455 -1.1285  0.7711 -0.6773
  155SAPE   H2Y17249  -0.331   5.388  10.589  0.8911 -0.0344  0.0162
  155SAPE   C2317250  -0.029   4.961  10.273 -0.3664  0.1591  0.2530
  155SAPE   H3R17251   0.016   4.934  10.176 -3.3243  0.8109 -1.4333
  155SAPE   H3S17252   0.050   5.018  10.327 -0.0424 -0.7354  0.7364
  155SAPE   C2417253  -0.147   5.051  10.224 -0.4395  0.0218 -0.4851
  155SAPE   H4R17254  -0.109   5.135  10.163 -2.1082 -0.8487 -2.9033
  155SAPE   H4S17255  -0.192   5.103  10.312 -2.0678 -0.6921 -0.8520
  155SAPE   C2517256  -0.258   4.983  10.158 -0.4993 -0.1455 -0.4409
  155SAPE   H5R17257  -0.342   4.968  10.227 -0.0992  1.3144  0.3989
  155SAPE   C2617258  -0.275   4.958  10.026  0.2856  0.0222 -0.4515
  155SAPE   H6R17259  -0.357   4.889  10.001 -1.1843  1.5200 -0.0034
  155SAPE   C2717260  -0.177   4.999   9.914 -0.3229 -0.0459 -0.7103
  155SAPE   H7R17261  -0.074   5.023   9.948 -0.1589 -1.8968  0.2236
  155SAPE   H7S17262  -0.216   5.088   9.859  0.0504  0.0643 -0.8061
  155SAPE   C2817263  -0.159   4.878   9.822  0.3665  0.0300 -0.1702
  155SAPE   H8R17264  -0.128   4.789   9.877 -0.9073 -0.2142  0.1917
  155SAPE   C2917265  -0.167   4.871   9.691 -0.7094 -0.2614  0.2708
  155SAPE   H9R17266  -0.143   4.777   9.640 -1.8464  0.2792 -1.3178
  155SAPE  C21017267  -0.195   4.991   9.611 -0.2216  0.1287 -0.3834
  155SAPE  H10R17268  -0.099   5.018   9.562  0.6569 -0.3821  0.9626
  155SAPE  H10S17269  -0.230   5.081   9.666  0.2304 -0.8597  1.6141
  155SAPE  C21117270  -0.306   4.954   9.518 -0.1204  0.2725  0.5933
  155SAPE  H11R17271  -0.405   4.973   9.562 -0.2970  1.8341 -0.3701
  155SAPE  C21217272  -0.297   4.909   9.386  0.2390 -0.3532 -0.1917
  155SAPE  H12R17273  -0.396   4.886   9.342  1.0096 -0.2162 -2.0815
  155SAPE  C21317274  -0.172   4.869   9.307 -0.5187  0.5613  0.1944
  155SAPE  H13R17275  -0.096   4.843   9.383  1.0173  0.5212 -1.2835
  155SAPE  H13S17276  -0.135   4.958   9.251 -2.6340  0.7464 -1.0301
  155SAPE  C21417277  -0.206   4.748   9.217 -0.0346  0.2855  0.2769
  155SAPE  H14R17278  -0.261   4.669   9.269  0.4151  0.5796  1.2160
  155SAPE  C21517279  -0.195   4.733   9.086 -0.1131 -0.1534 -0.0316
  155SAPE  H15R17280  -0.207   4.639   9.031  1.6097  1.0712 -2.7076
  155SAPE  C21617281  -0.137   4.839   8.991 -0.7346  0.3512 -0.2966
  155SAPE  H16R17282  -0.027   4.846   8.985 -0.5093 -2.5720 -0.8060
  155SAPE  H16S17283  -0.167   4.940   9.027 -0.6776  0.5530 -0.8209
  155SAPE  C21717284  -0.189   4.817   8.847  0.3794 -0.3022  0.1866
  155SAPE  H17R17285  -0.170   4.714   8.809  0.1042  0.4678 -2.2548
  155SAPE  H17S17286  -0.141   4.890   8.777 -2.2876  1.0044 -0.3788
  155SAPE  C21817287  -0.343   4.842   8.845  0.2639 -0.1912 -0.3559
  155SAPE  H18R17288  -0.376   4.936   8.896  0.4440 -0.2441 -0.1396
  155SAPE  H18S17289  -0.385   4.762   8.910 -0.8209  0.4029 -0.3027
  155SAPE  C21917290  -0.414   4.829   8.718 -0.0390  0.7721  0.3215
  155SAPE  H19R17291  -0.382   4.906   8.644  0.2996 -0.1567 -0.5274
  155SAPE  H19S17292  -0.523   4.841   8.734 -0.2798  0.4758 -0.9881
  155SAPE  C22017293  -0.392   4.689   8.654  0.1669 -0.3840  0.7703
  155SAPE  H20R17294  -0.466   4.675   8.573  0.3607  0.0987  0.5037
  155SAPE  H20S17295  -0.406   4.607   8.728 -1.9063  0.3249  1.2381
  155SAPE  H20T17296  -0.293   4.691   8.603 -0.5206 -0.3427 -0.5828
  155SAPE   C3317297  -0.446   5.229  10.538 -0.1454  0.2165 -0.0032
  155SAPE   H3X17298  -0.492   5.307  10.473  2.0292  0.4140 -1.4084
  155SAPE   H3Y17299  -0.498   5.225  10.636 -0.2883  2.7544  0.0966
  155SAPE   C3417300  -0.468   5.089  10.468  0.7569 -0.0738  0.6292
  155SAPE   H4X17301  -0.448   5.002  10.535 -1.7170 -1.0689  0.1931
  155SAPE   H4Y17302  -0.391   5.095  10.388  0.4408  0.5861  0.3696
  155SAPE   C3517303  -0.612   5.085  10.413  0.5825 -0.1940 -0.3763
  155SAPE   H5X17304  -0.618   5.129  10.311 -1.2178 -0.7550 -0.5606
  155SAPE   H5Y17305  -0.683   5.145  10.475 -0.5896  0.4419 -2.2523
  155SAPE   C3617306  -0.672   4.941  10.399 -0.0381  0.4623  0.2297
  155SAPE   H6X17307  -0.783   4.947  10.401 -0.1985 -1.4224 -0.6373
  155SAPE   H6Y17308  -0.646   4.878  10.487  1.0703  0.5937  0.0066
  155SAPE   C3717309  -0.616   4.879  10.270  0.1778 -0.2989  0.7107
  155SAPE   H7X17310  -0.515   4.831  10.279 -0.0982 -1.1150 -0.3752
  155SAPE   H7Y17311  -0.609   4.949  10.185  1.5545 -1.0508  0.1712
  155SAPE   C3817312  -0.715   4.774  10.215 -0.5100 -0.8505  0.7052
  155SAPE   H8X17313  -0.807   4.830  10.189 -1.2424 -2.1803  0.3762
  155SAPE   H8Y17314  -0.748   4.693  10.282  1.0731 -2.6658 -0.5884
  155SAPE   C3917315  -0.657   4.716  10.090 -0.1394  0.3107 -0.3798
  155SAPE   H9X17316  -0.688   4.610  10.082 -0.4749  0.4059 -0.3457
  155SAPE   H9Y17317  -0.547   4.703  10.090 -0.2682 -1.0208 -1.6682
  155SAPE  C31017318  -0.712   4.776   9.967 -0.4752  0.6326 -0.0209
  155SAPE  H10X17319  -0.676   4.881   9.969 -1.5629  1.0566 -1.4292
  155SAPE  H10Y17320  -0.823   4.770   9.966 -0.4380 -0.2139 -0.4824
  155SAPE  C31117321  -0.661   4.711   9.834 -0.0593 -0.7123  0.0284
  155SAPE  H11X17322  -0.749   4.652   9.800 -2.5203  2.8297 -0.2534
  155SAPE  H11Y17323  -0.573   4.648   9.859  0.0617 -0.5398  0.0365
  155SAPE  C31217324  -0.630   4.811   9.716 -0.1532 -0.0612 -0.3301
  155SAPE  H12X17325  -0.595   4.749   9.630 -0.7607  1.1071 -1.4596
  155SAPE  H12Y17326  -0.545   4.878   9.743  0.1651  0.0096 -1.4359
  155SAPE  C31317327  -0.750   4.899   9.681 -0.0890 -0.7708  0.3402
  155SAPE  H13X17328  -0.765   4.963   9.770  2.3550  0.4975 -0.0768
  155SAPE  H13Y17329  -0.841   4.837   9.664 -2.5784  2.3359  1.1825
  155SAPE  C31417330  -0.728   4.992   9.558 -0.5572  0.1929  0.1512
  155SAPE  H14X17331  -0.624   5.032   9.566 -0.3845 -0.4491  1.3836
  155SAPE  H14Y17332  -0.795   5.080   9.556 -0.2890  0.3838 -1.0674
  155SAPE  C31517333  -0.744   4.921   9.427  0.2335 -0.2755  0.4961
  155SAPE  H15X17334  -0.854   4.907   9.430 -0.4211  3.3484 -1.3302
  155SAPE  H15Y17335  -0.688   4.825   9.418  1.0146  0.1411  0.8041
  155SAPE  C31617336  -0.720   5.019   9.311  0.2600  0.1420 -0.5713
  155SAPE  H16X17337  -0.616   5.053   9.332  0.0998  0.9643 -1.0606
  155SAPE  H16Y17338  -0.785   5.108   9.317  1.0097  0.6070  1.6325
  155SAPE  C31717339  -0.727   4.966   9.171  0.2798 -0.4644 -0.2474
  155SAPE  H17X17340  -0.707   5.058   9.112  0.6557  0.4167  1.1877
  155SAPE  H17Y17341  -0.827   4.920   9.169 -1.3445  2.7800 -0.7146
  155SAPE  C31817342  -0.611   4.873   9.115 -0.7183  0.1019  0.0867
  155SAPE  H18X17343  -0.518   4.934   9.117  0.8909 -2.2473  0.4723
  155SAPE  H18Y17344  -0.635   4.853   9.009 -0.6885 -1.0388  0.2898
  155SAPE  H18Z17345  -0.611   4.771   9.157 -1.1600 -0.2986 -0.8585
  156SAPE     N17346   4.505   2.174  10.462  0.8156 -0.0592  0.6557
  156SAPE   HN117347   4.470   2.076  10.461  1.8641 -0.4460 -0.4540
  156SAPE   HN217348   4.522   2.202  10.363 -1.0458 -0.1319  0.2806
  156SAPE   HN317349   4.596   2.177  10.512  1.1115  1.1033  0.0776
  156SAPE   C1217350   4.420   2.281  10.525  0.0732  0.0519 -0.5482
  156SAPE  H12A17351   4.393   2.246  10.626 -0.6965 -1.6970 -1.3289
  156SAPE  H12B17352   4.331   2.295  10.460 -0.4011  1.7052  0.4056
  156SAPE   C1117353   4.501   2.414  10.532  0.4264  0.3308  0.0566
  156SAPE  H11A17354   4.588   2.388  10.596  0.0935 -0.6571  0.1211
  156SAPE  H11B17355   4.437   2.490  10.581  2.1673  2.0432 -0.1913
  156SAPE     P17356   4.630   2.577  10.373 -0.2749 -0.5250  0.4376
  156SAPE   O1317357   4.717   2.597  10.488  0.1956  0.1485  0.1167
  156SAPE   O1417358   4.703   2.570  10.244 -0.2660 -0.1340 -0.3921
  156SAPE   O1217359   4.543   2.449  10.399 -0.4573 -0.3095 -0.0829
  156SAPE   O1117360   4.521   2.695  10.373 -0.2251  0.3283  0.1190
  156SAPE    C117361   4.387   2.669  10.327  0.4301 -0.5786  0.1424
  156SAPE    HA17362   4.333   2.599  10.394  1.5056 -0.4751  1.1372
  156SAPE    HB17363   4.328   2.760  10.351  0.5273 -0.1607 -1.1255
  156SAPE    C217364   4.376   2.642  10.176  0.7112  0.5396  1.2021
  156SAPE    HS17365   4.438   2.552  10.153 -0.3314 -0.0539  0.6383
  156SAPE   O2117366   4.420   2.757  10.098  0.1336  0.0112  0.3423
  156SAPE   C2117367   4.466   2.723   9.980 -0.1182  0.2727 -0.3643
  156SAPE   O2217368   4.523   2.619   9.948 -0.2440 -0.5428  0.2807
  156SAPE   C2217369   4.465   2.845   9.897 -0.3955  0.9782 -0.2861
  156SAPE   H2R17370   4.366   2.891   9.913  0.7734  3.3290  0.5807
  156SAPE   H2S17371   4.549   2.908   9.934 -0.4800  0.5264  0.7310
  156SAPE    C317372   4.226   2.611  10.145  0.6405  0.1271  0.0163
  156SAPE    HX17373   4.179   2.711  10.127  0.7361  0.6271  2.2509
  156SAPE    HY17374   4.174   2.582  10.238  1.6115 -0.0125  0.5205
  156SAPE   O3117375   4.200   2.529  10.023  0.8896 -1.0956  0.1770
  156SAPE   C3117376   4.215   2.401  10.050 -0.5784 -0.7554 -0.0811
  156SAPE   O3217377   4.259   2.353  10.149 -0.7800 -0.0029 -0.2957
  156SAPE   C3217378   4.159   2.321   9.938 -0.4236 -0.5193  0.0182
  156SAPE   H2X17379   4.184   2.221   9.977  0.7538  0.2199  1.2373
  156SAPE   H2Y17380   4.205   2.349   9.840  1.1323  1.6692  1.2890
  156SAPE   C2317381   4.481   2.823   9.746  0.4682  0.4050  0.3055
  156SAPE   H3R17382   4.554   2.740   9.736 -0.9958 -1.2178  2.1459
  156SAPE   H3S17383   4.496   2.920   9.696 -0.2458  0.0659 -0.5828
  156SAPE   C2417384   4.339   2.785   9.676  0.3592  0.3583 -0.0181
  156SAPE   H4R17385   4.281   2.731   9.754 -2.5223  1.1140 -1.5089
  156SAPE   H4S17386   4.369   2.710   9.599  1.8945 -0.5240  1.3717
  156SAPE   C2517387   4.257   2.902   9.612 -0.0164 -0.2027 -0.1432
  156SAPE   H5R17388   4.231   2.984   9.681  1.0331  1.5633 -1.7519
  156SAPE   C2617389   4.215   2.905   9.487 -0.1838  0.0617 -0.0737
  156SAPE   H6R17390   4.149   2.984   9.450 -0.4559 -0.0544  0.1644
  156SAPE   C2717391   4.251   2.794   9.384 -0.0807  0.6891 -0.0012
  156SAPE   H7R17392   4.185   2.802   9.294 -0.6644 -0.7428  0.2834
  156SAPE   H7S17393   4.229   2.693   9.424  1.5685 -0.2450 -1.3022
  156SAPE   C2817394   4.396   2.778   9.348  0.1288  0.1380  0.3968
  156SAPE   H8R17395   4.473   2.823   9.412  0.1887 -0.4637  0.7549
  156SAPE   C2917396   4.446   2.721   9.236 -0.8711 -0.3779 -0.0031
  156SAPE   H9R17397   4.555   2.731   9.228 -0.8726  0.3628  0.7171
  156SAPE  C21017398   4.371   2.662   9.121 -0.8648 -0.7182  0.4494
  156SAPE  H10R17399   4.366   2.741   9.043  1.1379 -1.0758 -0.0987
  156SAPE  H10S17400   4.267   2.632   9.144 -1.2439  0.6108  0.5225
  156SAPE  C21117401   4.450   2.550   9.065 -0.6230  0.3068 -0.6005
  156SAPE  H11R17402   4.466   2.466   9.134  0.1515  0.9222 -0.0080
  156SAPE  C21217403   4.493   2.535   8.944  0.1219 -0.2183 -0.0553
  156SAPE  H12R17404   4.555   2.449   8.915 -0.2687 -0.8336  0.9046
  156SAPE  C21317405   4.469   2.629   8.829 -0.4134  0.1074 -0.0245
  156SAPE  H13R17406   4.369   2.677   8.836  0.1735  1.1344  1.8223
  156SAPE  H13S17407   4.449   2.561   8.743 -4.1823 -0.0917  0.8436
  156SAPE  C21417408   4.564   2.745   8.819  0.1528 -0.0254  0.6543
  156SAPE  H14R17409   4.582   2.802   8.911  0.5459 -0.1558  0.6618
  156SAPE  C21517410   4.622   2.790   8.706 -0.8958  0.0297 -0.1111
  156SAPE  H15R17411   4.683   2.882   8.714 -1.5467  0.4105  0.7250
  156SAPE  C21617412   4.613   2.721   8.569  0.3691 -0.6618 -1.0381
  156SAPE  H16R17413   4.526   2.758   8.512 -1.1668 -1.3768  0.7378
  156SAPE  H16S17414   4.577   2.617   8.585  0.2367 -0.6524 -1.2803
  156SAPE  C21717415   4.744   2.731   8.486  0.3076  0.5717  0.1731
  156SAPE  H17R17416   4.824   2.675   8.539 -0.6059 -0.2575  0.7292
  156SAPE  H17S17417   4.771   2.835   8.460  1.4619 -0.2131 -2.0132
  156SAPE  C21817418   4.730   2.662   8.353  0.2091  0.0374  0.4622
  156SAPE  H18R17419   4.648   2.700   8.288  0.8616  1.2783  0.3225
  156SAPE  H18S17420   4.705   2.555   8.369  1.5831 -0.3101  0.3464
  156SAPE  C21917421   4.855   2.674   8.263  0.0718 -0.1762 -0.6072
  156SAPE  H19R17422   4.952   2.650   8.312 -0.7708  0.2906  1.3966
  156SAPE  H19S17423   4.857   2.778   8.224  0.7135  0.3539  0.7855
  156SAPE  C22017424   4.843   2.576   8.143 -0.1845  0.9677 -0.0216
  156SAPE  H20R17425   4.751   2.608   8.089 -0.1367 -0.3908 -0.9640
  156SAPE  H20S17426   4.826   2.471   8.177 -1.4036  0.4251 -2.1170
  156SAPE  H20T17427   4.939   2.566   8.089  0.9956 -1.2923  2.2803
  156SAPE   C3317428   4.005   2.346   9.925  0.5871  0.1412 -0.3120
  156SAPE   H3X17429   3.978   2.448   9.888 -0.5763  0.7987  2.1088
  156SAPE   H3Y17430   3.965   2.341  10.029 -0.2409  1.7575 -0.5071
  156SAPE   C3417431   3.930   2.251   9.831 -0.1680  0.4343 -0.0896
  156SAPE   H4X17432   3.952   2.144   9.849 -0.2088  0.4968  0.3261
  156SAPE   H4Y17433   3.954   2.273   9.724  1.0432 -1.9573 -0.3698
  156SAPE   C3517434   3.777   2.278   9.838  0.5405  0.5177 -0.2942
  156SAPE   H5X17435   3.771   2.387   9.862  0.9797  0.6697 -0.8352
  156SAPE   H5Y17436   3.731   2.221   9.920 -1.8319  1.8098 -0.6343
  156SAPE   C3617437   3.711   2.253   9.693  1.2412 -0.7133 -0.8651
  156SAPE   H6X17438   3.782   2.285   9.613  0.2984  1.3627 -0.9080
  156SAPE   H6Y17439   3.615   2.308   9.695  2.1659  0.9572 -0.9095
  156SAPE   C3717440   3.678   2.104   9.674 -0.4040 -0.3070  0.0110
  156SAPE   H7X17441   3.632   2.070   9.769 -2.4597 -0.4649 -0.9937
  156SAPE   H7Y17442   3.776   2.052   9.667  0.2420  0.7780  0.7906
  156SAPE   C3817443   3.591   2.058   9.559 -0.0196 -0.1596 -0.0793
  156SAPE   H8X17444   3.493   2.110   9.563  0.1055  0.1436 -0.7422
  156SAPE   H8Y17445   3.581   1.948   9.568  0.4680 -0.0584  2.3430
  156SAPE   C3917446   3.663   2.094   9.426 -0.5453 -0.7678  0.9811
  156SAPE   H9X17447   3.759   2.037   9.419 -0.6198 -0.6633 -2.3766
  156SAPE   H9Y17448   3.677   2.204   9.423  3.8326 -1.1322 -0.0689
  156SAPE  C31017449   3.582   2.049   9.302 -0.2516 -0.4653 -0.0703
  156SAPE  H10X17450   3.474   2.060   9.327  0.1144  0.3307  1.2362
  156SAPE  H10Y17451   3.604   1.945   9.269 -0.2310 -0.1946 -0.9414
  156SAPE  C31117452   3.606   2.140   9.181  0.1278 -0.2799  0.5408
  156SAPE  H11X17453   3.715   2.144   9.160  0.4843  0.8473  2.3470
  156SAPE  H11Y17454   3.577   2.245   9.205  2.3122  0.9530 -1.7348
  156SAPE  C31217455   3.531   2.099   9.064  0.0442  0.0513  0.0378
  156SAPE  H12X17456   3.424   2.113   9.088  0.3880  1.6526  0.8115
  156SAPE  H12Y17457   3.553   1.994   9.034 -0.2508 -0.0838  0.2923
  156SAPE  C31317458   3.556   2.192   8.946  0.4181  0.0482 -0.4031
  156SAPE  H13X17459   3.498   2.282   8.976  1.0892  0.1156  0.7565
  156SAPE  H13Y17460   3.504   2.139   8.863 -0.7203  2.4500 -1.3231
  156SAPE  C31417461   3.698   2.211   8.899 -0.3178  0.4140  0.2339
  156SAPE  H14X17462   3.741   2.110   8.879 -0.8422  0.4226 -1.0351
  156SAPE  H14Y17463   3.761   2.262   8.975  2.0532 -0.8335 -0.7625
  156SAPE  C31517464   3.711   2.297   8.772 -0.2187  0.3153 -0.3095
  156SAPE  H15X17465   3.662   2.393   8.799 -1.0893 -0.5527  1.3159
  156SAPE  H15Y17466   3.649   2.237   8.701  0.4716  0.9692 -1.5043
  156SAPE  C31617467   3.856   2.323   8.724 -0.3755  0.8421  0.3422
  156SAPE  H16X17468   3.894   2.231   8.676 -1.6509 -0.4403  1.6652
  156SAPE  H16Y17469   3.914   2.356   8.813  0.0549  2.4265 -0.4873
  156SAPE  C31717470   3.863   2.446   8.634  0.1579 -0.3162  0.3928
  156SAPE  H17X17471   3.880   2.536   8.697  1.9753 -0.5702  0.3349
  156SAPE  H17Y17472   3.770   2.467   8.578  0.7545 -1.4868 -1.1053
  156SAPE  C31817473   3.976   2.447   8.531  0.4734 -0.2541 -0.4628
  156SAPE  H18X17474   4.004   2.350   8.484  1.3565  0.0920 -0.6651
  156SAPE  H18Y17475   4.066   2.486   8.583  1.6841 -1.8558 -1.2780
  156SAPE  H18Z17476   3.949   2.527   8.459 -2.6175 -0.3183  0.4741
  157SAPE     N17477   3.412   2.679  10.956 -0.3224 -0.0474 -0.1252
  157SAPE   HN117478   3.453   2.659  11.050 -1.0144  2.2493  0.7280
  157SAPE   HN217479   3.481   2.727  10.895 -0.4941 -1.1577 -1.2458
  157SAPE   HN317480   3.331   2.744  10.966 -0.2803 -0.0009 -0.0854
  157SAPE   C1217481   3.372   2.544  10.904  0.6904  0.1105 -0.4708
  157SAPE  H12A17482   3.275   2.510  10.947  1.0401 -1.0192 -0.5526
  157SAPE  H12B17483   3.465   2.484  10.915  1.1643  0.3487 -2.7100
  157SAPE   C1117484   3.365   2.566  10.753 -0.0708 -0.0710 -0.0191
  157SAPE  H11A17485   3.291   2.645  10.728  0.6089  0.8859  0.8706
  157SAPE  H11B17486   3.330   2.469  10.714 -1.8304  0.5579 -0.0874
  157SAPE     P17487   3.600   2.491  10.657  0.2604  0.6045  0.6316
  157SAPE   O1317488   3.696   2.550  10.561 -0.3643 -0.1231 -0.5045
  157SAPE   O1417489   3.659   2.423  10.774 -0.6331  0.4576  0.0145
  157SAPE   O1217490   3.493   2.595  10.705  0.6637 -0.2261  0.4594
  157SAPE   O1117491   3.515   2.388  10.583  0.0462  0.4280  0.1414
  157SAPE    C117492   3.580   2.285  10.511 -0.3309 -0.3820 -0.4892
  157SAPE    HA17493   3.683   2.311  10.480  0.7024 -2.4525  0.9431
  157SAPE    HB17494   3.586   2.196  10.577 -0.9912  0.9358  1.4149
  157SAPE    C217495   3.485   2.234  10.395  0.2347 -0.1100 -0.3991
  157SAPE    HS17496   3.544   2.158  10.339  1.8932  1.3885 -0.7804
  157SAPE   O2117497   3.444   2.341  10.307 -0.4568 -0.6292 -0.1299
  157SAPE   C2117498   3.539   2.398  10.232  0.0629  0.6969  0.1618
  157SAPE   O2217499   3.660   2.367  10.246  0.0945 -0.4607 -0.4936
  157SAPE   C2217500   3.480   2.494  10.134 -0.1595 -0.0485  0.1205
  157SAPE   H2R17501   3.370   2.485  10.138 -0.1412 -0.0132  0.8471
  157SAPE   H2S17502   3.503   2.602  10.147 -0.4693  0.3070 -2.0347
  157SAPE    C317503   3.354   2.165  10.448  0.6345  0.3139  0.8676
  157SAPE    HX17504   3.317   2.230  10.530  0.5763  2.1603 -0.5544
  157SAPE    HY17505   3.392   2.068  10.487  0.2303 -0.7677 -1.2668
  157SAPE   O3117506   3.256   2.139  10.339 -0.1827 -0.3795  0.5434
  157SAPE   C3117507   3.165   2.238  10.314 -0.0365  0.4600  0.7487
  157SAPE   O3217508   3.150   2.337  10.383  0.6793 -0.3786  0.9227
  157SAPE   C3217509   3.087   2.204  10.191  0.2781  0.5146 -0.3580
  157SAPE   H2X17510   3.056   2.308  10.166 -1.6450  1.1088  3.7290
  157SAPE   H2Y17511   2.995   2.150  10.221  1.6848 -1.0552  1.3265
  157SAPE   C2317512   3.522   2.455   9.987  0.6264  0.4978 -0.2884
  157SAPE   H3R17513   3.488   2.353   9.957 -1.1401  0.5689  1.2827
  157SAPE   H3S17514   3.633   2.456   9.986  0.6231  1.5035 -0.5876
  157SAPE   C2417515   3.466   2.554   9.881 -0.4255 -0.4756  0.1138
  157SAPE   H4R17516   3.531   2.550   9.792  1.3365  1.1198  1.2452
  157SAPE   H4S17517   3.481   2.651   9.933 -0.5327 -0.2799 -0.2202
  157SAPE   C2517518   3.328   2.527   9.850 -0.2689  0.3262 -0.4721
  157SAPE   H5R17519   3.270   2.519   9.943 -0.1695 -1.9365 -0.5620
  157SAPE   C2617520   3.265   2.517   9.727 -0.1966 -0.7345 -0.1044
  157SAPE   H6R17521   3.159   2.486   9.732 -0.4266 -0.0879 -0.6761
  157SAPE   C2717522   3.335   2.534   9.590  0.3001 -0.1993 -0.5055
  157SAPE   H7R17523   3.434   2.583   9.605  0.8100 -1.5790  0.8638
  157SAPE   H7S17524   3.269   2.602   9.531 -0.4279 -0.1087  0.4046
  157SAPE   C2817525   3.359   2.402   9.518 -0.2580  0.1818  0.8350
  157SAPE   H8R17526   3.378   2.325   9.595  0.2755  0.2875  0.8091
  157SAPE   C2917527   3.357   2.373   9.386 -0.3720  0.0060 -0.7201
  157SAPE   H9R17528   3.371   2.270   9.352 -0.8178 -0.2279 -0.2156
  157SAPE  C21017529   3.334   2.464   9.272 -0.1819  0.3942  0.6337
  157SAPE  H10R17530   3.384   2.427   9.180 -2.0354  0.6200 -0.5136
  157SAPE  H10S17531   3.370   2.567   9.294  0.0463  0.3231  0.5883
  157SAPE  C21117532   3.187   2.477   9.243  1.0897  0.6412  0.3381
  157SAPE  H11R17533   3.116   2.507   9.322 -1.5464  0.3193 -1.7923
  157SAPE  C21217534   3.122   2.469   9.124  0.4460  0.3459 -0.3112
  157SAPE  H12R17535   3.012   2.470   9.123  0.3706 -1.8210  0.1206
  157SAPE  C21317536   3.176   2.462   8.984 -0.1937 -0.3801 -0.5936
  157SAPE  H13R17537   3.096   2.477   8.908  1.9891 -1.1700 -3.2429
  157SAPE  H13S17538   3.213   2.358   8.972  0.1781 -0.7770  3.0175
  157SAPE  C21417539   3.284   2.557   8.947  0.1258  0.0941  0.2217
  157SAPE  H14R17540   3.302   2.647   9.008  0.7056 -0.9938  1.7113
  157SAPE  C21517541   3.349   2.560   8.831 -0.1240 -0.5430 -0.5331
  157SAPE  H15R17542   3.414   2.647   8.818 -0.0889 -0.4280  0.3302
  157SAPE  C21617543   3.338   2.459   8.723 -0.0166 -0.2034  0.7312
  157SAPE  H16R17544   3.257   2.387   8.748  0.5033 -0.6034  1.3169
  157SAPE  H16S17545   3.428   2.395   8.716  0.3126  0.1116  1.8583
  157SAPE  C21717546   3.338   2.529   8.587  0.3074 -0.0763  0.4375
  157SAPE  H17R17547   3.352   2.452   8.509 -1.3398 -0.0589  0.0965
  157SAPE  H17S17548   3.425   2.597   8.571  0.2779  0.1919  1.3526
  157SAPE  C21817549   3.208   2.612   8.574 -0.2931 -0.5290 -0.4527
  157SAPE  H18R17550   3.204   2.646   8.469 -0.1509 -0.5640 -0.4703
  157SAPE  H18S17551   3.217   2.702   8.638 -0.2273  0.7736 -2.2247
  157SAPE  C21917552   3.073   2.533   8.593 -0.0234 -0.2388 -0.0364
  157SAPE  H19R17553   3.072   2.493   8.696  0.9645 -0.6128 -0.1583
  157SAPE  H19S17554   3.079   2.448   8.521 -1.7767 -0.0698 -0.4059
  157SAPE  C22017555   2.959   2.630   8.579 -0.0681 -0.6826  0.0516
  157SAPE  H20R17556   2.863   2.573   8.587  0.0528 -1.4082 -2.6443
  157SAPE  H20S17557   2.952   2.679   8.479  1.0806  1.8859  1.1368
  157SAPE  H20T17558   2.976   2.710   8.654  0.7494 -0.6283 -0.1873
  157SAPE   C3317559   3.169   2.137  10.081  0.1640 -0.0947  0.0319
  157SAPE   H3X17560   3.185   2.029  10.103 -0.6802 -0.0367  1.0000
  157SAPE   H3Y17561   3.264   2.193  10.068  0.0304 -0.2405 -1.7515
  157SAPE   C3417562   3.095   2.145   9.950  0.2768 -0.0120  0.2934
  157SAPE   H4X17563   3.050   2.246   9.939 -2.0183 -1.1220 -1.1304
  157SAPE   H4Y17564   3.008   2.077   9.955 -0.5577  0.9707 -0.3438
  157SAPE   C3517565   3.170   2.111   9.820 -0.2637  0.1383 -0.3420
  157SAPE   H5X17566   3.217   2.012   9.835  1.7617  1.1895  0.6701
  157SAPE   H5Y17567   3.252   2.185   9.809  1.5381 -1.7707 -0.1617
  157SAPE   C3617568   3.096   2.120   9.690  0.7924 -0.3558 -0.1090
  157SAPE   H6X17569   3.064   2.226   9.678  0.8447 -0.3985 -0.6445
  157SAPE   H6Y17570   3.002   2.063   9.708  0.6892  0.5366  2.7146
  157SAPE   C3717571   3.176   2.063   9.575  0.7252  0.3659  0.3153
  157SAPE   H7X17572   3.189   1.955   9.594  0.0047  0.3343  0.6474
  157SAPE   H7Y17573   3.276   2.109   9.561  0.1730  1.4674 -0.1473
  157SAPE   C3817574   3.098   2.066   9.443  0.1428 -0.3111 -0.4109
  157SAPE   H8X17575   3.043   2.162   9.432 -2.1341 -1.5783 -0.7804
  157SAPE   H8Y17576   3.005   2.005   9.451  0.6393 -1.0422 -0.1703
  157SAPE   C3917577   3.155   2.033   9.305  0.2617  0.3242 -0.5945
  157SAPE   H9X17578   3.182   1.925   9.302  1.0880  0.5275 -0.7445
  157SAPE   H9Y17579   3.249   2.088   9.284 -0.5411  1.5052 -1.1645
  157SAPE  C31017580   3.055   2.045   9.185 -0.0383 -0.4942 -0.8740
  157SAPE  H10X17581   2.999   2.140   9.195  0.5826 -0.2891  1.1671
  157SAPE  H10Y17582   2.971   1.971   9.191 -1.6306  1.2614 -0.3874
  157SAPE  C31117583   3.118   2.013   9.052 -0.1283  0.2143  0.0065
  157SAPE  H11X17584   3.117   1.903   9.032  1.3830 -0.0882  1.4289
  157SAPE  H11Y17585   3.225   2.043   9.043 -0.8574  3.2793  0.3834
  157SAPE  C31217586   3.047   2.095   8.945  0.3287  0.2449 -0.2823
  157SAPE  H12X17587   3.033   2.199   8.982 -1.0895  0.2514 -0.7554
  157SAPE  H12Y17588   2.945   2.057   8.925  1.0372 -2.1583  0.3802
  157SAPE  C31317589   3.127   2.090   8.813  0.4848 -0.4299  0.3414
  157SAPE  H13X17590   3.133   1.981   8.794  0.4658 -0.5397  0.9459
  157SAPE  H13Y17591   3.224   2.137   8.841 -0.4960  2.6158 -0.9483
  157SAPE  C31417592   3.052   2.164   8.695 -0.4594  0.2262 -0.1866
  157SAPE  H14X17593   3.125   2.158   8.612 -1.9251 -0.6803 -1.4678
  157SAPE  H14Y17594   3.035   2.269   8.726  0.3798 -0.0661  1.3665
  157SAPE  C31517595   2.918   2.115   8.637  0.2249 -0.6878  0.4954
  157SAPE  H15X17596   2.891   2.193   8.563  2.4576  0.2678  0.6052
  157SAPE  H15Y17597   2.840   2.114   8.716 -0.9543  1.7650 -0.5371
  157SAPE  C31617598   2.920   1.982   8.569 -0.0809 -0.6559  0.2222
  157SAPE  H16X17599   2.827   1.961   8.511 -0.5795  1.6856  0.0867
  157SAPE  H16Y17600   2.948   1.902   8.641  1.0454 -0.8317 -0.3904
  157SAPE  C31717601   3.028   1.960   8.463  0.4100 -0.2110 -0.1470
  157SAPE  H17X17602   3.014   1.860   8.417 -0.8060  1.0504 -2.7412
  157SAPE  H17Y17603   3.128   1.971   8.510  0.7993  0.1324 -1.0356
  157SAPE  C31817604   3.011   2.046   8.338 -0.1008 -0.3537 -0.0100
  157SAPE  H18X17605   3.094   2.040   8.264 -0.4203 -0.1597 -0.3858
  157SAPE  H18Y17606   3.004   2.148   8.382 -0.6635 -0.2897 -0.2355
  157SAPE  H18Z17607   2.916   2.023   8.285 -0.6466  0.4580  0.5895
  158SAPE     N17608   4.998   2.513  10.477  0.5188 -0.1414  0.4535
  158SAPE   HN117609   5.048   2.603  10.464  2.0302 -1.0253 -0.0132
  158SAPE   HN217610   4.896   2.530  10.490  0.7126  1.0393  0.4851
  158SAPE   HN317611   5.031   2.473  10.567 -1.1066  1.2461  1.7247
  158SAPE   C1217612   5.019   2.425  10.358  0.4080 -0.4329  0.7313
  158SAPE  H12A17613   5.129   2.411  10.350  0.4972  0.8795 -0.8764
  158SAPE  H12B17614   4.975   2.478  10.271 -0.3660  0.0998  1.4407
  158SAPE   C1117615   4.942   2.298  10.375 -0.1206 -0.0422  0.7575
  158SAPE  H11A17616   4.967   2.222  10.298 -2.1492 -1.5533  1.5258
  158SAPE  H11B17617   4.837   2.325  10.354  0.0925  0.7411  0.6432
  158SAPE     P17618   4.888   2.101  10.542 -0.4675 -0.0846 -0.1266
  158SAPE   O1317619   4.980   2.040  10.636 -0.3379 -0.0197 -0.6056
  158SAPE   O1417620   4.746   2.122  10.580  0.2424 -0.2785  0.1009
  158SAPE   O1217621   4.950   2.238  10.507  0.5317  0.0098  0.0813
  158SAPE   O1117622   4.903   2.015  10.411  0.2381  0.6768  0.1484
  158SAPE    C117623   4.798   1.918  10.375  0.0462 -0.1200 -0.1750
  158SAPE    HA17624   4.789   1.846  10.459 -3.1979  0.3524  0.0299
  158SAPE    HB17625   4.700   1.969  10.361  0.3869  0.0468 -2.2125
  158SAPE    C217626   4.828   1.859  10.237  0.6402  0.9417 -0.6693
  158SAPE    HS17627   4.930   1.815  10.235 -0.3764 -1.8606  1.5279
  158SAPE   O2117628   4.804   1.965  10.141 -0.6526  0.0753  0.9370
  158SAPE   C2117629   4.907   2.030  10.095  0.3304 -0.1903  0.3849
  158SAPE   O2217630   5.024   2.000  10.107  0.6136  0.3771 -0.7033
  158SAPE   C2217631   4.857   2.159  10.031  0.3855 -0.6858  0.3298
  158SAPE   H2R17632   4.750   2.145  10.008 -0.3341  1.3208  2.0976
  158SAPE   H2S17633   4.861   2.243  10.104 -0.9496 -0.4928  0.2012
  158SAPE    C317634   4.727   1.737  10.216  0.2990 -0.2688  0.3579
  158SAPE    HX17635   4.631   1.771  10.260  0.5060  1.3027 -0.3279
  158SAPE    HY17636   4.764   1.653  10.280 -1.0524 -1.2777 -0.1527
  158SAPE   O3117637   4.711   1.708  10.078 -0.1344  0.0897 -0.4640
  158SAPE   C3117638   4.813   1.649  10.013  0.7013  0.4005 -0.2440
  158SAPE   O3217639   4.913   1.606  10.061  0.9206 -0.2052 -0.3388
  158SAPE   C3217640   4.765   1.646   9.864  0.3799  0.4781  0.2997
  158SAPE   H2X17641   4.762   1.746   9.816 -1.3059 -1.4634 -4.1600
  158SAPE   H2Y17642   4.668   1.591   9.862 -0.4603  1.9215 -0.4384
  158SAPE   C2317643   4.929   2.184   9.892  0.0353  0.0474  0.1646
  158SAPE   H3R17644   5.037   2.198   9.915 -0.3497  1.6550  1.1321
  158SAPE   H3S17645   4.893   2.279   9.846 -1.4717 -0.7148 -0.3057
  158SAPE   C2417646   4.925   2.051   9.803  0.3324  0.1064  0.5804
  158SAPE   H4R17647   4.815   2.031   9.805  0.4397 -0.5151  0.4321
  158SAPE   H4S17648   4.989   1.972   9.847  1.3339  0.1421 -0.7443
  158SAPE   C2517649   4.985   2.092   9.670 -0.3602  0.1180 -0.3443
  158SAPE   H5R17650   5.023   2.195   9.672  1.0783 -0.2844  4.2891
  158SAPE   C2617651   4.977   2.017   9.560  0.1233 -0.4779  0.7425
  158SAPE   H6R17652   5.018   2.059   9.467 -1.0354  1.4235  1.0418
  158SAPE   C2717653   4.908   1.881   9.538 -0.6293 -1.6821  0.3996
  158SAPE   H7R17654   4.952   1.809   9.610  2.1380 -1.0885 -0.6067
  158SAPE   H7S17655   4.938   1.843   9.438  1.3252  1.3971 -0.3044
  158SAPE   C2817656   4.761   1.889   9.553 -0.3361  0.1963 -0.0657
  158SAPE   H8R17657   4.721   1.879   9.655  0.9324  0.3846  0.4688
  158SAPE   C2917658   4.666   1.922   9.463 -0.6324  0.4009  0.2300
  158SAPE   H9R17659   4.563   1.921   9.501 -0.2272 -0.4451  1.3567
  158SAPE  C21017660   4.691   1.948   9.319 -0.3114  0.4351  0.1259
  158SAPE  H10R17661   4.800   1.935   9.299 -0.3512 -1.0131  0.7649
  158SAPE  H10S17662   4.666   2.053   9.292 -3.0388 -0.2147 -0.0826
  158SAPE  C21117663   4.614   1.852   9.233 -0.0628 -0.7092 -0.3875
  158SAPE  H11R17664   4.650   1.748   9.240  1.4582 -0.1115  1.6292
  158SAPE  C21217665   4.514   1.881   9.154  0.6108 -0.5507 -0.1492
  158SAPE  H12R17666   4.459   1.808   9.092  0.3154  1.5056 -2.4786
  158SAPE  C21317667   4.457   2.018   9.126 -0.2608 -0.1768  0.0533
  158SAPE  H13R17668   4.462   2.075   9.221 -0.1988  0.8490 -0.5521
  158SAPE  H13S17669   4.347   2.011   9.115 -0.1482 -0.1031 -1.2054
  158SAPE  C21417670   4.512   2.088   9.010 -0.5048 -0.0109  0.2848
  158SAPE  H14R17671   4.619   2.111   9.023 -0.1944  0.3998 -2.3958
  158SAPE  C21517672   4.450   2.144   8.901 -0.1346 -0.6743 -0.1985
  158SAPE  H15R17673   4.512   2.180   8.818  0.2517  0.0875  0.4122
  158SAPE  C21617674   4.298   2.148   8.876 -0.1170 -0.2448 -0.1122
  158SAPE  H16R17675   4.241   2.128   8.969 -0.7777 -2.4385 -0.9329
  158SAPE  H16S17676   4.264   2.071   8.803 -1.4087 -1.9122  2.1298
  158SAPE  C21717677   4.256   2.283   8.816  0.5706  0.5917  0.1740
  158SAPE  H17R17678   4.291   2.360   8.887  2.8778  1.1575 -1.4339
  158SAPE  H17S17679   4.147   2.278   8.797  0.6354 -0.1319 -0.0573
  158SAPE  C21817680   4.310   2.313   8.675  0.0199  0.6666 -0.9164
  158SAPE  H18R17681   4.421   2.327   8.671  0.2649  0.5727  2.5415
  158SAPE  H18S17682   4.268   2.413   8.649 -1.3729  0.0996 -0.9041
  158SAPE  C21917683   4.287   2.202   8.575 -1.1967 -0.2439  0.2933
  158SAPE  H19R17684   4.177   2.188   8.571 -0.8985 -2.5991 -2.4365
  158SAPE  H19S17685   4.347   2.112   8.601  0.0674  0.3759 -0.3895
  158SAPE  C22017686   4.336   2.248   8.438 -0.6558 -0.3751  0.1928
  158SAPE  H20R17687   4.310   2.355   8.420  2.4001  0.5227  0.4932
  158SAPE  H20S17688   4.297   2.184   8.356 -2.8372  1.6236 -0.4637
  158SAPE  H20T17689   4.446   2.235   8.437 -0.8440 -2.2635  1.3392
  158SAPE   C3317690   4.873   1.565   9.776 -0.0809  0.3261 -0.2418
  158SAPE   H3X17691   4.887   1.463   9.819 -0.8988  0.7165  0.9811
  158SAPE   H3Y17692   4.964   1.628   9.786 -0.8782  1.9422 -2.4468
  158SAPE   C3417693   4.823   1.544   9.637 -0.1683 -0.2756  0.6880
  158SAPE   H4X17694   4.766   1.637   9.614 -1.4919 -0.9007  1.3472
  158SAPE   H4Y17695   4.742   1.468   9.641 -0.6214  0.0457 -1.3737
  158SAPE   C3517696   4.917   1.508   9.530  0.4803 -0.2029  0.7110
  158SAPE   H5X17697   4.948   1.403   9.549 -1.0971 -0.6984  0.7685
  158SAPE   H5Y17698   5.003   1.578   9.532  1.3045 -1.2073  1.5847
  158SAPE   C3617699   4.850   1.519   9.392 -0.2286  0.3498 -0.1237
  158SAPE   H6X17700   4.824   1.623   9.362  0.3087  0.2004 -1.1762
  158SAPE   H6Y17701   4.758   1.457   9.394 -0.0467  0.1051  1.8674
  158SAPE   C3717702   4.938   1.455   9.281  0.1024 -0.4991 -0.3434
  158SAPE   H7X17703   4.938   1.344   9.287  0.8899 -0.4252  3.6384
  158SAPE   H7Y17704   5.045   1.485   9.285  0.5283 -2.1146  1.5869
  158SAPE   C3817705   4.883   1.499   9.144 -0.1833 -0.3789 -0.4746
  158SAPE   H8X17706   4.954   1.457   9.069  1.4950 -0.5425  1.1345
  158SAPE   H8Y17707   4.895   1.608   9.130  4.9174 -0.6905 -0.3314
  158SAPE   C3917708   4.744   1.446   9.111  0.1032  0.5613 -1.1445
  158SAPE   H9X17709   4.682   1.432   9.201 -0.5343  1.5912 -1.4080
  158SAPE   H9Y17710   4.758   1.344   9.070 -0.6456 -0.0888  0.1842
  158SAPE  C31017711   4.668   1.523   9.005 -0.7708 -0.7043 -0.0782
  158SAPE  H10X17712   4.720   1.502   8.909 -1.8721 -0.2350 -0.7970
  158SAPE  H10Y17713   4.679   1.632   9.023 -2.4457 -0.3825 -0.7886
  158SAPE  C31117714   4.524   1.488   8.998 -0.2512 -0.1073  0.5862
  158SAPE  H11X17715   4.467   1.518   9.089  1.0277  1.0928  1.0338
  158SAPE  H11Y17716   4.507   1.380   8.981  0.0962 -0.1584  0.5552
  158SAPE  C31217717   4.458   1.560   8.880 -0.0132  0.4770 -0.0330
  158SAPE  H12X17718   4.518   1.544   8.788 -0.5244 -0.0469 -0.2813
  158SAPE  H12Y17719   4.467   1.667   8.906 -1.0246  0.1449  1.9098
  158SAPE  C31317720   4.306   1.533   8.861  0.2331  0.3990  0.4583
  158SAPE  H13X17721   4.270   1.629   8.819  1.8236  0.4144 -0.9540
  158SAPE  H13Y17722   4.254   1.510   8.956 -0.2098  0.5091  0.2430
  158SAPE  C31417723   4.290   1.429   8.747  0.2074 -0.4484 -0.4896
  158SAPE  H14X17724   4.313   1.328   8.787 -1.0718 -0.5759 -0.0292
  158SAPE  H14Y17725   4.350   1.456   8.658 -1.8028  1.0420 -1.4779
  158SAPE  C31517726   4.142   1.414   8.708  0.5935  0.1269 -0.5562
  158SAPE  H15X17727   4.106   1.513   8.672 -4.7359 -0.8272  1.2107
  158SAPE  H15Y17728   4.072   1.386   8.790 -3.0402 -3.7479 -4.5106
  158SAPE  C31617729   4.106   1.311   8.595 -0.3807  0.8951  0.4708
  158SAPE  H16X17730   4.138   1.212   8.634 -0.0395  1.8518  2.7897
  158SAPE  H16Y17731   4.165   1.346   8.507 -2.6324  1.3227 -0.9429
  158SAPE  C31717732   3.957   1.298   8.566  0.5315 -0.1037 -0.4189
  158SAPE  H17X17733   3.905   1.242   8.646 -0.5717  0.1204 -0.9553
  158SAPE  H17Y17734   3.945   1.230   8.479 -0.7503 -2.0193  1.1777
  158SAPE  C31817735   3.871   1.425   8.568 -0.4866 -0.1652 -0.0334
  158SAPE  H18X17736   3.877   1.482   8.663 -1.6409 -0.4739  0.2351
  158SAPE  H18Y17737   3.762   1.411   8.553 -0.6199  0.2688  0.5079
  158SAPE  H18Z17738   3.904   1.499   8.492 -2.5968  0.6373 -0.2320
  159SAPE     N17739   1.434   6.468   6.812  0.0291 -0.8276  0.5975
  159SAPE   HN117740   1.340   6.432   6.841 -0.6780  0.1737 -0.3382
  159SAPE   HN217741   1.500   6.452   6.891  0.5346  1.3850  0.6928
  159SAPE   HN317742   1.411   6.569   6.812  0.5046 -0.6868 -1.3329
  159SAPE   C1217743   1.464   6.409   6.678  0.2867 -0.2527  0.3419
  159SAPE  H12A17744   1.526   6.481   6.620 -2.0259  1.4643 -0.1735
  159SAPE  H12B17745   1.369   6.400   6.620  0.0617 -0.4547  0.7441
  159SAPE   C1117746   1.536   6.277   6.689  0.0540  0.2520 -0.5495
  159SAPE  H11A17747   1.475   6.203   6.745  1.3810 -0.4092  0.0793
  159SAPE  H11B17748   1.626   6.314   6.743 -0.5260  2.1071 -0.7915
  159SAPE     P17749   1.677   6.270   6.472 -0.4836  0.0990  0.1959
  159SAPE   O1317750   1.707   6.184   6.357 -0.3387 -0.4157 -0.1822
  159SAPE   O1417751   1.652   6.410   6.441  0.7755  0.4073  0.0493
  159SAPE   O1217752   1.559   6.216   6.559 -0.5357  0.3041 -0.4728
  159SAPE   O1117753   1.792   6.275   6.575 -0.0933 -0.4083  0.3610
  159SAPE    C117754   1.886   6.162   6.586 -0.0784 -0.2226  0.0018
  159SAPE    HA17755   1.885   6.102   6.493  1.6499  2.4825 -1.8889
  159SAPE    HB17756   1.989   6.203   6.591 -0.0849  0.2747 -2.6162
  159SAPE    C217757   1.864   6.085   6.721  0.9277  0.5251 -0.5483
  159SAPE    HS17758   1.753   6.077   6.720  0.7878  2.1601 -1.4010
  159SAPE   O2117759   1.915   6.156   6.835 -0.6669  0.0038  0.2787
  159SAPE   C2117760   1.839   6.136   6.945 -1.2400  0.2200 -0.7600
  159SAPE   O2217761   1.726   6.086   6.942 -0.1316 -0.3698  0.0558
  159SAPE   C2217762   1.920   6.181   7.064 -0.0325 -0.0951  0.5941
  159SAPE   H2R17763   1.969   6.097   7.119  0.1808  0.7059  1.6712
  159SAPE   H2S17764   2.007   6.239   7.026 -2.0325  3.2437  0.7052
  159SAPE    C317765   1.933   5.943   6.717 -0.5897 -0.2705 -0.0837
  159SAPE    HX17766   2.038   5.971   6.692  0.2045 -1.8500  1.2629
  159SAPE    HY17767   1.887   5.881   6.637 -0.4589 -0.7966  0.2415
  159SAPE   O3117768   1.934   5.878   6.842 -0.5822  0.2450 -0.3992
  159SAPE   C3117769   1.894   5.756   6.847  0.3223  0.1180  0.0083
  159SAPE   O3217770   1.854   5.684   6.753  0.5330  0.2394 -0.0431
  159SAPE   C3217771   1.939   5.691   6.974  0.0852 -0.2504  0.2361
  159SAPE   H2X17772   2.050   5.694   6.981  0.1206  3.1991 -0.0801
  159SAPE   H2Y17773   1.908   5.586   6.954 -0.3384 -0.2996  1.1045
  159SAPE   C2317774   1.853   6.282   7.158 -0.2671  0.3513  0.2152
  159SAPE   H3R17775   1.773   6.238   7.221 -0.0499 -0.5444 -0.1195
  159SAPE   H3S17776   1.817   6.367   7.097  1.0393 -0.5975 -1.9962
  159SAPE   C2417777   1.966   6.325   7.254  0.1175  0.4871 -0.1974
  159SAPE   H4R17778   1.927   6.418   7.299  0.8510 -0.9959  3.8610
  159SAPE   H4S17779   2.061   6.358   7.205  1.2175 -3.6469 -1.2022
  159SAPE   C2517780   1.981   6.215   7.362  0.0666 -0.3912 -0.0931
  159SAPE   H5R17781   1.898   6.199   7.432  2.2411 -3.1573  2.0881
  159SAPE   C2617782   2.098   6.146   7.373  0.1627  0.2800 -0.1014
  159SAPE   H6R17783   2.109   6.060   7.441 -3.1965  1.7453  2.6613
  159SAPE   C2717784   2.220   6.160   7.286 -0.0073 -0.1183 -0.7541
  159SAPE   H7R17785   2.311   6.173   7.350 -0.2739 -0.7755 -0.2327
  159SAPE   H7S17786   2.220   6.253   7.225 -0.9528  0.3718 -0.0430
  159SAPE   C2817787   2.228   6.041   7.197  0.8521  0.4114  0.6459
  159SAPE   H8R17788   2.165   6.059   7.109  1.5561 -0.9557 -0.1778
  159SAPE   C2917789   2.283   5.923   7.228 -0.5264 -0.2719 -0.9172
  159SAPE   H9R17790   2.279   5.849   7.146 -2.0456  0.2689 -1.3702
  159SAPE  C21017791   2.367   5.896   7.352  0.8321 -0.1604  0.4348
  159SAPE  H10R17792   2.331   5.799   7.391 -1.7113  1.6086  2.8890
  159SAPE  H10S17793   2.343   5.970   7.431  0.9033 -0.2178  0.5110
  159SAPE  C21117794   2.513   5.924   7.316 -0.0010 -0.0171 -0.0783
  159SAPE  H11R17795   2.544   5.928   7.210  1.4875  0.6790  0.3525
  159SAPE  C21217796   2.615   5.937   7.406 -0.0642 -0.4029  0.5608
  159SAPE  H12R17797   2.701   5.991   7.362 -2.2611  3.5608  0.6087
  159SAPE  C21317798   2.609   5.926   7.555  0.4778 -0.0519 -0.4154
  159SAPE  H13R17799   2.600   5.817   7.571 -2.8510 -0.1152 -1.8566
  159SAPE  H13S17800   2.515   5.972   7.593  0.8964 -1.6280  2.9109
  159SAPE  C21417801   2.731   5.986   7.627  0.1141  0.4532 -0.8799
  159SAPE  H14R17802   2.755   6.089   7.600 -0.1424  0.6323 -0.4364
  159SAPE  C21517803   2.814   5.924   7.703 -0.8330  0.0080  0.5154
  159SAPE  H15R17804   2.899   5.981   7.743 -0.5990  1.8837 -2.3567
  159SAPE  C21617805   2.808   5.774   7.741  0.2608  0.5902 -0.1433
  159SAPE  H16R17806   2.898   5.727   7.697  0.4433 -0.5843  1.3839
  159SAPE  H16S17807   2.725   5.713   7.699 -1.6324  2.4325  0.6982
  159SAPE  C21717808   2.812   5.753   7.894 -0.0016  0.1374 -0.5040
  159SAPE  H17R17809   2.891   5.817   7.939  0.5385 -2.0402  1.8748
  159SAPE  H17S17810   2.845   5.647   7.904 -1.2455 -0.3395 -1.2043
  159SAPE  C21817811   2.675   5.793   7.959 -0.3652 -0.2518  0.0628
  159SAPE  H18R17812   2.601   5.719   7.920  0.6788 -0.4122 -1.7313
  159SAPE  H18S17813   2.646   5.891   7.916  0.4264 -0.9671 -2.2537
  159SAPE  C21917814   2.675   5.804   8.106 -0.2092  0.0436  0.3212
  159SAPE  H19R17815   2.690   5.705   8.153  0.7505  0.1756  0.3261
  159SAPE  H19S17816   2.572   5.827   8.139  0.0415 -0.4576  1.5131
  159SAPE  C22017817   2.763   5.907   8.163 -0.7788 -1.1807 -0.2028
  159SAPE  H20R17818   2.865   5.866   8.148  0.0304 -0.7482  3.3136
  159SAPE  H20S17819   2.739   5.928   8.269  0.8256  0.3944 -0.1065
  159SAPE  H20T17820   2.751   6.003   8.109 -0.7608 -0.9451  0.2085
  159SAPE   C3317821   1.878   5.747   7.108  0.5972 -0.1453  0.2554
  159SAPE   H3X17822   1.768   5.730   7.114  0.6047  0.1803  1.8251
  159SAPE   H3Y17823   1.884   5.858   7.117 -0.6938  0.1304 -1.6350
  159SAPE   C3417824   1.944   5.706   7.238 -0.1795  0.1516 -0.5386
  159SAPE   H4X17825   2.046   5.749   7.248  0.6980 -1.4477 -2.0013
  159SAPE   H4Y17826   1.963   5.597   7.245 -0.1868  0.1381 -0.7194
  159SAPE   C3517827   1.878   5.760   7.364  0.2443 -0.8662 -0.7254
  159SAPE   H5X17828   1.796   5.691   7.394  0.1900  0.3421  2.1818
  159SAPE   H5Y17829   1.853   5.868   7.352 -0.3143 -0.9241 -0.1417
  159SAPE   C3617830   1.966   5.753   7.489  0.3110 -0.4297 -0.7265
  159SAPE   H6X17831   2.035   5.841   7.481 -1.2470  0.7717 -1.5211
  159SAPE   H6Y17832   2.024   5.658   7.494  0.9189 -0.0177  0.3354
  159SAPE   C3717833   1.895   5.778   7.629  0.1432 -0.0331  0.1021
  159SAPE   H7X17834   1.951   5.723   7.707 -0.7103  1.2835  1.7108
  159SAPE   H7Y17835   1.792   5.738   7.620  0.0335  0.5818 -1.9400
  159SAPE   C3817836   1.898   5.925   7.667 -0.2299  0.0452 -0.8691
  159SAPE   H8X17837   1.877   5.978   7.572  0.7582 -2.3420 -2.5387
  159SAPE   H8Y17838   2.002   5.955   7.694 -0.1282 -0.1615 -1.0241
  159SAPE   C3917839   1.789   5.966   7.770 -0.9380 -0.8707  0.3916
  159SAPE   H9X17840   1.693   5.911   7.757 -1.2317 -0.2794 -0.0074
  159SAPE   H9Y17841   1.767   6.075   7.766  0.7498 -0.4299  1.9745
  159SAPE  C31017842   1.844   5.958   7.916 -0.1069  0.4455 -0.2185
  159SAPE  H10X17843   1.825   6.051   7.974  0.6670 -0.8081  2.1863
  159SAPE  H10Y17844   1.954   5.939   7.919  0.1766  2.0255  0.0718
  159SAPE  C31117845   1.777   5.840   7.995  0.3267 -0.1317 -0.0188
  159SAPE  H11X17846   1.812   5.745   7.949  1.7369 -0.3559  1.4245
  159SAPE  H11Y17847   1.667   5.856   7.988  0.2357 -0.3068  0.8956
  159SAPE  C31217848   1.819   5.840   8.141  0.3338  0.3996  0.0902
  159SAPE  H12X17849   1.929   5.827   8.146  0.3220  0.6449  1.0453
  159SAPE  H12Y17850   1.776   5.750   8.190  1.7299 -0.2817  0.1177
  159SAPE  C31317851   1.777   5.954   8.231 -0.5391 -0.7212  0.0812
  159SAPE  H13X17852   1.670   5.985   8.225 -0.1079  0.5544 -1.5865
  159SAPE  H13Y17853   1.828   6.046   8.196  0.3075 -1.4403 -0.6233
  159SAPE  C31417854   1.817   5.946   8.379 -0.7247 -0.0909 -0.8668
  159SAPE  H14X17855   1.897   6.018   8.406 -1.1046 -0.6826  2.3015
  159SAPE  H14Y17856   1.874   5.851   8.387 -0.3081 -0.0025 -2.4590
  159SAPE  C31517857   1.697   5.946   8.473  0.5149  0.6805 -0.0150
  159SAPE  H15X17858   1.650   6.046   8.468 -2.7574 -0.5389  2.7251
  159SAPE  H15Y17859   1.725   5.923   8.578  0.1653 -0.3601 -0.1350
  159SAPE  C31617860   1.592   5.834   8.431 -0.1611  0.3862  0.5437
  159SAPE  H16X17861   1.639   5.735   8.449 -0.0248  0.2674 -0.4398
  159SAPE  H16Y17862   1.561   5.842   8.325 -2.0464 -3.0280  0.7179
  159SAPE  C31717863   1.466   5.829   8.519  0.0586  0.0607  0.7482
  159SAPE  H17X17864   1.402   5.756   8.465  0.0826 -1.2909  2.4732
  159SAPE  H17Y17865   1.407   5.922   8.504  1.3728  1.1606  2.1311
  159SAPE  C31817866   1.495   5.805   8.666 -0.0983 -0.1141  0.8197
  159SAPE  H18X17867   1.560   5.715   8.673 -1.8647 -1.7574 -2.0603
  159SAPE  H18Y17868   1.405   5.788   8.728 -0.4939 -1.2331 -0.0181
  159SAPE  H18Z17869   1.549   5.885   8.720  0.8305  0.3670 -0.7554
  160SAPE     N17870   2.033   1.079   6.004 -0.4733  0.7549  0.2175
  160SAPE   HN117871   2.080   1.169   6.024  0.4824  0.2274  0.3947
  160SAPE   HN217872   2.082   1.035   5.923 -0.3086  2.0499 -0.4101
  160SAPE   HN317873   1.929   1.084   5.994 -0.3356  1.4526 -1.1428
  160SAPE   C1217874   2.058   0.996   6.125  0.5105  0.1840  0.0368
  160SAPE  H12A17875   2.152   1.031   6.173 -0.3769  1.5256  0.8918
  160SAPE  H12B17876   2.077   0.897   6.079  0.8040 -1.1093  2.7601
  160SAPE   C1117877   1.934   0.990   6.220 -0.0016  0.6985  0.5626
  160SAPE  H11A17878   1.944   0.913   6.300  0.1515 -1.1195 -1.1249
  160SAPE  H11B17879   1.844   0.957   6.164 -0.0240  1.1610  0.3208
  160SAPE     P17880   1.959   1.191   6.391 -0.1881  0.0271 -0.1804
  160SAPE   O1317881   1.892   1.326   6.401  0.2107 -0.0634  0.0995
  160SAPE   O1417882   1.949   1.107   6.507  0.0418 -0.8317 -0.0202
  160SAPE   O1217883   1.895   1.116   6.270  0.0078  0.2807  0.1592
  160SAPE   O1117884   2.107   1.215   6.342  0.4677  0.0559  0.4414
  160SAPE    C117885   2.208   1.181   6.437  0.2752 -0.1877 -0.0339
  160SAPE    HA17886   2.197   1.083   6.487  2.0013 -0.0035  0.8103
  160SAPE    HB17887   2.294   1.161   6.370  0.1370  0.3616 -0.3842
  160SAPE    C217888   2.257   1.284   6.538  1.3096 -0.2422  0.2744
  160SAPE    HS17889   2.347   1.250   6.593  1.5806 -2.7804 -1.5657
  160SAPE   O2117890   2.145   1.309   6.635  0.4027  0.2153 -0.6990
  160SAPE   C2117891   2.140   1.216   6.727 -0.0827  0.3046 -0.2387
  160SAPE   O2217892   2.215   1.122   6.747  0.5484  0.8389  0.5723
  160SAPE   C2217893   2.009   1.234   6.807  0.6094  0.1496 -0.4522
  160SAPE   H2R17894   1.965   1.333   6.782 -0.3350  0.5182  2.2567
  160SAPE   H2S17895   1.939   1.157   6.768 -0.3194  1.3269 -1.1669
  160SAPE    C317896   2.284   1.420   6.459 -0.4741 -0.3075  0.1170
  160SAPE    HX17897   2.192   1.454   6.407 -0.3922 -0.5408 -0.1834
  160SAPE    HY17898   2.357   1.389   6.381  0.1637  0.4451  0.4008
  160SAPE   O3117899   2.345   1.522   6.543 -0.5771  0.0483 -0.2231
  160SAPE   C3117900   2.264   1.586   6.621 -0.3287  0.1073  0.4559
  160SAPE   O3217901   2.144   1.580   6.615  0.0835 -0.7350  0.7074
  160SAPE   C3217902   2.332   1.675   6.729 -0.8810  0.2943  0.8489
  160SAPE   H2X17903   2.256   1.754   6.748  0.9750  2.5215 -0.4258
  160SAPE   H2Y17904   2.422   1.712   6.676 -1.5991 -1.0841 -1.4986
  160SAPE   C2317905   2.023   1.227   6.965 -0.1441 -0.1002 -0.2850
  160SAPE   H3R17906   1.924   1.247   7.011 -0.1173 -2.7968  1.1929
  160SAPE   H3S17907   2.094   1.309   6.990  0.0770 -0.5885  0.7437
  160SAPE   C2417908   2.055   1.087   7.020  0.4695  0.5155  0.0245
  160SAPE   H4R17909   2.097   1.103   7.122  0.0110  2.6858 -0.0813
  160SAPE   H4S17910   2.144   1.047   6.966  1.5104  2.4641  0.1903
  160SAPE   C2517911   1.943   0.988   7.007 -0.1682  0.4445  0.0504
  160SAPE   H5R17912   1.902   0.975   6.906  0.6487  0.9771 -0.3520
  160SAPE   C2617913   1.870   0.941   7.114 -0.0611  0.5124  0.2449
  160SAPE   H6R17914   1.784   0.874   7.106  2.4546 -3.2519  1.7820
  160SAPE   C2717915   1.900   0.970   7.260 -0.2051 -0.3630 -0.2122
  160SAPE   H7R17916   2.007   0.961   7.290 -0.8132 -2.0635  1.6815
  160SAPE   H7S17917   1.849   0.898   7.328 -0.5746  1.5470  1.6546
  160SAPE   C2817918   1.847   1.108   7.308 -0.5522  0.5771  0.5554
  160SAPE   H8R17919   1.771   1.157   7.246 -0.9226 -0.7334 -0.0501
  160SAPE   C2917920   1.885   1.167   7.420  0.3349  0.3914  0.3676
  160SAPE   H9R17921   1.849   1.267   7.446  2.4075  0.9631  1.3043
  160SAPE  C21017922   1.986   1.115   7.519  0.4578  0.5744 -0.7378
  160SAPE  H10R17923   2.088   1.144   7.487  0.5575  0.9811 -0.0792
  160SAPE  H10S17924   1.986   1.004   7.516  2.7534  0.5599 -1.6997
  160SAPE  C21117925   1.943   1.160   7.658  0.0388 -0.7444  0.0076
  160SAPE  H11R17926   1.837   1.191   7.656 -0.1514 -1.4203 -0.8938
  160SAPE  C21217927   2.013   1.176   7.773 -0.0696 -0.7383  0.7088
  160SAPE  H12R17928   1.971   1.198   7.872 -0.7362 -0.9731  0.4819
  160SAPE  C21317929   2.162   1.161   7.777  0.1369 -0.0657  0.0251
  160SAPE  H13R17930   2.193   1.219   7.866  1.2186 -3.4848  2.0554
  160SAPE  H13S17931   2.207   1.203   7.684  0.8250 -0.7276  0.0526
  160SAPE  C21417932   2.211   1.020   7.793 -0.6039 -0.1401  0.2394
  160SAPE  H14R17933   2.179   0.958   7.708  0.2150  1.6305 -1.4568
  160SAPE  C21517934   2.294   0.970   7.890 -0.7421 -0.7713  0.3210
  160SAPE  H15R17935   2.313   0.861   7.884 -1.2850 -1.0123  2.3471
  160SAPE  C21617936   2.343   1.037   8.019 -0.0067  0.1471  0.2865
  160SAPE  H16R17937   2.297   1.132   8.052 -0.8781 -0.0799 -0.2308
  160SAPE  H16S17938   2.452   1.056   8.007  0.3481 -0.7517  1.7961
  160SAPE  C21717939   2.311   0.945   8.143  0.0418 -0.7590 -0.1569
  160SAPE  H17R17940   2.201   0.930   8.140 -0.4548  1.7505  1.8745
  160SAPE  H17S17941   2.346   0.994   8.237  1.3460 -0.2026 -0.9039
  160SAPE  C21817942   2.377   0.800   8.144 -0.9370 -0.4465  0.0238
  160SAPE  H18R17943   2.333   0.750   8.056 -0.1043 -3.5440  1.2258
  160SAPE  H18S17944   2.341   0.754   8.239 -2.7077  0.4533 -0.1604
  160SAPE  C21917945   2.528   0.809   8.134  0.0577  0.3051  0.0475
  160SAPE  H19R17946   2.556   0.871   8.221  0.6615  1.6103 -1.0415
  160SAPE  H19S17947   2.556   0.865   8.042  0.3684 -0.1629 -0.1540
  160SAPE  C22017948   2.588   0.668   8.137  0.0115 -0.1280  0.5966
  160SAPE  H20R17949   2.555   0.600   8.056  0.9196  0.1853 -0.0500
  160SAPE  H20S17950   2.553   0.619   8.230  1.2940 -0.6304  0.8361
  160SAPE  H20T17951   2.698   0.662   8.124 -0.1123 -2.6767  0.0666
  160SAPE   C3317952   2.368   1.597   6.857  0.0424  0.1782 -1.0033
  160SAPE   H3X17953   2.447   1.651   6.914  0.7374 -1.0230 -0.8112
  160SAPE   H3Y17954   2.410   1.499   6.826 -2.1302 -1.0826 -0.1517
  160SAPE   C3417955   2.252   1.570   6.961  0.9737  0.0593  0.1470
  160SAPE   H4X17956   2.180   1.494   6.924  0.5538  0.0044  1.0397
  160SAPE   H4Y17957   2.217   1.675   6.964  2.5972  0.6169  1.6996
  160SAPE   C3517958   2.310   1.529   7.091 -0.7601 -0.1731 -0.2368
  160SAPE   H5X17959   2.397   1.591   7.120  0.6083 -2.2063  0.2573
  160SAPE   H5Y17960   2.358   1.430   7.075  1.0765  0.9047 -1.7293
  160SAPE   C3617961   2.202   1.525   7.208  0.2540  0.1903  0.1237
  160SAPE   H6X17962   2.134   1.442   7.179  1.2112 -0.5364 -0.0827
  160SAPE   H6Y17963   2.144   1.619   7.198 -0.8860 -0.6470 -1.6299
  160SAPE   C3717964   2.282   1.501   7.333  0.4013  0.3680 -1.0556
  160SAPE   H7X17965   2.347   1.588   7.355  0.0495  1.1772 -3.0376
  160SAPE   H7Y17966   2.349   1.415   7.309  2.7651  2.4187 -2.2601
  160SAPE   C3817967   2.197   1.479   7.462  0.1621 -0.2031  0.1969
  160SAPE   H8X17968   2.119   1.401   7.446  0.3645 -0.1986 -0.8382
  160SAPE   H8Y17969   2.147   1.577   7.471  1.1141  0.2297  0.9194
  160SAPE   C3917970   2.287   1.477   7.592  0.0034 -0.6685 -0.0856
  160SAPE   H9X17971   2.385   1.528   7.584  1.2087 -2.6846  0.9545
  160SAPE   H9Y17972   2.315   1.376   7.630  1.0673  0.3412  2.0007
  160SAPE  C31017973   2.213   1.545   7.706  0.1477 -0.6625  0.8430
  160SAPE  H10X17974   2.116   1.492   7.709 -0.8109  0.6460 -2.5790
  160SAPE  H10Y17975   2.185   1.647   7.673 -1.4041 -1.7399 -1.4078
  160SAPE  C31117976   2.279   1.539   7.851  0.7346 -0.1805 -0.0087
  160SAPE  H11X17977   2.325   1.640   7.857  2.1037 -0.8568  2.2187
  160SAPE  H11Y17978   2.355   1.461   7.873  1.3880  0.2862 -0.5435
  160SAPE  C31217979   2.155   1.522   7.950  0.0148  0.1468  0.0961
  160SAPE  H12X17980   2.094   1.433   7.925 -2.3274  1.9500 -0.9434
  160SAPE  H12Y17981   2.094   1.614   7.936 -1.2735 -0.9147 -1.4879
  160SAPE  C31317982   2.188   1.527   8.095 -0.0510  0.1761 -0.3020
  160SAPE  H13X17983   2.237   1.626   8.108  2.8136 -1.1053 -0.5807
  160SAPE  H13Y17984   2.266   1.451   8.120 -1.2818 -0.6843  1.1303
  160SAPE  C31417985   2.066   1.502   8.177  0.1034  0.0381  0.3386
  160SAPE  H14X17986   2.017   1.409   8.140  2.7779 -1.1019 -0.6087
  160SAPE  H14Y17987   2.007   1.595   8.165  0.4761  0.0950 -1.4132
  160SAPE  C31517988   2.093   1.463   8.325 -0.2049 -0.8009  0.7152
  160SAPE  H15X17989   2.151   1.368   8.333  1.4689  0.1286  0.0650
  160SAPE  H15Y17990   2.001   1.451   8.386  0.3617 -1.4889  1.4667
  160SAPE  C31617991   2.164   1.567   8.409 -0.9033 -0.0665  0.1828
  160SAPE  H16X17992   2.105   1.661   8.403 -1.7236 -0.5703  0.3345
  160SAPE  H16Y17993   2.266   1.589   8.369 -0.5856 -2.7540 -0.6933
  160SAPE  C31717994   2.174   1.516   8.553 -0.4066  0.0428  0.0148
  160SAPE  H17X17995   2.221   1.415   8.560 -0.6610 -0.1658 -1.0996
  160SAPE  H17Y17996   2.070   1.496   8.586  0.1649 -2.1306  0.6663
  160SAPE  C31817997   2.250   1.607   8.652 -0.1306  0.0516 -0.2467
  160SAPE  H18X17998   2.181   1.688   8.684  1.3723  2.2235 -2.1599
  160SAPE  H18Y17999   2.333   1.657   8.599 -2.1331  0.2823 -3.4464
  160SAPE  H18Z18000   2.275   1.550   8.744 -1.4505  0.9181  0.6930
  161SAPE     N18001   4.231   4.415   6.499  0.0763 -0.5187  0.0263
  161SAPE   HN118002   4.331   4.408   6.525  0.4003 -4.4506 -1.5931
  161SAPE   HN218003   4.177   4.462   6.575 -2.1476 -1.8838 -0.6129
  161SAPE   HN318004   4.193   4.318   6.495  1.6924 -1.1527 -0.8498
  161SAPE   C1218005   4.229   4.484   6.367 -0.0900  0.2871  0.1945
  161SAPE  H12A18006   4.129   4.470   6.321 -0.6451  2.6850  0.5270
  161SAPE  H12B18007   4.297   4.431   6.297  1.2756  1.6392  0.4250
  161SAPE   C1118008   4.271   4.636   6.364  0.0371 -0.0983  0.0991
  161SAPE  H11A18009   4.321   4.645   6.265 -1.5679 -0.1609 -0.7506
  161SAPE  H11B18010   4.338   4.671   6.446  0.5456 -0.1931 -0.2654
  161SAPE     P18011   4.155   4.863   6.328  0.4065  0.5550 -0.2920
  161SAPE   O1318012   4.283   4.899   6.271  0.2553  0.5385  0.6227
  161SAPE   O1418013   4.034   4.888   6.244  0.4544  0.8404 -0.4900
  161SAPE   O1218014   4.149   4.717   6.367  0.2232  0.2752 -0.2577
  161SAPE   O1118015   4.136   4.938   6.464 -0.2588 -0.1812  0.2905
  161SAPE    C118016   4.149   4.865   6.588 -0.2159 -0.0972 -0.1042
  161SAPE    HA18017   4.057   4.804   6.597 -0.2897 -0.7040 -3.5467
  161SAPE    HB18018   4.238   4.798   6.592  0.8496  1.3192  1.4728
  161SAPE    C218019   4.146   4.967   6.703 -0.5836 -0.3013 -0.8882
  161SAPE    HS18020   4.231   4.943   6.770  0.1593  1.3789 -1.1497
  161SAPE   O2118021   4.029   4.965   6.786  0.6515 -0.1044 -0.0602
  161SAPE   C2118022   3.975   4.851   6.833  0.2670 -0.5509 -0.2997
  161SAPE   O2218023   4.034   4.745   6.831 -0.1920 -0.1444  0.3761
  161SAPE   C2218024   3.840   4.876   6.897  0.1477  0.4884 -0.5357
  161SAPE   H2R18025   3.784   4.949   6.834  2.0151  1.6890 -0.8901
  161SAPE   H2S18026   3.775   4.788   6.914  0.6497  0.1802 -0.1677
  161SAPE    C318027   4.192   5.109   6.646  0.5642 -0.0125 -0.5821
  161SAPE    HX18028   4.106   5.142   6.585  1.1017 -0.0751 -1.3913
  161SAPE    HY18029   4.279   5.096   6.577  2.1143  1.1684  1.0302
  161SAPE   O3118030   4.235   5.204   6.750  0.5702  0.3595 -0.5312
  161SAPE   C3118031   4.136   5.266   6.815 -0.0425  0.9348  0.0307
  161SAPE   O3218032   4.020   5.269   6.787  0.4596 -0.3944 -0.5755
  161SAPE   C3218033   4.196   5.330   6.936 -0.6156  1.1529  1.0086
  161SAPE   H2X18034   4.191   5.441   6.932 -0.4537  1.1366  0.0403
  161SAPE   H2Y18035   4.305   5.306   6.937 -0.6416  0.9787  0.4089
  161SAPE   C2318036   3.860   4.952   7.034 -0.1519  0.2749 -0.3474
  161SAPE   H3R18037   3.758   4.985   7.060 -1.1564 -2.3683 -0.5839
  161SAPE   H3S18038   3.924   5.043   7.030  0.1672  0.0799  0.1282
  161SAPE   C2418039   3.889   4.861   7.152 -0.1203 -0.0316 -0.3830
  161SAPE   H4R18040   3.831   4.769   7.130  0.3031 -0.6409  0.9270
  161SAPE   H4S18041   3.850   4.908   7.245  1.8652  1.8113 -0.3724
  161SAPE   C2518042   4.032   4.823   7.164  0.0211  0.1635  0.2599
  161SAPE   H5R18043   4.073   4.794   7.066 -0.4394  2.0823 -0.5347
  161SAPE   C2618044   4.107   4.842   7.277  0.4024 -0.3642 -0.2320
  161SAPE   H6R18045   4.208   4.797   7.283  0.6443  0.3018  1.2182
  161SAPE   C2718046   4.071   4.886   7.418  0.9961 -0.4154  1.1280
  161SAPE   H7R18047   3.991   4.820   7.458  0.6822 -0.5431  0.3083
  161SAPE   H7S18048   4.034   4.991   7.420 -1.3699 -1.1790  2.1864
  161SAPE   C2818049   4.175   4.897   7.522  0.2989  0.2009  0.1887
  161SAPE   H8R18050   4.270   4.887   7.466 -1.0103 -1.1057 -1.9509
  161SAPE   C2918051   4.170   4.907   7.650  0.5346 -0.2675  0.4057
  161SAPE   H9R18052   4.263   4.929   7.704  1.0238  0.8170 -0.8139
  161SAPE  C21018053   4.050   4.908   7.735 -0.1257 -0.0634  0.6160
  161SAPE  H10R18054   3.965   4.894   7.665  1.4750  2.0266 -1.9599
  161SAPE  H10S18055   4.042   5.016   7.759 -0.2179  1.0521 -3.6140
  161SAPE  C21118056   4.048   4.831   7.861 -0.4540  0.1835 -0.4456
  161SAPE  H11R18057   3.964   4.760   7.865 -1.5090  1.3547 -1.1532
  161SAPE  C21218058   4.120   4.837   7.974 -0.1689 -0.3005 -0.3085
  161SAPE  H12R18059   4.086   4.778   8.061 -1.3484 -0.1696 -0.6594
  161SAPE  C21318060   4.243   4.927   8.002  0.4692 -0.4746  0.0662
  161SAPE  H13R18061   4.220   4.946   8.109 -4.8012 -0.1762 -0.8261
  161SAPE  H13S18062   4.243   5.027   7.954 -3.5006 -0.5860 -0.5428
  161SAPE  C21418063   4.377   4.859   7.968 -0.0405  0.2752 -0.3405
  161SAPE  H14R18064   4.394   4.833   7.862 -2.1428 -0.2667 -0.5914
  161SAPE  C21518065   4.475   4.830   8.058 -0.1657 -0.9777 -0.3804
  161SAPE  H15R18066   4.575   4.793   8.033 -0.4279 -0.3167 -2.6791
  161SAPE  C21618067   4.454   4.871   8.200 -1.0609  0.1605 -0.6016
  161SAPE  H16R18068   4.400   4.789   8.251  1.2818 -2.2458 -1.7457
  161SAPE  H16S18069   4.415   4.975   8.211 -0.8915  0.1099  0.7122
  161SAPE  C21718070   4.585   4.865   8.279 -0.4184 -0.0080 -0.2852
  161SAPE  H17R18071   4.661   4.940   8.249 -0.7250 -0.3723 -2.1174
  161SAPE  H17S18072   4.636   4.768   8.264  1.5496  1.1272 -1.3205
  161SAPE  C21818073   4.570   4.876   8.431 -0.0311 -0.2227  0.4362
  161SAPE  H18R18074   4.490   4.803   8.455  0.6197 -1.0214  0.2304
  161SAPE  H18S18075   4.527   4.978   8.443 -2.0208 -0.9977  0.2522
  161SAPE  C21918076   4.695   4.846   8.515 -0.2031 -0.0632 -0.0494
  161SAPE  H19R18077   4.720   4.743   8.482  1.3343 -0.3752  1.9449
  161SAPE  H19S18078   4.668   4.833   8.622 -1.7105 -2.7124 -0.6825
  161SAPE  C22018079   4.815   4.936   8.489 -0.5274 -0.4404 -0.0274
  161SAPE  H20R18080   4.862   4.909   8.391  1.0950 -1.9776  1.0878
  161SAPE  H20S18081   4.894   4.922   8.566 -0.4249 -1.2700 -0.2696
  161SAPE  H20T18082   4.776   5.039   8.486 -1.5133 -0.8164 -0.4608
  161SAPE   C3318083   4.119   5.278   7.059 -0.1846  0.2863 -0.2231
  161SAPE   H3X18084   4.133   5.168   7.058  0.1637  0.2873 -2.9843
  161SAPE   H3Y18085   4.011   5.298   7.044 -0.4504 -1.7332 -1.4118
  161SAPE   C3418086   4.171   5.338   7.193 -0.2694  0.0263 -0.4481
  161SAPE   H4X18087   4.157   5.445   7.168 -0.9698  0.6306  2.2436
  161SAPE   H4Y18088   4.278   5.327   7.222 -0.8123  2.0882  2.7464
  161SAPE   C3518089   4.095   5.297   7.317 -0.4003  0.1641 -0.3755
  161SAPE   H5X18090   4.086   5.186   7.313  0.3346  0.1086 -0.6761
  161SAPE   H5Y18091   3.988   5.328   7.311 -1.0648 -1.7804  0.4686
  161SAPE   C3618092   4.159   5.352   7.440  0.4540  0.2319  0.3054
  161SAPE   H6X18093   4.153   5.463   7.443  0.5863  0.2592 -0.2826
  161SAPE   H6Y18094   4.266   5.325   7.431 -0.2053 -2.4779 -0.2530
  161SAPE   C3718095   4.098   5.310   7.570  0.2637 -0.0173  0.0710
  161SAPE   H7X18096   4.096   5.200   7.586  2.3141 -0.2810 -1.0852
  161SAPE   H7Y18097   3.994   5.347   7.579  0.3068 -0.2028  1.6977
  161SAPE   C3818098   4.182   5.369   7.699 -0.0654  0.3405 -0.1641
  161SAPE   H8X18099   4.186   5.479   7.683 -0.8798  0.2337 -1.1686
  161SAPE   H8Y18100   4.285   5.329   7.689  0.0790  0.4053  0.9636
  161SAPE   C3918101   4.124   5.345   7.839  0.7600  0.1259  0.8603
  161SAPE   H9X18102   4.116   5.234   7.849  0.5563 -0.0850 -1.2644
  161SAPE   H9Y18103   4.019   5.379   7.824  1.4180  1.7636 -0.2992
  161SAPE  C31018104   4.195   5.402   7.953  1.0846 -0.1102  0.4413
  161SAPE  H10X18105   4.207   5.508   7.925  0.0661 -0.5309 -1.7996
  161SAPE  H10Y18106   4.297   5.360   7.940  0.5215 -1.3050 -0.2973
  161SAPE  C31118107   4.147   5.383   8.097  0.3593 -0.0458  0.0162
  161SAPE  H11X18108   4.043   5.421   8.107 -0.0279 -0.9873 -0.2609
  161SAPE  H11Y18109   4.207   5.448   8.164  2.5861  0.9454 -2.7429
  161SAPE  C31218110   4.120   5.239   8.132  0.2622  0.4943 -0.0679
  161SAPE  H12X18111   4.213   5.178   8.129 -0.0996 -0.0742  0.2111
  161SAPE  H12Y18112   4.045   5.200   8.060 -0.0588  3.0066 -1.2019
  161SAPE  C31318113   4.061   5.228   8.272  0.0793  0.1024 -0.0986
  161SAPE  H13X18114   3.970   5.291   8.264 -1.4318 -1.9646  0.0014
  161SAPE  H13Y18115   4.131   5.270   8.348 -0.1120 -0.0516  0.1634
  161SAPE  C31418116   4.002   5.092   8.303  0.6672 -0.2198 -0.1309
  161SAPE  H14X18117   3.976   5.039   8.209  0.1321  1.4671 -0.9689
  161SAPE  H14Y18118   3.906   5.115   8.354  2.0243  1.0379  2.0286
  161SAPE  C31518119   4.090   5.004   8.391 -0.0768  0.1568  0.4411
  161SAPE  H15X18120   4.115   5.056   8.486 -1.0330  0.8503  0.3241
  161SAPE  H15Y18121   4.182   4.971   8.338 -1.2746 -0.5575 -1.2941
  161SAPE  C31618122   4.022   4.867   8.429 -0.3263  0.4667 -0.9466
  161SAPE  H16X18123   4.088   4.816   8.502 -1.6127  0.8491  0.5564
  161SAPE  H16Y18124   4.012   4.797   8.344 -0.6435  1.1815 -1.5096
  161SAPE  C31718125   3.879   4.874   8.485 -0.2805 -0.9951  0.5544
  161SAPE  H17X18126   3.807   4.910   8.408  2.0230  1.1106 -0.7366
  161SAPE  H17Y18127   3.877   4.953   8.564  0.6486 -1.6374  1.2457
  161SAPE  C31818128   3.833   4.741   8.544  0.1522 -0.1012  0.2854
  161SAPE  H18X18129   3.903   4.693   8.616  0.6601 -1.0192 -0.7811
  161SAPE  H18Y18130   3.817   4.665   8.465  3.5757 -0.1001 -0.5906
  161SAPE  H18Z18131   3.742   4.766   8.602  0.4368 -0.4523  0.9037
  162SAPE     N18132   1.725   1.456   6.238  0.8280  0.1985 -0.8327
  162SAPE   HN118133   1.781   1.407   6.310 -0.2640  2.0168  1.4044
  162SAPE   HN218134   1.731   1.559   6.246  1.6919  0.0145  2.2594
  162SAPE   HN318135   1.623   1.436   6.248  0.6297  0.8554 -1.4713
  162SAPE   C1218136   1.771   1.430   6.106 -0.4075  0.8786  0.4760
  162SAPE  H12A18137   1.680   1.394   6.054 -0.8179 -0.4695  2.0766
  162SAPE  H12B18138   1.844   1.347   6.115  0.1663  1.1456 -1.2344
  162SAPE   C1118139   1.827   1.553   6.026 -0.5644  0.0172  0.2713
  162SAPE  H11A18140   1.838   1.525   5.919  3.1014 -1.7941  0.9615
  162SAPE  H11B18141   1.930   1.579   6.058  0.1372 -2.0001 -0.1502
  162SAPE     P18142   1.707   1.772   5.937 -0.0267  0.0627 -0.2479
  162SAPE   O1318143   1.799   1.775   5.825 -0.5106  0.3130  0.7618
  162SAPE   O1418144   1.563   1.766   5.901 -0.2822 -0.0679 -0.3675
  162SAPE   O1218145   1.738   1.658   6.043  1.0552 -0.0994  0.4543
  162SAPE   O1118146   1.728   1.900   6.022 -0.2268 -0.2361 -0.0833
  162SAPE    C118147   1.674   1.906   6.156  0.5335 -0.0595  0.1379
  162SAPE    HA18148   1.618   2.001   6.164 -0.0900 -0.5030  1.3546
  162SAPE    HB18149   1.594   1.831   6.174 -1.3118  1.9233  0.5473
  162SAPE    C218150   1.784   1.900   6.258 -0.5996  0.1601 -0.5048
  162SAPE    HS18151   1.852   1.812   6.244  1.4205  1.1510  2.2270
  162SAPE   O2118152   1.714   1.895   6.386 -0.1189  0.1772  0.1258
  162SAPE   C2118153   1.657   1.780   6.419  0.6481 -0.2299 -0.6413
  162SAPE   O2218154   1.658   1.683   6.345 -0.4081  0.2575 -0.6522
  162SAPE   C2218155   1.602   1.793   6.563 -0.5116 -0.8292  0.5649
  162SAPE   H2R18156   1.614   1.893   6.609  2.9756  0.5139 -2.6753
  162SAPE   H2S18157   1.495   1.794   6.534  0.2890  1.1965 -2.9164
  162SAPE    C318158   1.875   2.022   6.279 -0.7263  0.2076  0.6217
  162SAPE    HX18159   1.811   2.112   6.287  0.8515  1.8150 -2.6879
  162SAPE    HY18160   1.928   2.031   6.181  2.5670 -0.8934  2.1567
  162SAPE   O3118161   1.973   2.001   6.378  0.5277  0.8237  0.1916
  162SAPE   C3118162   1.987   2.098   6.464  0.4795 -0.2155  0.2942
  162SAPE   O3218163   1.936   2.209   6.461 -0.2625  0.0993  0.4352
  162SAPE   C3218164   2.082   2.050   6.572 -0.3634 -0.1942 -0.7205
  162SAPE   H2X18165   2.156   2.132   6.579 -0.9997  0.3242  0.2562
  162SAPE   H2Y18166   2.125   1.948   6.562  1.5304  0.4133  0.6184
  162SAPE   C2318167   1.641   1.683   6.663  0.2048 -0.3649  0.0950
  162SAPE   H3R18168   1.654   1.588   6.607  0.0656 -0.4287  0.1690
  162SAPE   H3S18169   1.549   1.675   6.724  0.7067 -0.2904  0.8701
  162SAPE   C2418170   1.760   1.728   6.749  0.2296 -0.6060  0.2899
  162SAPE   H4R18171   1.734   1.814   6.813  1.4550 -0.4844  0.6552
  162SAPE   H4S18172   1.834   1.767   6.676  0.1819  0.8766  0.9985
  162SAPE   C2518173   1.822   1.612   6.825 -0.2989  0.4627 -0.6250
  162SAPE   H5R18174   1.891   1.559   6.758 -2.0485  1.2957 -3.2583
  162SAPE   C2618175   1.793   1.569   6.952 -0.1730  0.5450  0.4843
  162SAPE   H6R18176   1.852   1.492   7.004 -1.7446 -0.6677  0.5362
  162SAPE   C2718177   1.687   1.630   7.037 -0.0388 -0.0746 -0.4224
  162SAPE   H7R18178   1.609   1.669   6.969 -1.3153  2.2888  2.2096
  162SAPE   H7S18179   1.724   1.726   7.080 -1.3880 -0.2031  1.1372
  162SAPE   C2818180   1.627   1.547   7.147  0.1539  0.4877 -0.2704
  162SAPE   H8R18181   1.529   1.505   7.117  0.3230 -0.9140  1.0598
  162SAPE   C2918182   1.683   1.505   7.265  0.3017  1.3576  0.5146
  162SAPE   H9R18183   1.627   1.434   7.327  1.4718  0.5905  0.7359
  162SAPE  C21018184   1.817   1.536   7.331  0.4395  0.0965 -0.2462
  162SAPE  H10R18185   1.881   1.541   7.240 -0.3853 -1.8169 -0.9886
  162SAPE  H10S18186   1.860   1.441   7.371  0.0193 -0.5528 -1.2908
  162SAPE  C21118187   1.820   1.652   7.429 -0.5415 -0.0265  0.2155
  162SAPE  H11R18188   1.827   1.745   7.372  2.0132  0.7263  1.6146
  162SAPE  C21218189   1.836   1.649   7.563 -0.1431  0.1731 -0.2578
  162SAPE  H12R18190   1.822   1.744   7.617 -1.1247 -0.3050  0.3516
  162SAPE  C21318191   1.848   1.521   7.650 -0.0678  0.5434  0.2436
  162SAPE  H13R18192   1.912   1.541   7.739 -2.6510  0.8123  2.1650
  162SAPE  H13S18193   1.901   1.442   7.594 -1.7707 -0.1387 -0.4641
  162SAPE  C21418194   1.704   1.491   7.690 -0.2995 -0.2780  0.2337
  162SAPE  H14R18195   1.643   1.451   7.607  1.4274 -0.4769 -0.9950
  162SAPE  C21518196   1.665   1.489   7.817  0.6649 -0.5382  0.6283
  162SAPE  H15R18197   1.563   1.455   7.839  0.4223 -1.1738 -1.2883
  162SAPE  C21618198   1.744   1.526   7.938  0.0583 -0.4041 -0.0237
  162SAPE  H16R18199   1.803   1.618   7.919 -0.2373 -0.6794 -2.6428
  162SAPE  H16S18200   1.816   1.445   7.963 -2.7950 -2.2360  3.2735
  162SAPE  C21718201   1.654   1.553   8.064  0.2237  0.3047 -0.5571
  162SAPE  H17R18202   1.628   1.453   8.104 -1.7884  1.2543  0.6990
  162SAPE  H17S18203   1.560   1.602   8.030 -0.4195 -1.0318 -0.7687
  162SAPE  C21818204   1.722   1.645   8.171 -0.2765  0.3778  0.2427
  162SAPE  H18R18205   1.741   1.750   8.140 -1.2632  1.1297  2.0420
  162SAPE  H18S18206   1.819   1.602   8.206 -0.5913 -1.2820 -0.8234
  162SAPE  C21918207   1.631   1.657   8.294  0.4963 -0.1148 -0.0899
  162SAPE  H19R18208   1.525   1.652   8.260  0.1943  1.5865  0.5091
  162SAPE  H19S18209   1.644   1.748   8.356  1.6811 -0.2051 -0.1808
  162SAPE  C22018210   1.635   1.530   8.384 -0.1334  0.5566  0.3306
  162SAPE  H20R18211   1.739   1.514   8.418 -0.4375 -2.2538  0.2308
  162SAPE  H20S18212   1.626   1.437   8.323  0.7643  0.6323  0.0657
  162SAPE  H20T18213   1.568   1.530   8.472 -0.8711  0.2673 -0.2231
  162SAPE   C3318214   2.011   2.050   6.706  0.1958  0.2121  0.2536
  162SAPE   H3X18215   1.911   2.004   6.690 -1.7916  4.2306 -0.0720
  162SAPE   H3Y18216   1.991   2.155   6.736  1.9964  0.5090  0.4905
  162SAPE   C3418217   2.081   1.976   6.819 -0.8874  0.0067  0.1846
  162SAPE   H4X18218   2.182   2.020   6.834 -1.7195  2.0563  0.1356
  162SAPE   H4Y18219   2.092   1.869   6.789 -2.5631 -0.1229 -0.0651
  162SAPE   C3518220   1.996   1.986   6.943  0.4861  1.2139 -0.1679
  162SAPE   H5X18221   1.893   1.954   6.915  1.6586 -2.1997 -1.0342
  162SAPE   H5Y18222   1.995   2.094   6.968  3.1857  1.4681 -0.8905
  162SAPE   C3618223   2.053   1.910   7.069 -0.1529 -1.0203  0.2006
  162SAPE   H6X18224   2.157   1.945   7.080  0.2939 -1.0839 -2.7917
  162SAPE   H6Y18225   2.056   1.802   7.043  0.4984 -0.3318 -3.0669
  162SAPE   C3718226   1.976   1.949   7.201  0.2748  0.3438 -0.2732
  162SAPE   H7X18227   1.887   1.883   7.209  0.6942 -0.5233 -2.1123
  162SAPE   H7Y18228   1.945   2.056   7.200 -0.1873  0.2105 -0.6090
  162SAPE   C3818229   2.060   1.921   7.334 -0.5653 -0.4307 -0.4018
  162SAPE   H8X18230   2.161   1.960   7.308 -0.2108  2.0663  3.8994
  162SAPE   H8Y18231   2.085   1.814   7.350  3.3441  0.6000  1.7919
  162SAPE   C3918232   1.999   1.987   7.459  0.7753  0.5193  0.2579
  162SAPE   H9X18233   1.904   1.931   7.477  1.6004 -1.3825 -1.0058
  162SAPE   H9Y18234   1.989   2.098   7.457  1.7216  0.6050  0.1127
  162SAPE  C31018235   2.085   1.967   7.587  0.4444  0.1866  0.0367
  162SAPE  H10X18236   2.183   2.020   7.586 -0.9850  3.0343 -0.5348
  162SAPE  H10Y18237   2.103   1.859   7.605 -0.7194  0.0984  0.7925
  162SAPE  C31118238   2.000   2.012   7.710 -0.1179 -0.8631 -0.8309
  162SAPE  H11X18239   1.916   1.950   7.746  0.2694 -0.9872 -0.1225
  162SAPE  H11Y18240   1.973   2.120   7.718 -2.1021 -1.3645 -0.2760
  162SAPE  C31218241   2.102   1.998   7.826  0.5861  0.8377 -0.1640
  162SAPE  H12X18242   2.161   2.092   7.820  0.2030  1.0685 -0.3870
  162SAPE  H12Y18243   2.168   1.912   7.804  0.6419  1.3054 -2.0034
  162SAPE  C31318244   2.041   2.007   7.970 -0.0653 -0.6929  0.0702
  162SAPE  H13X18245   1.958   1.935   7.977 -2.4571  1.9995  1.7168
  162SAPE  H13Y18246   1.988   2.104   7.984  2.7837  0.9734  0.0656
  162SAPE  C31418247   2.137   1.991   8.084  0.5345 -0.1109 -1.1267
  162SAPE  H14X18248   2.210   2.074   8.078 -0.8696  1.2937  0.2791
  162SAPE  H14Y18249   2.185   1.891   8.087  0.0298 -0.3331  0.3606
  162SAPE  C31518250   2.070   2.004   8.225 -0.2022  0.0823 -0.4966
  162SAPE  H15X18251   2.037   2.107   8.249 -0.6920 -0.3418  0.7290
  162SAPE  H15Y18252   2.156   1.976   8.289  0.2529  1.4885 -0.4778
  162SAPE  C31618253   1.964   1.898   8.245  0.2460  0.3047  0.0227
  162SAPE  H16X18254   2.018   1.808   8.211  1.9243  0.2880  2.5387
  162SAPE  H16Y18255   1.866   1.916   8.195 -0.7977  0.4517  2.0105
  162SAPE  C31718256   1.932   1.873   8.397 -0.4466 -0.6748  0.4218
  162SAPE  H17X18257   2.026   1.855   8.453 -0.3983  0.0570  0.5857
  162SAPE  H17Y18258   1.887   1.771   8.404  1.3190 -1.5519 -0.5083
  162SAPE  C31818259   1.846   1.978   8.469 -0.1319 -0.0038 -0.8563
  162SAPE  H18X18260   1.748   1.956   8.422 -1.8676  0.5614  2.2224
  162SAPE  H18Y18261   1.862   2.083   8.437 -1.3464 -0.2833 -2.5162
  162SAPE  H18Z18262   1.845   1.971   8.580  1.9043  2.3861 -0.6124
  163SAPE     N18263   1.055   0.149   6.559 -0.3134 -0.0342  0.0232
  163SAPE   HN118264   0.990   0.120   6.635  0.3389  1.3884  1.1620
  163SAPE   HN218265   1.132   0.208   6.594 -1.4351  1.2897  0.3385
  163SAPE   HN318266   0.996   0.209   6.497 -0.1298 -1.7986 -2.0012
  163SAPE   C1218267   1.109   0.034   6.476  0.1795 -0.5353 -0.2889
  163SAPE  H12A18268   1.183   0.079   6.407  0.2537  2.0530  1.3843
  163SAPE  H12B18269   1.017  -0.006   6.426 -0.9294  1.5291  0.0200
  163SAPE   C1118270   1.175  -0.070   6.567 -0.4645  0.6539 -0.5647
  163SAPE  H11A18271   1.241  -0.142   6.513  0.8635  0.7673  0.8528
  163SAPE  H11B18272   1.101  -0.141   6.611  2.0715 -0.8211  1.6440
  163SAPE     P18273   1.391   0.026   6.677  0.0773  0.0315 -0.2389
  163SAPE   O1318274   1.464  -0.068   6.770 -0.0030 -0.5106  0.1508
  163SAPE   O1418275   1.442   0.035   6.535  0.2836  0.0035  0.1310
  163SAPE   O1218276   1.238  -0.003   6.678 -0.1394  1.0202  0.9149
  163SAPE   O1118277   1.398   0.175   6.739 -0.2580 -0.0183  0.2027
  163SAPE    C118278   1.519   0.248   6.749 -0.2236 -0.6858  0.4488
  163SAPE    HA18279   1.597   0.199   6.687  0.0357  3.0956 -2.5550
  163SAPE    HB18280   1.510   0.351   6.709  3.8343 -0.4236 -0.2376
  163SAPE    C218281   1.565   0.241   6.898 -0.6109  0.2222  0.0866
  163SAPE    HS18282   1.572   0.135   6.930  1.6833  0.8352  1.9101
  163SAPE   O2118283   1.478   0.317   6.978 -0.1284 -0.2009  0.2921
  163SAPE   C2118284   1.385   0.246   7.041  0.5350 -0.0578  0.1031
  163SAPE   O2218285   1.381   0.125   7.058 -0.0712  0.4404  0.8044
  163SAPE   C2218286   1.273   0.343   7.080  0.2349 -0.6818  0.6056
  163SAPE   H2R18287   1.278   0.364   7.189 -1.3431  0.6463  0.4543
  163SAPE   H2S18288   1.286   0.439   7.024 -0.6102 -0.7240  0.3153
  163SAPE    C318289   1.713   0.302   6.920  0.4049 -0.3260  0.4633
  163SAPE    HX18290   1.710   0.403   6.873 -0.4229  0.3053  1.8186
  163SAPE    HY18291   1.791   0.242   6.868 -0.2741  0.2106 -1.2625
  163SAPE   O3118292   1.753   0.319   7.061 -0.0389 -0.0056 -0.5377
  163SAPE   C3118293   1.781   0.200   7.112 -0.2745  0.0065 -0.1677
  163SAPE   O3218294   1.774   0.092   7.057  0.1947  0.1322 -0.2155
  163SAPE   C3218295   1.807   0.226   7.267  0.2168 -0.1123  0.6210
  163SAPE   H2X18296   1.743   0.307   7.308  0.0133  0.6056 -1.0083
  163SAPE   H2Y18297   1.914   0.255   7.281  0.1424 -0.8883  3.1497
  163SAPE   C2318298   1.128   0.298   7.043  0.5886 -0.2307  0.0519
  163SAPE   H3R18299   1.124   0.196   7.086  0.0260 -1.2620 -2.2700
  163SAPE   H3S18300   1.104   0.285   6.935  0.8015 -0.4313  0.0268
  163SAPE   C2418301   1.019   0.382   7.116  0.3505  0.7059 -0.9617
  163SAPE   H4R18302   1.059   0.383   7.219  0.8281 -0.7357 -1.1222
  163SAPE   H4S18303   0.920   0.331   7.108  1.9237 -2.4743 -1.7257
  163SAPE   C2518304   0.997   0.527   7.069 -0.4881 -0.5328 -0.0465
  163SAPE   H5R18305   0.940   0.532   6.976  0.5638  0.4458 -0.6623
  163SAPE   C2618306   1.034   0.647   7.125 -0.1260 -0.1704  0.1157
  163SAPE   H6R18307   1.000   0.743   7.085  0.1847 -1.0263 -2.4149
  163SAPE   C2718308   1.111   0.656   7.255 -0.4341 -0.2488 -0.2635
  163SAPE   H7R18309   1.166   0.752   7.253 -1.2453  0.2248 -0.0772
  163SAPE   H7S18310   1.190   0.578   7.259  0.6624  0.7955 -0.8853
  163SAPE   C2818311   1.026   0.647   7.386  0.8080 -0.2327 -0.2942
  163SAPE   H8R18312   0.919   0.662   7.365  1.1891  3.1343 -0.3591
  163SAPE   C2918313   1.058   0.620   7.510  0.0571 -0.1886  0.2786
  163SAPE   H9R18314   0.983   0.633   7.589 -1.5351  1.8243 -1.4248
  163SAPE  C21018315   1.202   0.590   7.545 -0.5432 -0.0150  0.0879
  163SAPE  H10R18316   1.259   0.548   7.460 -0.1025  2.6459 -1.0241
  163SAPE  H10S18317   1.189   0.508   7.619 -0.8772  1.6368  1.9529
  163SAPE  C21118318   1.269   0.713   7.602 -0.4974 -0.1971 -0.2020
  163SAPE  H11R18319   1.261   0.799   7.534 -0.2195 -0.3660 -0.4517
  163SAPE  C21218320   1.305   0.732   7.730 -0.5590  0.1023 -0.1264
  163SAPE  H12R18321   1.341   0.831   7.760 -1.0405  0.3810 -0.4535
  163SAPE  C21318322   1.302   0.632   7.841  0.1345  0.3941 -0.5085
  163SAPE  H13R18323   1.211   0.569   7.848 -0.5318  1.3776  0.0127
  163SAPE  H13S18324   1.317   0.691   7.934  0.7886  1.3192 -1.1773
  163SAPE  C21418325   1.423   0.540   7.833  0.1130  0.1503  0.3200
  163SAPE  H14R18326   1.440   0.516   7.727  1.3458  1.7606  0.1087
  163SAPE  C21518327   1.512   0.504   7.925  0.8637 -0.6417  0.4245
  163SAPE  H15R18328   1.601   0.446   7.898  0.5696 -1.2922  0.8424
  163SAPE  C21618329   1.503   0.554   8.065 -1.2001 -1.0221  0.1433
  163SAPE  H16R18330   1.434   0.505   8.136  0.3177 -1.9198  1.0562
  163SAPE  H16S18331   1.480   0.662   8.072 -0.5458 -0.9064  0.5959
  163SAPE  C21718332   1.644   0.553   8.132  0.0941  1.0887  0.3381
  163SAPE  H17R18333   1.696   0.644   8.096  0.6137  1.1798  1.3038
  163SAPE  H17S18334   1.699   0.463   8.100 -2.0922 -0.8921  1.7686
  163SAPE  C21818335   1.636   0.547   8.287 -0.6435 -0.0032  0.3141
  163SAPE  H18R18336   1.585   0.454   8.319 -1.7252  0.7916  0.9445
  163SAPE  H18S18337   1.582   0.636   8.325 -1.8910 -0.0910 -1.1569
  163SAPE  C21918338   1.778   0.543   8.341 -0.1901 -0.3605  0.7097
  163SAPE  H19R18339   1.828   0.641   8.332 -0.6193 -0.0590  1.5008
  163SAPE  H19S18340   1.841   0.465   8.292  1.3947  0.6516  1.0808
  163SAPE  C22018341   1.775   0.510   8.494 -0.5158  0.3156  1.0584
  163SAPE  H20R18342   1.880   0.535   8.520 -0.9650  2.5979  0.9353
  163SAPE  H20S18343   1.752   0.404   8.517 -2.7619  0.5765  0.2748
  163SAPE  H20T18344   1.704   0.563   8.561  0.6490  0.4396  2.2482
  163SAPE   C3318345   1.768   0.105   7.353  0.3375 -0.3256 -0.2930
  163SAPE   H3X18346   1.803   0.128   7.456  1.1483  2.1421 -1.0485
  163SAPE   H3Y18347   1.822   0.018   7.311 -0.7213 -0.1089 -2.2125
  163SAPE   C3418348   1.623   0.076   7.362 -0.0894  0.1577  0.4860
  163SAPE   H4X18349   1.572   0.066   7.264  1.8502 -0.3518 -0.5095
  163SAPE   H4Y18350   1.575   0.171   7.394 -2.3953 -1.0565  0.8310
  163SAPE   C3518351   1.585  -0.045   7.448 -0.0123  0.0041  0.1864
  163SAPE   H5X18352   1.474  -0.043   7.444  0.0130  1.9538 -1.9342
  163SAPE   H5Y18353   1.608  -0.033   7.556 -0.8794  1.2287  0.2699
  163SAPE   C3618354   1.643  -0.180   7.387 -0.9714 -0.1834  0.0373
  163SAPE   H6X18355   1.752  -0.187   7.408 -1.0512 -3.3460 -0.2046
  163SAPE   H6Y18356   1.624  -0.167   7.279 -2.1415 -2.1802 -0.0415
  163SAPE   C3718357   1.567  -0.301   7.437 -0.0767 -0.2901  0.4472
  163SAPE   H7X18358   1.615  -0.388   7.387 -0.8848 -0.0744 -0.7538
  163SAPE   H7Y18359   1.464  -0.295   7.396 -0.9894 -1.1499  2.4644
  163SAPE   C3818360   1.572  -0.327   7.583  0.6267 -0.1703 -0.4042
  163SAPE   H8X18361   1.502  -0.412   7.600  0.5686 -1.1514 -4.4435
  163SAPE   H8Y18362   1.555  -0.241   7.650 -0.6982 -0.8179  0.1248
  163SAPE   C3918363   1.697  -0.403   7.629 -0.0991  0.4465 -0.6756
  163SAPE   H9X18364   1.734  -0.475   7.553  1.0805 -1.1036  1.2600
  163SAPE   H9Y18365   1.667  -0.469   7.714 -0.4700  0.5997 -0.6870
  163SAPE  C31018366   1.818  -0.322   7.669 -0.5715  0.5972 -0.0129
  163SAPE  H10X18367   1.777  -0.249   7.742 -1.5547  0.7534 -0.7016
  163SAPE  H10Y18368   1.851  -0.265   7.580 -0.8362 -0.2658 -0.6684
  163SAPE  C31118369   1.929  -0.419   7.732 -0.5113 -0.2376  0.9252
  163SAPE  H11X18370   1.955  -0.478   7.641 -1.6712  0.0875  0.3670
  163SAPE  H11Y18371   1.883  -0.493   7.801 -1.5693 -0.6645 -0.1994
  163SAPE  C31218372   2.055  -0.359   7.801  0.4339 -0.2503 -0.4512
  163SAPE  H12X18373   2.100  -0.279   7.738  0.9895 -0.7723 -0.7286
  163SAPE  H12Y18374   2.133  -0.438   7.791 -1.4203 -2.1828 -0.4622
  163SAPE  C31318375   2.022  -0.316   7.948  0.2002 -0.1073 -0.1773
  163SAPE  H13X18376   1.937  -0.246   7.960  0.8416  0.6196  0.1877
  163SAPE  H13Y18377   2.111  -0.254   7.973 -0.3917  0.4502  0.5468
  163SAPE  C31418378   1.997  -0.433   8.044  0.0072 -0.4426 -0.2031
  163SAPE  H14X18379   2.084  -0.500   8.029  1.3627  1.6976 -2.6324
  163SAPE  H14Y18380   1.901  -0.481   8.016 -0.2446 -0.5077  0.7438
  163SAPE  C31518381   1.990  -0.382   8.184 -0.1063 -0.2765 -0.0742
  163SAPE  H15X18382   1.891  -0.334   8.197  0.2796  0.4508  0.2700
  163SAPE  H15Y18383   2.064  -0.302   8.207 -1.5284  1.2005 -0.4568
  163SAPE  C31618384   2.006  -0.490   8.299  0.1466  0.0444  0.1700
  163SAPE  H16X18385   2.116  -0.503   8.312  0.7050  1.1977 -2.5911
  163SAPE  H16Y18386   1.969  -0.591   8.274  2.2417 -1.6867  3.3754
  163SAPE  C31718387   1.932  -0.438   8.422  0.0863  0.2879 -0.2914
  163SAPE  H17X18388   1.826  -0.423   8.394 -0.2261  1.0925  1.2175
  163SAPE  H17Y18389   1.977  -0.339   8.446 -0.0897  0.2308  0.2836
  163SAPE  C31818390   1.933  -0.528   8.541  0.1390  0.1499 -0.7729
  163SAPE  H18X18391   1.840  -0.589   8.554  0.7933 -0.7070  0.0470
  163SAPE  H18Y18392   1.932  -0.464   8.631 -1.9586 -1.7800  0.7104
  163SAPE  H18Z18393   2.026  -0.589   8.539  0.8346  1.1609  0.0868
  164SAPE     N18394   5.678   2.540   5.879 -0.2092  0.3447 -0.0536
  164SAPE   HN118395   5.764   2.597   5.874  0.9047 -1.2342  0.3339
  164SAPE   HN218396   5.632   2.553   5.972 -3.8841 -1.1511 -1.4618
  164SAPE   HN318397   5.708   2.443   5.858 -0.3446  0.8054 -2.7599
  164SAPE   C1218398   5.579   2.579   5.776  0.8089  0.2684  0.3491
  164SAPE  H12A18399   5.482   2.539   5.813  1.7586  0.0347  2.7612
  164SAPE  H12B18400   5.608   2.522   5.685  2.3080 -0.5404  1.2986
  164SAPE   C1118401   5.566   2.733   5.761 -0.7659 -0.2606 -0.0509
  164SAPE  H11A18402   5.479   2.744   5.693 -0.7548 -3.3999 -0.7506
  164SAPE  H11B18403   5.654   2.773   5.707 -0.3238 -2.7821 -1.3472
  164SAPE     P18404   5.490   2.917   5.933  0.1650  0.0947 -0.4802
  164SAPE   O1318405   5.510   3.018   5.827 -0.5555  0.1191  0.3518
  164SAPE   O1418406   5.354   2.884   5.967 -0.1922 -0.1722 -0.8565
  164SAPE   O1218407   5.558   2.789   5.891 -0.0197 -0.6100  0.8605
  164SAPE   O1118408   5.568   2.961   6.063 -0.2166 -0.1845 -0.0498
  164SAPE    C118409   5.642   2.872   6.146 -0.1454 -0.2292  0.0352
  164SAPE    HA18410   5.585   2.776   6.147  0.2499 -0.4717  1.5839
  164SAPE    HB18411   5.740   2.845   6.099  0.0766  0.6842 -0.0335
  164SAPE    C218412   5.659   2.924   6.288 -0.3776 -0.7431 -0.1988
  164SAPE    HS18413   5.702   2.846   6.354  1.0649  1.4716  1.6864
  164SAPE   O2118414   5.547   2.991   6.337 -0.0953  0.7388  0.0401
  164SAPE   C2118415   5.452   2.905   6.363  0.3937  0.6231  0.4064
  164SAPE   O2218416   5.459   2.780   6.351  0.2122 -0.0978  0.2411
  164SAPE   C2218417   5.326   2.985   6.409  0.2056 -0.3578 -0.6204
  164SAPE   H2R18418   5.300   3.043   6.318  0.4540  1.5599  0.4705
  164SAPE   H2S18419   5.252   2.909   6.441 -2.1377  1.9661 -0.1807
  164SAPE    C318420   5.760   3.036   6.282  0.0686 -0.3922  0.7614
  164SAPE    HX18421   5.722   3.115   6.214 -0.1161  0.0833  1.3970
  164SAPE    HY18422   5.848   2.986   6.235 -1.0337 -1.3602 -0.3317
  164SAPE   O3118423   5.794   3.087   6.417 -0.0381  0.4972 -0.4402
  164SAPE   C3118424   5.748   3.200   6.449  0.0871  0.9280 -0.0191
  164SAPE   O3218425   5.706   3.287   6.371 -0.3699 -0.7643  0.2212
  164SAPE   C3218426   5.732   3.217   6.591  0.3622  0.1650 -1.0791
  164SAPE   H2X18427   5.659   3.138   6.621 -1.1846  1.5257 -1.1156
  164SAPE   H2Y18428   5.687   3.318   6.605  0.3135 -0.0208  0.2732
  164SAPE   C2318429   5.352   3.079   6.527  0.6576 -0.4140  0.0391
  164SAPE   H3R18430   5.255   3.116   6.567  0.4276 -1.1815  0.2100
  164SAPE   H3S18431   5.412   3.168   6.499 -0.0876  1.2519  3.2696
  164SAPE   C2418432   5.424   3.018   6.646 -0.5303  0.8812 -0.8735
  164SAPE   H4R18433   5.456   3.100   6.713 -1.2813  1.4420 -1.1760
  164SAPE   H4S18434   5.511   2.958   6.612 -2.2802 -1.8703 -0.9152
  164SAPE   C2518435   5.332   2.924   6.724  1.1349  0.0905  0.2043
  164SAPE   H5R18436   5.273   2.858   6.659  1.7858  0.5799 -0.9048
  164SAPE   C2618437   5.307   2.925   6.856 -0.5402 -0.5533 -0.0647
  164SAPE   H6R18438   5.230   2.855   6.890 -0.4890  0.7453  3.1093
  164SAPE   C2718439   5.373   3.022   6.956  0.0371 -0.1921 -0.2223
  164SAPE   H7R18440   5.481   3.027   6.929 -0.3016  0.4717 -1.5035
  164SAPE   H7S18441   5.363   2.984   7.060 -0.1052 -1.1402 -0.5683
  164SAPE   C2818442   5.304   3.157   6.941  0.8672 -0.0602  0.0106
  164SAPE   H8R18443   5.278   3.185   6.838 -2.2054 -1.9493  0.1480
  164SAPE   C2918444   5.271   3.244   7.040 -0.6379 -1.0791 -0.1335
  164SAPE   H9R18445   5.224   3.335   7.002  0.8139 -0.7205 -1.1409
  164SAPE  C21018446   5.287   3.227   7.187 -0.6427  0.5934  0.4279
  164SAPE  H10R18447   5.362   3.302   7.220  0.2541  0.4016 -1.0746
  164SAPE  H10S18448   5.328   3.126   7.208 -3.5878 -0.6132  0.9170
  164SAPE  C21118449   5.148   3.239   7.252  0.6672  0.8412 -0.2431
  164SAPE  H11R18450   5.061   3.196   7.200  0.1877 -0.8911  1.8406
  164SAPE  C21218451   5.129   3.315   7.358 -0.3627  0.0417 -0.5866
  164SAPE  H12R18452   5.030   3.332   7.405 -0.4390  0.3196 -0.8465
  164SAPE  C21318453   5.232   3.387   7.444  0.1270  0.3676  0.2939
  164SAPE  H13R18454   5.331   3.337   7.435  0.5352  1.0220  1.0502
  164SAPE  H13S18455   5.200   3.360   7.547  0.8622 -1.2981  0.1221
  164SAPE  C21418456   5.247   3.536   7.410  0.2017 -0.0696 -0.1324
  164SAPE  H14R18457   5.257   3.560   7.303  0.9885  1.1794  0.2064
  164SAPE  C21518458   5.231   3.643   7.494  0.2771  0.2427  0.8787
  164SAPE  H15R18459   5.252   3.740   7.446  3.1233 -0.7065  0.0228
  164SAPE  C21618460   5.190   3.632   7.635  0.0252 -1.2412 -0.5892
  164SAPE  H16R18461   5.231   3.537   7.675  0.0355 -0.9844  0.0121
  164SAPE  H16S18462   5.083   3.645   7.662  0.3162  1.1436 -0.3836
  164SAPE  C21718463   5.273   3.739   7.709  1.0205  0.0143 -0.2167
  164SAPE  H17R18464   5.258   3.843   7.674  1.5996  0.3489  0.5135
  164SAPE  H17S18465   5.383   3.722   7.701  0.9106  0.0595 -2.4687
  164SAPE  C21818466   5.231   3.735   7.860  0.0000 -0.1000  0.7691
  164SAPE  H18R18467   5.232   3.632   7.900 -0.4062 -1.1519 -1.7320
  164SAPE  H18S18468   5.128   3.776   7.867  0.5394  1.0019  3.5115
  164SAPE  C21918469   5.321   3.821   7.940 -0.3532 -0.7106  0.0318
  164SAPE  H19R18470   5.305   3.927   7.910  0.8974 -0.3813  0.4717
  164SAPE  H19S18471   5.425   3.789   7.919 -0.4861 -1.0591 -0.0997
  164SAPE  C22018472   5.304   3.777   8.089  0.4442  0.1162 -0.3879
  164SAPE  H20R18473   5.381   3.836   8.144  1.2097  0.5239 -1.8497
  164SAPE  H20S18474   5.338   3.672   8.104  1.4234  0.1196 -2.3570
  164SAPE  H20T18475   5.199   3.793   8.123  0.5101  1.2874 -0.7057
  164SAPE   C3318476   5.861   3.214   6.685  0.0463 -0.3547  0.2385
  164SAPE   H3X18477   5.938   3.279   6.639  2.4276 -2.3914  1.1170
  164SAPE   H3Y18478   5.899   3.110   6.691 -1.0381 -1.1443 -3.8282
  164SAPE   C3418479   5.827   3.278   6.824 -0.2259  0.1863 -0.6274
  164SAPE   H4X18480   5.789   3.382   6.810  2.4413  1.5512  1.2821
  164SAPE   H4Y18481   5.921   3.298   6.879 -1.0330  0.8935  0.5403
  164SAPE   C3518482   5.726   3.198   6.908  0.8416 -0.3959 -0.2239
  164SAPE   H5X18483   5.746   3.090   6.895  0.5526 -0.6242  1.1391
  164SAPE   H5Y18484   5.625   3.234   6.880  1.2072  1.0389  0.2080
  164SAPE   C3618485   5.751   3.218   7.056  0.0092  0.6167 -0.2077
  164SAPE   H6X18486   5.860   3.213   7.074 -0.3881  0.5253  2.5355
  164SAPE   H6Y18487   5.713   3.127   7.108 -0.8930  0.6316 -0.8266
  164SAPE   C3718488   5.711   3.348   7.121  0.1077  0.1865  0.1237
  164SAPE   H7X18489   5.600   3.350   7.133  0.2295  0.7435  1.2500
  164SAPE   H7Y18490   5.741   3.429   7.051  2.3500  1.7487  2.7101
  164SAPE   C3818491   5.765   3.386   7.261  0.6122 -0.4622  0.3476
  164SAPE   H8X18492   5.741   3.492   7.282 -0.3524 -0.4334 -0.7745
  164SAPE   H8Y18493   5.875   3.371   7.265  0.8678  1.3324  1.2419
  164SAPE   C3918494   5.699   3.295   7.363 -0.0540  0.4121 -0.5126
  164SAPE   H9X18495   5.730   3.189   7.361  2.1926  1.0131  0.2722
  164SAPE   H9Y18496   5.588   3.291   7.352 -0.1254 -0.4106  0.4187
  164SAPE  C31018497   5.745   3.345   7.501 -0.3598  0.7986  0.2768
  164SAPE  H10X18498   5.676   3.296   7.574  1.2872 -0.6974  0.9001
  164SAPE  H10Y18499   5.734   3.454   7.520 -2.4075  0.4251  1.4999
  164SAPE  C31118500   5.884   3.300   7.547  0.4785  0.8350 -0.6316
  164SAPE  H11X18501   5.954   3.380   7.513  1.1632  1.1664  1.4083
  164SAPE  H11Y18502   5.903   3.198   7.507  0.3235 -0.3350  2.1137
  164SAPE  C31218503   5.893   3.278   7.701  0.3269  0.3538 -0.6656
  164SAPE  H12X18504   5.815   3.202   7.722  0.8199  0.4877  2.1265
  164SAPE  H12Y18505   5.859   3.363   7.765 -0.0552  0.3095 -0.8102
  164SAPE  C31318506   6.028   3.227   7.747 -1.1438  0.0704  0.3287
  164SAPE  H13X18507   6.095   3.315   7.753 -0.5820 -0.1547 -1.7956
  164SAPE  H13Y18508   6.063   3.157   7.667 -3.1420 -1.7651  0.9865
  164SAPE  C31418509   6.039   3.169   7.890 -0.3281  0.5990 -0.1195
  164SAPE  H14X18510   6.123   3.097   7.902 -0.8460 -0.0574 -0.3726
  164SAPE  H14Y18511   5.949   3.107   7.908 -0.2296 -0.1242 -1.8981
  164SAPE  C31518512   6.036   3.279   8.001 -0.9225 -0.2328 -0.6231
  164SAPE  H15X18513   5.960   3.358   7.984 -0.0236  0.2355 -2.7283
  164SAPE  H15Y18514   6.130   3.338   7.995  0.0693 -1.4318  1.6741
  164SAPE  C31618515   6.041   3.217   8.143  0.3851  0.2373 -0.4696
  164SAPE  H16X18516   6.147   3.194   8.167  0.5321  1.9879  0.7844
  164SAPE  H16Y18517   5.986   3.121   8.131  1.7884 -0.5061 -1.1261
  164SAPE  C31718518   5.984   3.298   8.262  0.0134 -0.2949 -0.4071
  164SAPE  H17X18519   5.880   3.329   8.238 -0.1469 -1.6923 -1.6482
  164SAPE  H17Y18520   6.036   3.396   8.263 -2.3057  1.0458 -1.8375
  164SAPE  C31818521   6.008   3.232   8.401  0.0830  1.0237  0.0471
  164SAPE  H18X18522   6.115   3.203   8.411 -0.6422 -1.5621  1.3077
  164SAPE  H18Y18523   5.965   3.129   8.404 -1.1412  1.4943 -0.7795
  164SAPE  H18Z18524   5.975   3.289   8.490 -0.8030 -1.3063  1.3216
  165SAPE     N18525   4.731   5.919   6.472  0.0706 -0.3760  0.0501
  165SAPE   HN118526   4.674   5.941   6.555 -0.8159 -0.3979 -0.5446
  165SAPE   HN218527   4.726   5.994   6.400  1.0894  1.7591  2.0777
  165SAPE   HN318528   4.709   5.826   6.430  0.3043 -0.2154 -0.4323
  165SAPE   C1218529   4.869   5.916   6.508 -0.2382 -0.5031 -0.4912
  165SAPE  H12A18530   4.874   5.822   6.567 -2.7807 -0.2643  0.2696
  165SAPE  H12B18531   4.899   5.998   6.576 -0.8766 -0.6757  0.0129
  165SAPE   C1118532   4.959   5.931   6.386 -0.5648  0.4713  0.7500
  165SAPE  H11A18533   4.937   5.875   6.293  1.9832  1.0279 -0.2543
  165SAPE  H11B18534   5.052   5.880   6.421  0.9516  2.7079  0.1564
  165SAPE     P18535   4.913   6.165   6.269  0.0316 -0.3009  0.0867
  165SAPE   O1318536   4.937   6.304   6.308  0.4646  0.2963  0.0028
  165SAPE   O1418537   4.947   6.141   6.122  0.7437 -0.3574 -0.0837
  165SAPE   O1218538   4.987   6.068   6.370 -0.4629  0.3155  0.7770
  165SAPE   O1118539   4.761   6.117   6.284  0.4812  0.2316 -0.6157
  165SAPE    C118540   4.654   6.190   6.237 -0.1524 -0.4173 -0.7549
  165SAPE    HA18541   4.673   6.297   6.260 -1.2705 -0.0753 -1.3536
  165SAPE    HB18542   4.643   6.188   6.127  1.0772 -2.0883 -0.8795
  165SAPE    C218543   4.525   6.153   6.313 -0.1891 -0.3055  0.0430
  165SAPE    HS18544   4.454   6.228   6.270  0.6924  1.7890  2.0146
  165SAPE   O2118545   4.551   6.153   6.458  0.9011 -0.5430  0.1009
  165SAPE   C2118546   4.524   6.273   6.523 -0.1172  0.3442 -0.5997
  165SAPE   O2218547   4.482   6.369   6.462  0.2957 -0.5281 -0.1116
  165SAPE   C2218548   4.563   6.258   6.681 -0.0018 -0.4604 -0.0240
  165SAPE   H2R18549   4.479   6.221   6.743 -0.5456  1.1333  0.2366
  165SAPE   H2S18550   4.657   6.200   6.688  0.1315 -0.2257  0.1670
  165SAPE    C318551   4.471   6.019   6.267 -0.5103 -0.2351  0.8887
  165SAPE    HX18552   4.560   5.955   6.286 -1.7436 -2.0274  0.8859
  165SAPE    HY18553   4.459   6.027   6.157 -0.3420 -0.4244  0.8556
  165SAPE   O3118554   4.353   5.968   6.325  0.3037 -0.0712 -0.2459
  165SAPE   C3118555   4.239   6.039   6.296  0.2866 -0.2066  0.6265
  165SAPE   O3218556   4.229   6.131   6.213 -0.5398  0.0781  0.0912
  165SAPE   C3218557   4.126   5.976   6.368  0.1458  0.4665 -0.4601
  165SAPE   H2X18558   4.113   5.872   6.331 -1.9828 -0.1967  1.9033
  165SAPE   H2Y18559   4.027   6.023   6.345 -1.3216 -1.4253  1.5436
  165SAPE   C2318560   4.594   6.406   6.728 -0.2766 -0.2263 -0.2234
  165SAPE   H3R18561   4.495   6.456   6.722 -0.4124 -0.3670  0.7855
  165SAPE   H3S18562   4.658   6.465   6.659 -2.1439  0.9643 -1.0181
  165SAPE   C2418563   4.641   6.403   6.878 -0.3989  0.5194 -0.4489
  165SAPE   H4R18564   4.575   6.325   6.922 -0.2882  0.5179 -0.2854
  165SAPE   H4S18565   4.615   6.502   6.920 -0.6283  0.1496  0.3039
  165SAPE   C2518566   4.786   6.370   6.894 -0.2165  0.0824  0.4617
  165SAPE   H5R18567   4.853   6.409   6.816  1.2677 -3.7811 -0.4042
  165SAPE   C2618568   4.840   6.298   6.997 -0.7592 -0.9649  0.3408
  165SAPE   H6R18569   4.950   6.295   6.999 -0.5376  2.0597 -0.9258
  165SAPE   C2718570   4.767   6.229   7.114 -0.1878 -0.2842  0.6757
  165SAPE   H7R18571   4.713   6.140   7.077  0.2685 -0.7924  1.2148
  165SAPE   H7S18572   4.687   6.296   7.154 -0.7281 -1.0897  0.9759
  165SAPE   C2818573   4.854   6.187   7.231  0.0052  0.4321  0.4743
  165SAPE   H8R18574   4.954   6.147   7.206 -0.0336 -0.3919  1.5635
  165SAPE   C2918575   4.821   6.190   7.357 -1.2333  0.4874  0.1972
  165SAPE   H9R18576   4.897   6.160   7.431  0.7901  2.4057 -0.9723
  165SAPE  C21018577   4.705   6.231   7.431  1.4853 -0.4814 -0.0280
  165SAPE  H10R18578   4.681   6.153   7.507  1.9780 -0.1116  0.5209
  165SAPE  H10S18579   4.615   6.219   7.367  2.7920  1.6351 -2.4390
  165SAPE  C21118580   4.724   6.368   7.490  0.9463 -0.2137  0.2783
  165SAPE  H11R18581   4.806   6.433   7.458 -0.9361  1.5979 -1.1495
  165SAPE  C21218582   4.659   6.423   7.594 -0.4756  0.6760 -0.2175
  165SAPE  H12R18583   4.714   6.504   7.645  2.5634 -1.3614  0.0114
  165SAPE  C21318584   4.546   6.358   7.671 -0.5806 -0.1786  0.2435
  165SAPE  H13R18585   4.503   6.267   7.623 -3.2592 -0.3788  2.7562
  165SAPE  H13S18586   4.456   6.422   7.677 -0.1181  0.4043  1.0487
  165SAPE  C21418587   4.596   6.319   7.808  0.3150 -0.3392 -0.6129
  165SAPE  H14R18588   4.686   6.255   7.801  1.5466  1.2215  0.1090
  165SAPE  C21518589   4.542   6.343   7.931 -0.0234 -0.1676  0.2130
  165SAPE  H15R18590   4.594   6.300   8.017  1.1552  0.0265 -0.3698
  165SAPE  C21618591   4.425   6.428   7.972  0.0707  0.8586  0.2776
  165SAPE  H16R18592   4.355   6.431   7.886  1.4752  2.4111 -0.8682
  165SAPE  H16S18593   4.449   6.524   8.022  0.0530 -0.1391  2.2902
  165SAPE  C21718594   4.356   6.361   8.090 -1.0741 -0.4234 -0.1095
  165SAPE  H17R18595   4.343   6.251   8.081 -2.2508 -0.6468  3.0186
  165SAPE  H17S18596   4.256   6.410   8.095 -0.1362  1.6762 -0.8592
  165SAPE  C21818597   4.424   6.386   8.223  0.5134  0.0938  0.0061
  165SAPE  H18R18598   4.461   6.491   8.227 -2.4621  1.2854 -1.2190
  165SAPE  H18S18599   4.510   6.315   8.226 -0.5100 -1.4508 -3.1583
  165SAPE  C21918600   4.334   6.349   8.344 -0.6580 -0.2395  0.2496
  165SAPE  H19R18601   4.404   6.326   8.427 -2.9554 -1.8371  1.8667
  165SAPE  H19S18602   4.277   6.258   8.314  1.0628 -1.0102 -0.8294
  165SAPE  C22018603   4.240   6.466   8.373 -0.2977 -0.0058 -0.0587
  165SAPE  H20R18604   4.171   6.436   8.454 -0.6738  1.3418  0.1434
  165SAPE  H20S18605   4.175   6.489   8.285 -0.7044 -0.4889  0.1104
  165SAPE  H20T18606   4.289   6.559   8.407  1.3658 -0.1142 -1.9366
  165SAPE   C3318607   4.159   5.968   6.517 -0.2384  0.6541 -0.2505
  165SAPE   H3X18608   4.254   5.911   6.530 -0.3455  0.7348  1.0048
  165SAPE   H3Y18609   4.086   5.899   6.564  2.4481 -1.1788  1.5934
  165SAPE   C3418610   4.148   6.096   6.601 -0.0510 -0.5798  0.3812
  165SAPE   H4X18611   4.042   6.127   6.594  0.2943  0.9540  1.4483
  165SAPE   H4Y18612   4.206   6.176   6.550  0.2568 -1.8797 -1.4216
  165SAPE   C3518613   4.200   6.070   6.744 -0.1507 -0.1030  0.2707
  165SAPE   H5X18614   4.306   6.037   6.733  0.5879  1.9701  0.6674
  165SAPE   H5Y18615   4.129   5.999   6.793 -2.1531  1.5409 -0.1271
  165SAPE   C3618616   4.205   6.195   6.828  0.0738 -0.0165 -0.5533
  165SAPE   H6X18617   4.107   6.246   6.817 -0.6207 -1.3531 -0.7096
  165SAPE   H6Y18618   4.273   6.270   6.782  1.7453  1.2307  3.4596
  165SAPE   C3718619   4.241   6.165   6.971 -0.3075  0.2119  0.6958
  165SAPE   H7X18620   4.310   6.077   6.971 -3.7145 -2.8322 -2.4113
  165SAPE   H7Y18621   4.154   6.128   7.030 -0.4202 -1.7298 -0.6011
  165SAPE   C3818622   4.281   6.289   7.055 -0.0411  0.3123  0.7878
  165SAPE   H8X18623   4.212   6.375   7.037 -0.0941 -0.0670 -1.0969
  165SAPE   H8Y18624   4.368   6.334   7.002 -2.5242  1.4323 -2.7239
  165SAPE   C3918625   4.317   6.266   7.200  0.0558  0.3150 -0.4343
  165SAPE   H9X18626   4.375   6.353   7.237 -1.8444  2.6653 -2.5817
  165SAPE   H9Y18627   4.388   6.181   7.195  1.3772  1.0969  3.0124
  165SAPE  C31018628   4.206   6.231   7.292 -0.2373  0.4497 -0.9404
  165SAPE  H10X18629   4.181   6.123   7.286 -2.1690  0.8607 -1.1556
  165SAPE  H10Y18630   4.113   6.271   7.246 -0.6451  1.7491  0.9111
  165SAPE  C31118631   4.229   6.282   7.434  0.3917  0.1844 -0.9850
  165SAPE  H11X18632   4.261   6.388   7.443  0.1572  0.5002 -3.3622
  165SAPE  H11Y18633   4.320   6.235   7.479  1.3964  0.2763 -2.8290
  165SAPE  C31218634   4.103   6.243   7.518  0.2139 -0.4241 -0.2597
  165SAPE  H12X18635   4.081   6.135   7.500 -1.5963  0.0513 -1.1379
  165SAPE  H12Y18636   4.018   6.308   7.486  0.6666 -0.8465 -2.4724
  165SAPE  C31318637   4.130   6.276   7.666 -0.6958  0.2615 -0.7755
  165SAPE  H13X18638   4.174   6.377   7.675  1.1142 -0.3812 -1.7547
  165SAPE  H13Y18639   4.207   6.204   7.702 -1.7466 -0.1193  0.7970
  165SAPE  C31418640   4.014   6.261   7.766 -0.1850 -0.5012  0.5407
  165SAPE  H14X18641   3.973   6.158   7.755 -1.1568 -0.0224 -0.5766
  165SAPE  H14Y18642   3.929   6.329   7.743 -0.7350 -1.8673 -1.8337
  165SAPE  C31518643   4.060   6.265   7.914  0.2424 -0.4744 -0.1581
  165SAPE  H15X18644   4.055   6.375   7.927  1.8424 -0.0931 -2.2373
  165SAPE  H15Y18645   4.163   6.223   7.920 -0.8311 -3.3828 -0.3306
  165SAPE  C31618646   3.966   6.207   8.009  0.4088  0.5798  0.4842
  165SAPE  H16X18647   3.953   6.103   7.974 -1.6710  2.0531 -3.7520
  165SAPE  H16Y18648   3.865   6.250   7.994  0.2765 -0.0632 -0.5164
  165SAPE  C31718649   4.018   6.212   8.152  0.8244 -0.3199  0.6895
  165SAPE  H17X18650   4.013   6.312   8.200 -1.1297 -0.1216  0.1679
  165SAPE  H17Y18651   4.128   6.195   8.147  0.8750 -0.0552  0.8919
  165SAPE  C31818652   3.956   6.111   8.238 -0.5269  0.0265  0.7612
  165SAPE  H18X18653   3.922   6.019   8.185  1.2472  0.3195 -0.9810
  165SAPE  H18Y18654   3.866   6.165   8.275 -0.3937 -0.0548  1.2137
  165SAPE  H18Z18655   4.012   6.089   8.332  1.3994 -1.6532 -0.6937
  166SAPE     N18656   3.858   3.176   5.747 -0.6283 -0.2193 -0.0844
  166SAPE   HN118657   3.847   3.279   5.743 -0.9389 -0.0214  3.1183
  166SAPE   HN218658   3.947   3.156   5.796  0.3987 -0.5567 -2.0055
  166SAPE   HN318659   3.873   3.145   5.649  1.0172 -3.1519  0.9757
  166SAPE   C1218660   3.731   3.108   5.784  0.0797 -0.1690  1.1947
  166SAPE  H12A18661   3.650   3.165   5.733  1.3824  1.3374  0.7184
  166SAPE  H12B18662   3.725   3.124   5.894 -0.5178  0.1844  1.1213
  166SAPE   C1118663   3.725   2.955   5.751 -1.0040 -0.0024 -0.0108
  166SAPE  H11A18664   3.706   2.948   5.642  0.2291  0.8153 -0.3010
  166SAPE  H11B18665   3.643   2.903   5.806 -0.7068 -1.2677 -0.7109
  166SAPE     P18666   3.872   2.767   5.870  0.0394  0.1696  0.0262
  166SAPE   O1318667   3.815   2.646   5.808 -0.4343 -0.8253 -0.4900
  166SAPE   O1418668   4.015   2.745   5.902 -0.2744  0.2828 -0.2566
  166SAPE   O1218669   3.854   2.889   5.779  0.3520  0.0221 -0.4389
  166SAPE   O1118670   3.796   2.802   6.003  0.3296  0.0312 -0.2276
  166SAPE    C118671   3.849   2.903   6.090 -0.0856  0.4983 -0.0100
  166SAPE    HA18672   3.900   2.983   6.032  0.6190 -0.1884 -0.3488
  166SAPE    HB18673   3.764   2.953   6.142  0.4593  0.8793  0.5311
  166SAPE    C218674   3.941   2.842   6.195 -1.5626  0.3059 -0.1387
  166SAPE    HS18675   4.028   2.799   6.141 -0.9760  1.2424  0.0444
  166SAPE   O2118676   3.874   2.736   6.272  0.3181 -0.2684 -0.2139
  166SAPE   C2118677   3.939   2.637   6.317  0.3218 -0.0368  0.3510
  166SAPE   O2218678   4.059   2.620   6.295  0.4328  0.1467 -0.3681
  166SAPE   C2218679   3.849   2.547   6.396  0.2234  0.0793  0.2145
  166SAPE   H2R18680   3.764   2.509   6.335  1.3690 -1.5700 -0.4236
  166SAPE   H2S18681   3.916   2.468   6.436  0.4777  0.2436  0.1132
  166SAPE    C318682   3.985   2.942   6.303  0.0595 -0.5058 -0.8152
  166SAPE    HX18683   3.893   2.973   6.357  0.1147  0.3662 -1.2048
  166SAPE    HY18684   4.029   3.026   6.246 -0.2567 -0.8181 -1.5357
  166SAPE   O3118685   4.083   2.897   6.406  0.0736 -0.2337  0.1992
  166SAPE   C3118686   4.210   2.908   6.363 -0.0624  0.1460  1.3070
  166SAPE   O3218687   4.248   2.977   6.267 -0.0886 -0.5800  0.1709
  166SAPE   C3218688   4.303   2.820   6.446  0.2041 -0.2625 -0.7522
  166SAPE   H2X18689   4.372   2.760   6.382  0.9426 -0.1189 -0.1063
  166SAPE   H2Y18690   4.233   2.742   6.484 -0.4691  0.8065  0.2750
  166SAPE   C2318691   3.782   2.624   6.517  0.0081  0.2457  0.8123
  166SAPE   H3R18692   3.702   2.557   6.554 -1.6004  2.1457  0.9630
  166SAPE   H3S18693   3.730   2.712   6.473  2.8642  1.7601  0.1514
  166SAPE   C2418694   3.880   2.675   6.633 -0.3200  0.3775 -0.6673
  166SAPE   H4R18695   3.835   2.764   6.682 -0.5055  0.1565 -0.4362
  166SAPE   H4S18696   3.969   2.712   6.579  0.1215  0.8610  0.3724
  166SAPE   C2518697   3.933   2.569   6.727  0.2250  0.3131  1.4340
  166SAPE   H5R18698   3.897   2.470   6.694 -1.4533  1.9130 -2.0908
  166SAPE   C2618699   3.997   2.581   6.843 -0.2038 -0.7524 -0.0313
  166SAPE   H6R18700   4.040   2.489   6.886 -2.5074 -2.1379 -0.5040
  166SAPE   C2718701   4.036   2.713   6.907 -0.6552 -0.1445  0.1545
  166SAPE   H7R18702   4.049   2.794   6.833 -1.3574 -1.3026 -1.2855
  166SAPE   H7S18703   4.136   2.703   6.954  0.3079  4.1996 -0.5925
  166SAPE   C2818704   3.930   2.751   7.005 -0.3289  0.0179  0.0150
  166SAPE   H8R18705   3.827   2.764   6.969 -0.3345 -0.1045 -0.0148
  166SAPE   C2918706   3.953   2.787   7.134 -0.1626  0.0678 -0.3000
  166SAPE   H9R18707   3.863   2.812   7.191 -0.3051 -0.7345 -0.1514
  166SAPE  C21018708   4.084   2.806   7.213 -0.1341  0.0827 -0.2429
  166SAPE  H10R18709   4.153   2.722   7.192  1.8701  1.6593 -0.2761
  166SAPE  H10S18710   4.067   2.798   7.322  0.4271 -0.8442 -0.2176
  166SAPE  C21118711   4.149   2.938   7.180  0.3240 -0.3522 -0.3693
  166SAPE  H11R18712   4.173   2.949   7.073 -0.2573  1.5408 -0.3405
  166SAPE  C21218713   4.185   3.033   7.271  0.2650 -0.2300  0.4860
  166SAPE  H12R18714   4.241   3.124   7.245  1.4318 -0.5009  1.8909
  166SAPE  C21318715   4.172   3.033   7.427  0.4894 -0.4542  0.2371
  166SAPE  H13R18716   4.262   3.073   7.478  0.4394 -1.0568  0.7955
  166SAPE  H13S18717   4.153   2.933   7.470 -2.8846  0.8429  2.1860
  166SAPE  C21418718   4.057   3.126   7.471 -0.0484 -0.2802 -0.0209
  166SAPE  H14R18719   4.062   3.232   7.443  0.2259 -0.3233 -0.1378
  166SAPE  C21518720   3.978   3.082   7.572 -0.0044 -0.6048 -0.2943
  166SAPE  H15R18721   3.903   3.149   7.615  2.3783  1.2711  1.1662
  166SAPE  C21618722   3.983   2.949   7.642 -0.3258  0.4457  0.3039
  166SAPE  H16R18723   3.955   2.961   7.749  2.7388 -0.0496  1.2646
  166SAPE  H16S18724   4.087   2.911   7.642 -0.0341  1.2061 -0.3487
  166SAPE  C21718725   3.893   2.839   7.576  0.3527  0.2617 -0.3854
  166SAPE  H17R18726   3.934   2.748   7.623 -0.0313  0.8274  1.1019
  166SAPE  H17S18727   3.901   2.841   7.465 -0.0932  0.6073 -0.4159
  166SAPE  C21818728   3.744   2.854   7.612 -0.7276 -0.7554  0.0899
  166SAPE  H18R18729   3.730   2.925   7.697 -1.9520  0.0610 -0.7539
  166SAPE  H18S18730   3.707   2.754   7.642  0.6685 -1.1823  0.4831
  166SAPE  C21918731   3.662   2.904   7.488 -0.2222  0.7742  0.1219
  166SAPE  H19R18732   3.721   2.977   7.428 -0.2074  0.4022 -0.3272
  166SAPE  H19S18733   3.565   2.946   7.521 -1.4792 -0.4773 -1.7827
  166SAPE  C22018734   3.604   2.793   7.392 -0.1732 -1.2254 -0.2703
  166SAPE  H20R18735   3.564   2.839   7.299 -0.2344 -0.6275  0.0459
  166SAPE  H20S18736   3.544   2.722   7.451 -0.2265 -2.6165 -1.9143
  166SAPE  H20T18737   3.691   2.735   7.354 -0.4676 -0.1405 -2.8546
  166SAPE   C3318738   4.384   2.885   6.564  0.5004  0.0803  0.6340
  166SAPE   H3X18739   4.447   2.960   6.512 -0.6880 -0.8293 -2.2922
  166SAPE   H3Y18740   4.448   2.805   6.608  0.6485 -0.8747 -1.2428
  166SAPE   C3418741   4.303   2.951   6.674  0.5868  0.0339 -0.8029
  166SAPE   H4X18742   4.259   2.866   6.731  0.8833  0.4564  0.0781
  166SAPE   H4Y18743   4.227   3.018   6.629  0.0842 -0.1228 -0.1956
  166SAPE   C3518744   4.396   3.029   6.771  0.6026  0.6398  0.0273
  166SAPE   H5X18745   4.496   2.982   6.766  2.1312  3.4451  1.7878
  166SAPE   H5Y18746   4.360   3.043   6.875  2.1354  2.8230  0.3424
  166SAPE   C3618747   4.419   3.163   6.709  0.0873 -1.1380  0.4500
  166SAPE   H6X18748   4.320   3.203   6.679 -1.0751 -2.7268  1.9602
  166SAPE   H6Y18749   4.490   3.154   6.624  0.4378 -0.8140  0.7015
  166SAPE   C3718750   4.473   3.268   6.814 -0.1100  0.4829  0.2435
  166SAPE   H7X18751   4.583   3.276   6.807 -0.1279  1.2654  0.7681
  166SAPE   H7Y18752   4.452   3.235   6.918 -0.4887  0.6958  0.2365
  166SAPE   C3818753   4.437   3.417   6.795  0.3221  0.1173  0.0384
  166SAPE   H8X18754   4.451   3.446   6.689  0.4229 -1.6892 -0.4768
  166SAPE   H8Y18755   4.516   3.473   6.850  0.1778 -0.5420  0.9277
  166SAPE   C3918756   4.300   3.438   6.847 -0.8095  0.6321 -0.8425
  166SAPE   H9X18757   4.230   3.383   6.781  1.7113 -0.0932 -3.0996
  166SAPE   H9Y18758   4.293   3.548   6.839  3.4672  1.0073 -1.6760
  166SAPE  C31018759   4.268   3.403   6.993  0.2421 -0.1720  0.4352
  166SAPE  H10X18760   4.270   3.292   6.995 -1.5821 -0.4295 -3.7111
  166SAPE  H10Y18761   4.166   3.446   7.007  0.7655  0.8779  1.2052
  166SAPE  C31118762   4.362   3.467   7.096 -0.0214 -0.3371  0.8365
  166SAPE  H11X18763   4.352   3.577   7.086 -0.6158 -0.5818 -2.1705
  166SAPE  H11Y18764   4.467   3.430   7.093  1.0646  2.5321 -0.6523
  166SAPE  C31218765   4.315   3.435   7.243 -0.3792  0.5623  0.1335
  166SAPE  H12X18766   4.311   3.324   7.234 -0.2047  0.5266  0.4917
  166SAPE  H12Y18767   4.217   3.483   7.261 -0.0191  0.8178  1.5509
  166SAPE  C31318768   4.418   3.464   7.356 -0.0826  0.2603 -0.7813
  166SAPE  H13X18769   4.447   3.571   7.355 -0.9203  0.4920 -1.2060
  166SAPE  H13Y18770   4.508   3.400   7.344  0.3568  0.7930 -0.3316
  166SAPE  C31418771   4.352   3.415   7.492  0.0519  0.0756  0.7498
  166SAPE  H14X18772   4.351   3.304   7.499 -0.6422  0.0337  0.1159
  166SAPE  H14Y18773   4.246   3.446   7.488 -0.3176 -1.2262 -0.0070
  166SAPE  C31518774   4.424   3.462   7.616 -0.4353 -0.8809  0.0838
  166SAPE  H15X18775   4.425   3.573   7.624  1.8161 -0.6150 -2.4323
  166SAPE  H15Y18776   4.529   3.427   7.607  0.9511  3.0004 -0.6979
  166SAPE  C31618777   4.371   3.405   7.745  0.2273  0.1596 -0.0761
  166SAPE  H16X18778   4.352   3.296   7.743  0.8021  0.0684 -1.1380
  166SAPE  H16Y18779   4.272   3.450   7.768 -1.5753 -3.5397  0.0537
  166SAPE  C31718780   4.470   3.422   7.864 -0.0720 -0.0226  0.3788
  166SAPE  H17X18781   4.491   3.530   7.879 -0.6174 -0.1039  1.8319
  166SAPE  H17Y18782   4.562   3.374   7.827  0.4998  0.4461  1.1626
  166SAPE  C31818783   4.443   3.355   7.992  0.2225  0.2114  0.0132
  166SAPE  H18X18784   4.428   3.249   7.965  2.9379  0.0187 -0.9854
  166SAPE  H18Y18785   4.359   3.408   8.043  0.3600  0.6144 -0.1761
  166SAPE  H18Z18786   4.536   3.356   8.052  0.0289 -1.4338  0.3735
  167SAPE     N18787   5.627   3.388   6.119 -0.1239 -0.2102 -0.2457
  167SAPE   HN118788   5.643   3.372   6.220  0.2095  1.4882 -0.0017
  167SAPE   HN218789   5.705   3.343   6.066 -0.2110 -2.9680  1.7856
  167SAPE   HN318790   5.630   3.492   6.117 -1.5594 -0.1265  0.5511
  167SAPE   C1218791   5.499   3.335   6.049  0.6019 -0.5411  0.1574
  167SAPE  H12A18792   5.521   3.234   6.007 -0.7259  0.0950 -2.2232
  167SAPE  H12B18793   5.472   3.406   5.968  3.4051  0.8085  0.2537
  167SAPE   C1118794   5.379   3.333   6.144  0.5200 -0.2923 -0.2910
  167SAPE  H11A18795   5.396   3.266   6.230  0.8674 -0.7979 -0.7472
  167SAPE  H11B18796   5.301   3.276   6.091 -2.9466  0.0719  3.9257
  167SAPE     P18797   5.223   3.528   6.083 -0.3532  0.3511  0.5456
  167SAPE   O1318798   5.241   3.676   6.089 -0.7655  0.1393 -0.5043
  167SAPE   O1418799   5.227   3.477   5.943  0.8746  0.7794  0.5148
  167SAPE   O1218800   5.333   3.459   6.176 -0.1999 -0.1600  0.0923
  167SAPE   O1118801   5.091   3.502   6.146 -0.7335 -0.1686  0.0327
  167SAPE    C118802   5.033   3.393   6.209 -0.0464  0.0700 -0.1025
  167SAPE    HA18803   4.926   3.384   6.182 -0.7947 -2.1172  2.9847
  167SAPE    HB18804   5.076   3.293   6.187 -1.4408 -0.8108  1.0426
  167SAPE    C218805   5.048   3.407   6.367 -0.0369 -0.2894  0.5680
  167SAPE    HS18806   5.016   3.512   6.386  2.6854  0.4136  1.6203
  167SAPE   O2118807   5.189   3.391   6.404 -0.5240 -0.0174  0.0948
  167SAPE   C2118808   5.223   3.480   6.499 -0.3069  0.6749 -0.0233
  167SAPE   O2218809   5.151   3.570   6.543 -0.0168 -0.0007 -0.2805
  167SAPE   C2218810   5.377   3.458   6.515  0.3924 -0.5253 -0.0649
  167SAPE   H2R18811   5.388   3.350   6.539 -1.1002 -0.7115 -0.1423
  167SAPE   H2S18812   5.427   3.491   6.422  0.3533  2.0811  0.7712
  167SAPE    C318813   4.952   3.313   6.438 -0.0717 -0.6512  0.1327
  167SAPE    HX18814   4.984   3.210   6.409  0.5798 -0.5757  0.5496
  167SAPE    HY18815   4.848   3.330   6.405  0.0437 -1.1903 -0.5338
  167SAPE   O3118816   4.972   3.316   6.583  0.9820  0.3242 -0.6463
  167SAPE   C3118817   4.917   3.418   6.640  0.0639  0.4264 -0.1463
  167SAPE   O3218818   4.838   3.497   6.586 -0.0373  0.6466 -0.5538
  167SAPE   C3218819   4.966   3.438   6.782  0.4004  0.0279 -0.0803
  167SAPE   H2X18820   5.004   3.542   6.787  1.8815 -0.4666 -0.4045
  167SAPE   H2Y18821   5.052   3.372   6.806  0.5760  0.5669  0.7797
  167SAPE   C2318822   5.438   3.553   6.613 -0.5875 -0.0693  0.1279
  167SAPE   H3R18823   5.398   3.656   6.598 -0.8849 -0.2514 -0.3549
  167SAPE   H3S18824   5.548   3.568   6.609 -0.5234 -0.8154 -1.4352
  167SAPE   C2418825   5.406   3.504   6.758  0.6841  0.4340  0.8501
  167SAPE   H4R18826   5.433   3.397   6.759 -0.9676 -0.0299  0.1951
  167SAPE   H4S18827   5.295   3.495   6.763  0.6992 -2.0514 -1.2440
  167SAPE   C2518828   5.460   3.575   6.879  0.4253  0.7460 -0.1874
  167SAPE   H5R18829   5.568   3.559   6.891  0.0635 -0.9315  1.1470
  167SAPE   C2618830   5.384   3.655   6.952 -0.4174 -0.0272  0.2244
  167SAPE   H6R18831   5.427   3.705   7.040 -1.3607  0.3201  0.4941
  167SAPE   C2718832   5.236   3.675   6.934 -0.2044 -0.0275 -0.7790
  167SAPE   H7R18833   5.193   3.694   7.034 -0.1059 -0.5935 -0.6236
  167SAPE   H7S18834   5.188   3.579   6.903  0.3219 -0.5978  0.1100
  167SAPE   C2818835   5.194   3.783   6.843 -0.2543 -0.3433  0.4131
  167SAPE   H8R18836   5.167   3.745   6.744  0.8503 -2.4660  0.8698
  167SAPE   C2918837   5.180   3.914   6.867  0.3396 -0.7801  0.2546
  167SAPE   H9R18838   5.136   3.979   6.790  0.7826 -1.0676 -0.2444
  167SAPE  C21018839   5.192   3.990   6.994  0.0500  0.6228  0.8117
  167SAPE  H10R18840   5.206   4.098   6.973 -0.0880  0.7383  1.3114
  167SAPE  H10S18841   5.289   3.974   7.046 -1.2121  0.2040  3.1851
  167SAPE  C21118842   5.078   3.982   7.087  0.5660 -0.5219 -0.0445
  167SAPE  H11R18843   4.988   3.942   7.039  1.4569 -2.2594 -0.3456
  167SAPE  C21218844   5.070   4.031   7.207  0.4598  0.5759 -0.1195
  167SAPE  H12R18845   4.982   3.994   7.262  0.3154 -1.3452 -1.5389
  167SAPE  C21318846   5.177   4.095   7.294 -0.3093 -0.4357  0.3141
  167SAPE  H13R18847   5.263   4.120   7.229 -0.2340  1.7983  1.1879
  167SAPE  H13S18848   5.219   4.031   7.375  1.6955  0.1783 -0.1870
  167SAPE  C21418849   5.118   4.226   7.353  0.1740 -0.1050  0.1995
  167SAPE  H14R18850   5.060   4.287   7.283  0.7984  1.6498  1.1644
  167SAPE  C21518851   5.118   4.257   7.480  0.6802 -0.0901 -0.4023
  167SAPE  H15R18852   5.074   4.354   7.506  1.2675  0.1245 -0.1780
  167SAPE  C21618853   5.176   4.176   7.592 -0.2735  0.2978 -0.2034
  167SAPE  H16R18854   5.261   4.231   7.639 -0.8298  0.5181  0.5603
  167SAPE  H16S18855   5.220   4.080   7.557  1.2969  0.3661  1.4297
  167SAPE  C21718856   5.076   4.126   7.700  0.6629  0.3001 -0.5104
  167SAPE  H17R18857   5.119   4.033   7.744 -2.1696 -0.0779  1.6946
  167SAPE  H17S18858   4.982   4.089   7.653  1.7302 -3.5645  0.0499
  167SAPE  C21818859   5.038   4.231   7.812 -0.3596  0.3080  0.6391
  167SAPE  H18R18860   4.988   4.311   7.754  1.2035  0.7475 -0.1675
  167SAPE  H18S18861   5.129   4.280   7.852  1.0587 -1.3678 -0.3759
  167SAPE  C21918862   4.942   4.176   7.918  0.1815 -0.4250  0.7139
  167SAPE  H19R18863   4.870   4.117   7.857  0.7084  0.8817 -1.2465
  167SAPE  H19S18864   4.895   4.267   7.961  0.7348 -0.3949  1.2637
  167SAPE  C22018865   4.992   4.093   8.036 -0.0334  0.5109  0.1618
  167SAPE  H20R18866   4.903   4.037   8.074  1.6246 -2.8355 -0.4691
  167SAPE  H20S18867   5.045   4.153   8.112 -1.6080  1.8407  0.2668
  167SAPE  H20T18868   5.063   4.016   7.998 -1.4070 -1.4208  1.3101
  167SAPE   C3318869   4.860   3.425   6.895  0.6322  0.2440 -0.5350
  167SAPE   H3X18870   4.825   3.321   6.908 -0.2887  0.6419  0.3553
  167SAPE   H3Y18871   4.771   3.487   6.869 -1.9701 -3.5420 -1.4039
  167SAPE   C3418872   4.911   3.491   7.028  0.4783 -0.4521  0.8784
  167SAPE   H4X18873   4.965   3.586   7.007  0.4514 -0.5703  0.2505
  167SAPE   H4Y18874   4.978   3.413   7.071  0.7102 -0.3707  0.6656
  167SAPE   C3518875   4.796   3.523   7.121 -0.6057 -0.3700 -0.3828
  167SAPE   H5X18876   4.751   3.422   7.134 -0.2330 -0.6569 -1.2286
  167SAPE   H5Y18877   4.720   3.598   7.091 -0.6037 -0.1836  0.0733
  167SAPE   C3618878   4.861   3.555   7.264  0.1066 -0.2125  0.2277
  167SAPE   H6X18879   4.965   3.585   7.240 -0.8871  1.3605 -2.7839
  167SAPE   H6Y18880   4.880   3.464   7.324  2.0478  0.4551  0.6850
  167SAPE   C3718881   4.789   3.661   7.347 -0.1462 -0.3733 -0.0564
  167SAPE   H7X18882   4.679   3.641   7.348 -0.2150 -0.0053  1.2799
  167SAPE   H7Y18883   4.813   3.760   7.303  1.2070  1.5482  4.4325
  167SAPE   C3818884   4.840   3.678   7.491  0.1894 -0.8687  0.7070
  167SAPE   H8X18885   4.951   3.689   7.494  0.1304  0.2856 -0.4753
  167SAPE   H8Y18886   4.823   3.584   7.548 -0.2861 -1.0397  0.2901
  167SAPE   C3918887   4.781   3.809   7.550 -0.2057 -0.4945 -1.1240
  167SAPE   H9X18888   4.670   3.805   7.540 -0.6301  1.4605  1.6262
  167SAPE   H9Y18889   4.817   3.896   7.490 -1.3500 -0.7843 -2.2773
  167SAPE  C31018890   4.817   3.839   7.703 -0.4973  0.2138 -0.0214
  167SAPE  H10X18891   4.792   3.946   7.723 -0.9786  0.1709 -0.3587
  167SAPE  H10Y18892   4.926   3.823   7.691 -0.3360 -1.1259  2.5387
  167SAPE  C31118893   4.756   3.739   7.800  0.5903  0.0176  0.3534
  167SAPE  H11X18894   4.771   3.630   7.780 -2.4387 -1.1660  3.5026
  167SAPE  H11Y18895   4.647   3.761   7.805  0.7718  1.0922 -0.2012
  167SAPE  C31218896   4.821   3.761   7.938  1.1836  0.1570  1.1278
  167SAPE  H12X18897   4.844   3.868   7.957 -2.9563  1.4529 -0.0235
  167SAPE  H12Y18898   4.926   3.725   7.931  0.9788 -0.1447 -1.3128
  167SAPE  C31318899   4.744   3.695   8.053 -0.5382 -0.2445 -0.7130
  167SAPE  H13X18900   4.719   3.597   8.005  0.5511 -0.2720 -1.2519
  167SAPE  H13Y18901   4.645   3.737   8.079  0.0792  0.3574  0.7599
  167SAPE  C31418902   4.826   3.677   8.181 -0.0140  0.4971 -0.2753
  167SAPE  H14X18903   4.905   3.601   8.164  1.8471  2.2954  0.0057
  167SAPE  H14Y18904   4.769   3.631   8.265  0.1784 -1.4279 -1.1299
  167SAPE  C31518905   4.897   3.803   8.226  0.0483  0.0609  0.3167
  167SAPE  H15X18906   4.831   3.891   8.238 -1.2604 -0.3835 -2.6406
  167SAPE  H15Y18907   4.967   3.839   8.146 -1.6810  2.2409 -0.3110
  167SAPE  C31618908   4.974   3.792   8.355  0.2752  0.3211  0.1444
  167SAPE  H16X18909   5.043   3.706   8.343 -1.1637 -0.7476 -0.9896
  167SAPE  H16Y18910   4.908   3.771   8.442  1.7739 -1.6445  0.8829
  167SAPE  C31718911   5.054   3.920   8.400  0.1509  0.4009 -0.4760
  167SAPE  H17X18912   4.984   4.006   8.413  1.4152  1.4957 -0.6902
  167SAPE  H17Y18913   5.143   3.938   8.335  2.2925  1.9033  2.6415
  167SAPE  C31818914   5.119   3.909   8.543  0.4261  0.6394  0.3363
  167SAPE  H18X18915   5.180   3.998   8.568 -0.9798  2.0747 -1.1646
  167SAPE  H18Y18916   5.171   3.812   8.562 -0.5610 -0.5097 -2.3289
  167SAPE  H18Z18917   5.032   3.914   8.612  0.8172 -1.0607  1.0082
  168SAPE     N18918   0.995   3.237   6.074  0.6382  0.4959  0.0855
  168SAPE   HN118919   0.935   3.259   6.157  0.7040 -3.0552  1.2672
  168SAPE   HN218920   1.094   3.243   6.104  1.0568  0.4062 -1.2258
  168SAPE   HN318921   0.985   3.305   5.997 -0.5885 -0.3313 -0.5312
  168SAPE   C1218922   0.951   3.103   6.031 -1.1933 -0.3071 -0.6106
  168SAPE  H12A18923   1.033   3.055   5.973  1.0176  2.8633 -0.3845
  168SAPE  H12B18924   0.855   3.118   5.977  0.2889 -3.1787 -4.5247
  168SAPE   C1118925   0.932   3.018   6.164 -0.1387  0.2090  0.3903
  168SAPE  H11A18926   1.029   2.989   6.210 -0.5107 -2.1097 -0.1579
  168SAPE  H11B18927   0.901   2.916   6.135 -0.7850  0.5202 -0.0428
  168SAPE     P18928   0.819   3.052   6.400 -0.1398 -0.1568  0.1300
  168SAPE   O1318929   0.928   3.107   6.484  0.2364  0.4559 -0.3495
  168SAPE   O1418930   0.686   3.094   6.444  0.4567  0.1464 -0.0768
  168SAPE   O1218931   0.835   3.086   6.245  0.0778  0.2349 -0.3183
  168SAPE   O1118932   0.819   2.896   6.389  0.2015  0.2951  0.0529
  168SAPE    C118933   0.821   2.824   6.517 -0.0226  0.8728 -0.2685
  168SAPE    HA18934   0.874   2.870   6.603 -1.6627 -1.0697  1.8995
  168SAPE    HB18935   0.718   2.819   6.559  0.5486 -1.1275  1.0595
  168SAPE    C218936   0.871   2.682   6.499 -0.8460 -0.0474  0.1866
  168SAPE    HS18937   0.970   2.689   6.449 -0.7762  2.0971  0.5113
  168SAPE   O2118938   0.773   2.611   6.423  0.0294  0.5577 -0.3005
  168SAPE   C2118939   0.820   2.517   6.352  0.5246  0.6455 -0.0291
  168SAPE   O2218940   0.934   2.514   6.312 -0.4990  0.6878 -0.1123
  168SAPE   C2218941   0.715   2.419   6.302 -0.5160  0.2414  0.1791
  168SAPE   H2R18942   0.625   2.481   6.283 -0.3689 -0.0735 -1.6761
  168SAPE   H2S18943   0.749   2.370   6.208 -0.3031 -0.1407  0.4511
  168SAPE    C318944   0.889   2.613   6.637  0.4343 -0.4688  0.1129
  168SAPE    HX18945   0.912   2.505   6.625 -1.3899 -0.6579 -2.6108
  168SAPE    HY18946   0.783   2.602   6.670  0.3916 -1.9877 -0.4474
  168SAPE   O3118947   0.971   2.684   6.723  0.2719  0.1164  0.1194
  168SAPE   C3118948   1.108   2.678   6.708  0.4995 -0.0895  0.2993
  168SAPE   O3218949   1.171   2.615   6.628  0.8946  0.2923 -0.2449
  168SAPE   C3218950   1.170   2.758   6.817  0.0560 -0.0238 -0.8134
  168SAPE   H2X18951   1.109   2.851   6.823  0.1584 -0.0590  2.0017
  168SAPE   H2Y18952   1.274   2.766   6.779 -0.3466  1.9499 -1.6368
  168SAPE   C2318953   0.682   2.302   6.410 -0.1185  0.3077 -0.3150
  168SAPE   H3R18954   0.780   2.256   6.436 -0.8436 -1.2753 -0.2457
  168SAPE   H3S18955   0.612   2.236   6.354 -0.1252 -0.5860  0.7025
  168SAPE   C2418956   0.601   2.357   6.533 -0.0007 -0.1243 -0.2905
  168SAPE   H4R18957   0.509   2.406   6.496 -0.4875 -0.8021  0.0165
  168SAPE   H4S18958   0.648   2.441   6.589  0.3332  0.5003 -1.4725
  168SAPE   C2518959   0.566   2.245   6.624  0.2604  0.6324  0.5108
  168SAPE   H5R18960   0.559   2.156   6.561 -1.8611  1.6296 -0.7880
  168SAPE   C2618961   0.519   2.247   6.753 -0.5224  0.2918  0.6107
  168SAPE   H6R18962   0.506   2.150   6.804  1.2296 -0.9685 -1.1546
  168SAPE   C2718963   0.508   2.374   6.830 -0.2511 -0.0385 -0.1347
  168SAPE   H7R18964   0.423   2.362   6.901  0.3284 -0.6838  0.4640
  168SAPE   H7S18965   0.471   2.458   6.768 -0.9533  0.6344  1.1428
  168SAPE   C2818966   0.642   2.400   6.897  0.3758  0.3205  0.1596
  168SAPE   H8R18967   0.721   2.408   6.822  0.5323 -0.5700  0.2242
  168SAPE   C2918968   0.671   2.398   7.028 -0.1321  0.5525 -0.0262
  168SAPE   H9R18969   0.775   2.410   7.059  1.0805 -2.6953 -2.2231
  168SAPE  C21018970   0.573   2.371   7.136 -0.1154 -0.2234 -0.2410
  168SAPE  H10R18971   0.471   2.409   7.113 -0.0471 -0.1546 -0.4375
  168SAPE  H10S18972   0.600   2.433   7.224 -1.6661  0.9109 -0.5297
  168SAPE  C21118973   0.559   2.228   7.177 -1.1212  0.2336 -0.5598
  168SAPE  H11R18974   0.508   2.172   7.097 -1.2646  2.6067 -2.2338
  168SAPE  C21218975   0.604   2.175   7.291  0.5969  0.0171 -0.3093
  168SAPE  H12R18976   0.588   2.067   7.303 -1.6209  0.3150 -0.1453
  168SAPE  C21318977   0.661   2.239   7.415 -0.0133  0.1016  0.1924
  168SAPE  H13R18978   0.725   2.321   7.376 -1.8668  0.6753 -1.7795
  168SAPE  H13S18979   0.725   2.164   7.467 -0.6975  0.3082  1.3711
  168SAPE  C21418980   0.558   2.304   7.503 -1.0465  0.7444 -0.2153
  168SAPE  H14R18981   0.490   2.367   7.443 -0.4422 -0.0259 -1.7709
  168SAPE  C21518982   0.533   2.269   7.631  0.7814 -0.4040 -0.5852
  168SAPE  H15R18983   0.439   2.299   7.680  1.6083  0.2221  0.6725
  168SAPE  C21618984   0.601   2.166   7.715  0.2780  0.7068 -0.2330
  168SAPE  H16R18985   0.631   2.204   7.815 -0.6202 -1.1249  0.7729
  168SAPE  H16S18986   0.698   2.125   7.678 -1.1877 -2.7238 -0.6365
  168SAPE  C21718987   0.511   2.037   7.755 -0.8030 -0.0789 -0.0177
  168SAPE  H17R18988   0.556   1.945   7.714 -0.0938  1.1064 -2.0135
  168SAPE  H17S18989   0.411   2.035   7.706 -1.1353 -2.2495  0.6482
  168SAPE  C21818990   0.491   2.028   7.910  0.0852  0.4209 -0.0986
  168SAPE  H18R18991   0.424   1.941   7.921  0.6190 -0.2895 -2.0512
  168SAPE  H18S18992   0.436   2.122   7.931 -0.0661  0.8102 -2.0676
  168SAPE  C21918993   0.618   2.003   7.995  0.5192 -0.0169  0.4884
  168SAPE  H19R18994   0.683   2.091   7.975 -0.8234  0.5529 -1.6747
  168SAPE  H19S18995   0.674   1.916   7.954 -0.1112  0.3497 -1.2410
  168SAPE  C22018996   0.580   1.977   8.143 -0.1210 -0.7155 -0.0577
  168SAPE  H20R18997   0.509   1.892   8.137 -1.2711  0.2978 -1.8173
  168SAPE  H20S18998   0.522   2.061   8.186  0.8514 -0.5104  0.8875
  168SAPE  H20T18999   0.666   1.959   8.211 -1.1889  0.5240  1.7254
  168SAPE   C3319000   1.150   2.693   6.948  0.1474  0.6733 -0.8287
  168SAPE   H3X19001   1.186   2.587   6.952  0.7666  0.8860 -0.6588
  168SAPE   H3Y19002   1.043   2.684   6.975  0.2809 -3.7938 -0.9289
  168SAPE   C3419003   1.223   2.762   7.061  0.2355 -0.8809 -0.4957
  168SAPE   H4X19004   1.157   2.836   7.112  0.7890 -1.3915  1.0109
  168SAPE   H4Y19005   1.317   2.814   7.033  0.3751 -0.7814  0.1253
  168SAPE   C3519006   1.255   2.665   7.176  0.0265 -0.3241  0.1288
  168SAPE   H5X19007   1.296   2.735   7.252  1.2603 -0.6018 -0.2544
  168SAPE   H5Y19008   1.337   2.599   7.141 -0.2636 -0.9731  0.6372
  168SAPE   C3619009   1.140   2.574   7.229 -0.3916 -0.1610 -0.0930
  168SAPE   H6X19010   1.079   2.525   7.150 -1.0579 -0.3310  0.5177
  168SAPE   H6Y19011   1.070   2.639   7.286 -0.0073  0.0648  0.1331
  168SAPE   C3719012   1.194   2.455   7.320 -0.3873  0.3604  0.2409
  168SAPE   H7X19013   1.270   2.407   7.255  0.0377 -0.8135  1.5641
  168SAPE   H7Y19014   1.108   2.387   7.342 -0.0505 -0.1513 -0.0007
  168SAPE   C3819015   1.272   2.502   7.443  0.3653 -0.5670  0.5633
  168SAPE   H8X19016   1.201   2.574   7.488 -0.3548 -0.4786 -0.6574
  168SAPE   H8Y19017   1.363   2.554   7.406  1.2501 -1.9374  0.7546
  168SAPE   C3919018   1.303   2.387   7.541  0.0495  0.7391 -0.0346
  168SAPE   H9X19019   1.383   2.323   7.498  0.5332  0.9811  0.4909
  168SAPE   H9Y19020   1.211   2.327   7.556  0.0354  0.9559  0.8088
  168SAPE  C31019021   1.348   2.443   7.671 -0.4531  0.1505  0.3654
  168SAPE  H10X19022   1.265   2.500   7.718 -1.4184  0.9211 -2.1372
  168SAPE  H10Y19023   1.425   2.515   7.639  0.0771  0.0995  1.4731
  168SAPE  C31119024   1.399   2.336   7.770  0.2972  0.5027  0.0203
  168SAPE  H11X19025   1.466   2.263   7.720  0.1003  1.1083 -1.1584
  168SAPE  H11Y19026   1.309   2.285   7.809  0.6090  0.5727  0.8563
  168SAPE  C31219027   1.491   2.387   7.889  0.0894  0.4204 -0.8453
  168SAPE  H12X19028   1.558   2.465   7.847 -1.7075  0.9704 -2.8108
  168SAPE  H12Y19029   1.555   2.308   7.934 -2.2609 -0.4025  1.2771
  168SAPE  C31319030   1.401   2.443   8.004  0.2105 -0.6139 -0.3594
  168SAPE  H13X19031   1.343   2.534   7.978 -2.0621 -1.2498  1.9511
  168SAPE  H13Y19032   1.473   2.485   8.078  2.2931  0.1591 -2.6864
  168SAPE  C31419033   1.320   2.325   8.077 -0.3236 -0.3637 -0.4020
  168SAPE  H14X19034   1.370   2.228   8.100 -2.4474 -0.8012  3.0233
  168SAPE  H14Y19035   1.238   2.299   8.006 -1.1760 -1.8129  1.0521
  168SAPE  C31519036   1.262   2.371   8.207  0.0797  0.4982 -0.2916
  168SAPE  H15X19037   1.164   2.319   8.217 -1.9116  3.7033 -1.4127
  168SAPE  H15Y19038   1.233   2.478   8.201 -0.1243  0.6508  2.2708
  168SAPE  C31619039   1.352   2.352   8.330 -0.0728  0.2814  0.4552
  168SAPE  H16X19040   1.327   2.433   8.402  2.8114  1.5151  0.1916
  168SAPE  H16Y19041   1.457   2.369   8.298  0.6687 -1.9358  1.4832
  168SAPE  C31719042   1.343   2.200   8.375  0.2783 -0.8668 -0.4166
  168SAPE  H17X19043   1.361   2.134   8.287 -0.9101 -1.1391 -0.4718
  168SAPE  H17Y19044   1.241   2.184   8.414 -0.3271  0.2605 -1.4765
  168SAPE  C31819045   1.440   2.164   8.488 -0.9370 -0.1606  0.0873
  168SAPE  H18X19046   1.419   2.211   8.586 -1.1351 -1.1459  0.5386
  168SAPE  H18Y19047   1.545   2.179   8.454 -1.1765  0.5933 -0.3388
  168SAPE  H18Z19048   1.420   2.056   8.506 -1.2585 -0.0619  0.3188
  169SAPE     N19049   5.608   5.585   6.130  0.1428 -0.3744 -0.0139
  169SAPE   HN119050   5.682   5.631   6.074  2.2475  0.7824  3.4101
  169SAPE   HN219051   5.599   5.640   6.218  0.0445  0.0906 -0.3129
  169SAPE   HN319052   5.633   5.488   6.160  1.5839  0.6451  2.3635
  169SAPE   C1219053   5.472   5.584   6.066 -0.0669  0.6835  0.1036
  169SAPE  H12A19054   5.415   5.496   6.102  0.7790 -0.2159 -0.6831
  169SAPE  H12B19055   5.484   5.571   5.956 -1.4535 -0.6734  0.0847
  169SAPE   C1119056   5.395   5.712   6.080  0.0897 -0.1298  0.0416
  169SAPE  H11A19057   5.364   5.716   6.187  1.7445 -3.0852  0.7334
  169SAPE  H11B19058   5.305   5.703   6.016  0.4267 -0.4393 -0.3857
  169SAPE     P19059   5.478   5.956   6.112  0.1167 -0.0516  0.1893
  169SAPE   O1319060   5.589   6.036   6.058  0.3917 -0.0284 -0.1841
  169SAPE   O1419061   5.337   6.012   6.109 -0.3885  1.1914 -0.2001
  169SAPE   O1219062   5.477   5.818   6.033  0.3541 -0.5727  0.6714
  169SAPE   O1119063   5.513   5.903   6.254 -0.1073 -0.8909  0.1190
  169SAPE    C119064   5.492   5.975   6.378  0.3166 -0.3750 -0.2470
  169SAPE    HA19065   5.557   6.065   6.367 -0.0218 -0.2715 -1.5577
  169SAPE    HB19066   5.388   6.012   6.385  1.0589  2.1044 -1.2795
  169SAPE    C219067   5.521   5.891   6.501 -0.5346 -1.3931 -0.5666
  169SAPE    HS19068   5.630   5.870   6.499  0.5921  3.4128 -2.0687
  169SAPE   O2119069   5.421   5.786   6.518  0.5667 -0.0894  0.7021
  169SAPE   C2119070   5.442   5.667   6.460 -0.4744 -0.0347 -0.0965
  169SAPE   O2219071   5.540   5.629   6.399  0.3717  0.4103 -0.4042
  169SAPE   C2219072   5.317   5.581   6.470 -0.0719 -0.1260  0.6505
  169SAPE   H2R19073   5.232   5.632   6.520 -0.3445 -0.9781  1.0882
  169SAPE   H2S19074   5.298   5.549   6.366  1.9987 -0.9633  0.4781
  169SAPE    C319075   5.508   5.984   6.626 -0.1452 -0.7445 -0.3515
  169SAPE    HX19076   5.407   6.027   6.645  1.2586  2.5652  0.3299
  169SAPE    HY19077   5.562   6.078   6.602  0.2469 -0.6687  0.7717
  169SAPE   O3119078   5.579   5.928   6.739 -0.2209  0.1792 -0.0787
  169SAPE   C3119079   5.502   5.886   6.840 -0.1344  0.5745  0.3042
  169SAPE   O3219080   5.375   5.874   6.832 -0.1855 -0.2315  0.1711
  169SAPE   C3219081   5.590   5.853   6.960  0.2378 -0.1980 -0.6902
  169SAPE   H2X19082   5.656   5.941   6.972  3.3910 -2.5086  0.0688
  169SAPE   H2Y19083   5.652   5.762   6.944  0.6537  0.3399 -2.3909
  169SAPE   C2319084   5.339   5.458   6.559 -0.0077 -0.6223 -0.1710
  169SAPE   H3R19085   5.410   5.383   6.518 -1.0657 -1.6050 -0.2874
  169SAPE   H3S19086   5.242   5.403   6.557  0.3797 -1.3017 -0.9827
  169SAPE   C2419087   5.370   5.491   6.704  0.6835  0.3319 -0.7871
  169SAPE   H4R19088   5.308   5.577   6.736  2.0985  1.2076 -0.3206
  169SAPE   H4S19089   5.476   5.523   6.707  1.0455 -0.7950  2.5996
  169SAPE   C2519090   5.349   5.364   6.788  0.0995  0.4647  0.1838
  169SAPE   H5R19091   5.305   5.277   6.737  0.1404  1.4999 -1.7109
  169SAPE   C2619092   5.354   5.355   6.924  0.2066  0.5597  1.0734
  169SAPE   H6R19093   5.339   5.260   6.978  1.4310  0.4405  1.2303
  169SAPE   C2719094   5.383   5.477   7.003  0.2770 -0.3036  0.0392
  169SAPE   H7R19095   5.375   5.569   6.941 -0.5591  0.0384  0.6370
  169SAPE   H7S19096   5.476   5.461   7.061 -0.5548  0.3189  1.6205
  169SAPE   C2819097   5.276   5.496   7.108  0.3026  0.0021  0.9437
  169SAPE   H8R19098   5.181   5.536   7.069  1.1872 -0.5772 -2.1182
  169SAPE   C2919099   5.274   5.459   7.232 -0.2888  0.0791 -0.3586
  169SAPE   H9R19100   5.186   5.476   7.297 -1.2732  1.1978 -1.9138
  169SAPE  C21019101   5.391   5.396   7.306 -1.4800 -0.7409  0.3953
  169SAPE  H10R19102   5.376   5.409   7.415 -2.0950 -2.0790  0.4907
  169SAPE  H10S19103   5.489   5.444   7.289 -0.9162 -2.0909 -0.3029
  169SAPE  C21119104   5.401   5.250   7.281  0.6725 -0.0749  0.2846
  169SAPE  H11R19105   5.425   5.219   7.178  1.7620 -1.5393  0.9540
  169SAPE  C21219106   5.373   5.153   7.370  0.2336 -0.3199  1.1949
  169SAPE  H12R19107   5.372   5.050   7.330  1.1687 -0.1270  0.6418
  169SAPE  C21319108   5.331   5.168   7.512 -0.4836  0.3653  0.1301
  169SAPE  H13R19109   5.281   5.265   7.533 -3.0674 -0.9067  0.2513
  169SAPE  H13S19110   5.425   5.161   7.571  0.1487  0.7876 -0.8009
  169SAPE  C21419111   5.250   5.057   7.572  0.9945 -0.0405  0.1092
  169SAPE  H14R19112   5.190   4.999   7.499  2.0259 -1.5968  0.4435
  169SAPE  C21519113   5.237   5.025   7.702 -0.2704 -0.2852  0.6073
  169SAPE  H15R19114   5.176   4.937   7.728  1.9526 -2.1995 -0.3672
  169SAPE  C21619115   5.308   5.088   7.823  0.2148 -0.1544  0.0679
  169SAPE  H16R19116   5.313   5.199   7.822  1.1185 -0.1712  0.8389
  169SAPE  H16S19117   5.408   5.041   7.835  0.7830  0.9913 -0.0710
  169SAPE  C21719118   5.227   5.044   7.946  0.4459 -0.0902 -0.0296
  169SAPE  H17R19119   5.232   4.933   7.958  0.7273 -0.0176  0.6163
  169SAPE  H17S19120   5.122   5.073   7.929  0.5669 -0.2626 -1.1376
  169SAPE  C21819121   5.277   5.118   8.074  0.4977  0.7695  0.2577
  169SAPE  H18R19122   5.258   5.227   8.068  2.9719  1.2371 -0.2926
  169SAPE  H18S19123   5.387   5.100   8.076  0.3712 -0.5118 -1.4969
  169SAPE  C21919124   5.201   5.054   8.198 -0.1733 -0.6303  0.1908
  169SAPE  H19R19125   5.271   4.973   8.227  0.1383 -0.4605 -0.0711
  169SAPE  H19S19126   5.105   5.004   8.174 -0.8266  0.7784 -0.2795
  169SAPE  C22019127   5.188   5.148   8.319  0.3027  0.6957 -0.1727
  169SAPE  H20R19128   5.131   5.093   8.398  0.7365  0.8263  0.2337
  169SAPE  H20S19129   5.142   5.246   8.292 -1.8779 -0.5970 -1.4864
  169SAPE  H20T19130   5.288   5.153   8.366  0.5377 -1.3499 -0.3811
  169SAPE   C3319131   5.496   5.833   7.085  0.1980 -0.5917  0.2041
  169SAPE   H3X19132   5.435   5.741   7.077 -0.9950  0.0294  1.5643
  169SAPE   H3Y19133   5.431   5.923   7.094  0.0802 -0.6269 -0.3004
  169SAPE   C3419134   5.587   5.822   7.213  0.0601 -0.4693  1.8586
  169SAPE   H4X19135   5.641   5.915   7.241  0.5758  0.1321 -0.8157
  169SAPE   H4Y19136   5.664   5.747   7.184 -0.5823  0.2739 -2.3284
  169SAPE   C3519137   5.504   5.766   7.328  0.1623  0.8053  0.6495
  169SAPE   H5X19138   5.468   5.667   7.292 -1.3745  1.8658 -0.8503
  169SAPE   H5Y19139   5.417   5.830   7.354  0.3911  0.4200  2.4893
  169SAPE   C3619140   5.581   5.763   7.460 -0.3276  0.4642 -0.5373
  169SAPE   H6X19141   5.603   5.868   7.490 -0.3213  0.5753 -0.9209
  169SAPE   H6Y19142   5.679   5.710   7.463 -0.4464  0.2870  0.2784
  169SAPE   C3719143   5.481   5.716   7.572  0.4632  0.4194  0.6693
  169SAPE   H7X19144   5.431   5.624   7.535  1.6011  0.9693 -2.5610
  169SAPE   H7Y19145   5.408   5.797   7.594 -2.1160 -1.7339  0.5511
  169SAPE   C3819146   5.554   5.705   7.704 -0.0335 -0.3635  0.0721
  169SAPE   H8X19147   5.567   5.812   7.729 -1.1572 -0.2850  0.3770
  169SAPE   H8Y19148   5.652   5.655   7.684 -0.1383 -1.1287  1.3802
  169SAPE   C3919149   5.483   5.626   7.816  0.2410  0.3778  0.1236
  169SAPE   H9X19150   5.486   5.518   7.793  0.3575  0.5611 -0.7478
  169SAPE   H9Y19151   5.380   5.665   7.832  0.6111  1.5570 -0.2407
  169SAPE  C31019152   5.549   5.646   7.952 -0.0742  0.2650 -0.1664
  169SAPE  H10X19153   5.554   5.754   7.978  1.1132  0.3950 -0.8626
  169SAPE  H10Y19154   5.657   5.623   7.960  0.2723  1.8435 -0.1172
  169SAPE  C31119155   5.503   5.559   8.071 -0.2272 -1.0285  0.6008
  169SAPE  H11X19156   5.510   5.449   8.052  1.1547 -0.7214 -0.8391
  169SAPE  H11Y19157   5.401   5.582   8.109 -0.5143 -1.2376 -0.0363
  169SAPE  C31219158   5.581   5.608   8.195 -0.5637  0.3418 -0.6080
  169SAPE  H12X19159   5.586   5.719   8.205 -1.5407  0.5031 -1.7049
  169SAPE  H12Y19160   5.683   5.566   8.180 -0.6097 -0.3104  0.7845
  169SAPE  C31319161   5.540   5.533   8.321 -0.2578  0.2766  0.0181
  169SAPE  H13X19162   5.632   5.551   8.382 -0.7334  1.7183  0.3372
  169SAPE  H13Y19163   5.534   5.426   8.291  1.2766 -0.1609  1.1079
  169SAPE  C31419164   5.427   5.608   8.397 -0.3066  0.2448  1.0614
  169SAPE  H14X19165   5.337   5.542   8.401  0.0919 -0.3178  0.9134
  169SAPE  H14Y19166   5.400   5.701   8.343  4.6025  0.3676 -1.7774
  169SAPE  C31519167   5.469   5.630   8.542 -0.0554  0.2607  0.0141
  169SAPE  H15X19168   5.567   5.682   8.544  0.8976 -1.4886 -0.0424
  169SAPE  H15Y19169   5.494   5.532   8.587 -2.3996 -0.6969 -0.5930
  169SAPE  C31619170   5.368   5.708   8.630  0.9023  0.6244 -0.3279
  169SAPE  H16X19171   5.353   5.811   8.590  1.4915  0.5911 -0.6391
  169SAPE  H16Y19172   5.411   5.726   8.731 -0.2053 -0.3236  0.3386
  169SAPE  C31719173   5.226   5.647   8.647 -0.3358  0.4885  0.0360
  169SAPE  H17X19174   5.174   5.649   8.549  0.5632 -3.7720 -0.7395
  169SAPE  H17Y19175   5.175   5.704   8.728  0.8001  1.9207 -0.2141
  169SAPE  C31819176   5.213   5.492   8.683 -0.0312  0.8216  0.2704
  169SAPE  H18X19177   5.108   5.462   8.702  0.6634 -3.1551 -1.1923
  169SAPE  H18Y19178   5.277   5.468   8.771 -2.5014  1.3482  2.3179
  169SAPE  H18Z19179   5.246   5.427   8.599  0.3492  1.8037 -0.3618
  170SAPE     N19180   6.652   1.823   6.037  0.6484  0.3743  0.2284
  170SAPE   HN119181   6.585   1.844   5.961  2.6226  1.8682 -1.1995
  170SAPE   HN219182   6.744   1.850   5.997  0.3172  1.4680  0.1908
  170SAPE   HN319183   6.655   1.719   6.043  2.7662  0.2653 -1.4669
  170SAPE   C1219184   6.608   1.889   6.162 -0.2014  0.5604  0.2719
  170SAPE  H12A19185   6.681   1.873   6.245 -0.3706 -1.9173  0.0148
  170SAPE  H12B19186   6.508   1.847   6.183 -0.6907  1.9171  0.8241
  170SAPE   C1119187   6.606   2.048   6.145  0.8725 -0.2110 -0.1467
  170SAPE  H11A19188   6.546   2.094   6.227 -2.2496 -1.4461 -1.5943
  170SAPE  H11B19189   6.549   2.069   6.053  1.4868  0.0602 -0.4718
  170SAPE     P19190   6.761   2.251   6.104  0.0649 -0.2463 -0.6927
  170SAPE   O1319191   6.902   2.277   6.071 -0.1909  0.3234  0.6875
  170SAPE   O1419192   6.659   2.287   6.006  0.1526  0.1074 -0.2279
  170SAPE   O1219193   6.743   2.098   6.142  0.0232  0.3752 -0.4095
  170SAPE   O1119194   6.740   2.330   6.234  0.1742 -0.1273  0.1231
  170SAPE    C119195   6.790   2.290   6.361  0.5257  0.2163  0.0488
  170SAPE    HA19196   6.853   2.199   6.359  1.2776  0.7221  0.5956
  170SAPE    HB19197   6.864   2.365   6.396  2.2600 -1.0116 -0.8877
  170SAPE    C219198   6.675   2.281   6.465  1.0739  0.2219  0.3622
  170SAPE    HS19199   6.607   2.205   6.422 -0.2981 -0.6734  3.8049
  170SAPE   O2119200   6.606   2.407   6.474  0.5236  0.8213 -0.4580
  170SAPE   C2119201   6.481   2.382   6.521 -0.1469 -0.1086 -0.2789
  170SAPE   O2219202   6.423   2.273   6.536 -0.3833  0.1015  0.0497
  170SAPE   C2219203   6.415   2.520   6.552  0.3978  0.5526  0.4445
  170SAPE   H2R19204   6.378   2.561   6.455  0.5495 -0.2039  0.0570
  170SAPE   H2S19205   6.328   2.505   6.619  0.3033  1.5307  0.5601
  170SAPE    C319206   6.736   2.222   6.599 -0.1484  0.1211  0.2536
  170SAPE    HX19207   6.805   2.301   6.635  1.0982 -0.2204 -1.2714
  170SAPE    HY19208   6.798   2.131   6.584 -4.2144 -2.7601 -0.6992
  170SAPE   O3119209   6.638   2.201   6.703 -0.2430 -0.0367  0.1336
  170SAPE   C3119210   6.591   2.080   6.702 -0.7489  0.0409 -0.1330
  170SAPE   O3219211   6.638   1.986   6.637 -0.2075 -0.1980  0.6059
  170SAPE   C3219212   6.473   2.070   6.798 -0.6345 -0.5468 -0.3206
  170SAPE   H2X19213   6.407   1.987   6.768 -3.3855  0.0768  3.2707
  170SAPE   H2Y19214   6.411   2.162   6.798 -0.1498 -0.1487 -2.7967
  170SAPE   C2319215   6.511   2.621   6.617 -0.0432 -0.4190  0.1004
  170SAPE   H3R19216   6.488   2.719   6.571  0.6854 -0.0607  0.4883
  170SAPE   H3S19217   6.618   2.612   6.587 -0.0050 -0.3489  0.2141
  170SAPE   C2419218   6.493   2.629   6.771 -1.4978  0.4357  0.1518
  170SAPE   H4R19219   6.386   2.648   6.793 -1.3088  0.5780  0.9984
  170SAPE   H4S19220   6.556   2.707   6.820 -1.4902  2.3710 -2.6898
  170SAPE   C2519221   6.526   2.495   6.836  0.2772 -0.4802  0.1051
  170SAPE   H5R19222   6.601   2.431   6.788  0.7596  0.2749 -0.1800
  170SAPE   C2619223   6.491   2.464   6.958  0.0213 -0.0152 -0.6180
  170SAPE   H6R19224   6.514   2.362   6.993 -2.8830 -0.6994 -0.5010
  170SAPE   C2719225   6.386   2.553   7.046  0.2192  0.0295 -0.3099
  170SAPE   H7R19226   6.295   2.568   6.985 -0.3870 -3.6920 -0.5084
  170SAPE   H7S19227   6.434   2.652   7.062 -1.3987  0.6247  1.1486
  170SAPE   C2819228   6.334   2.510   7.182 -0.1155 -0.3146 -0.2722
  170SAPE   H8R19229   6.227   2.490   7.191  0.1312 -0.8925  1.7390
  170SAPE   C2919230   6.412   2.506   7.288 -0.2780 -0.4755  0.0458
  170SAPE   H9R19231   6.363   2.503   7.387  0.0935 -1.0321  0.2198
  170SAPE  C21019232   6.563   2.532   7.301  1.1499 -0.3902 -1.1741
  170SAPE  H10R19233   6.572   2.631   7.350 -1.9110  0.6041 -2.3537
  170SAPE  H10S19234   6.613   2.551   7.203 -0.2938 -1.7387 -2.2350
  170SAPE  C21119235   6.635   2.430   7.386  0.1900  0.5208 -0.2786
  170SAPE  H11R19236   6.670   2.350   7.320 -0.8800  0.4672 -0.7814
  170SAPE  C21219237   6.644   2.424   7.518  0.1455 -0.4725 -1.0761
  170SAPE  H12R19238   6.687   2.340   7.574  0.7746  2.0312  2.5602
  170SAPE  C21319239   6.585   2.527   7.615 -0.4570 -0.5116  0.1589
  170SAPE  H13R19240   6.521   2.481   7.693 -1.3282  0.0225 -0.2298
  170SAPE  H13S19241   6.517   2.597   7.563 -0.9878  1.3385  3.1084
  170SAPE  C21419242   6.692   2.614   7.674  0.2365  0.3488 -0.1442
  170SAPE  H14R19243   6.741   2.691   7.612 -0.5632  1.4497  0.5579
  170SAPE  C21519244   6.734   2.594   7.803  1.0688  0.5329 -0.0958
  170SAPE  H15R19245   6.816   2.656   7.842  1.7171 -0.6694  0.4890
  170SAPE  C21619246   6.689   2.488   7.897  0.4474  0.1081 -0.3784
  170SAPE  H16R19247   6.779   2.452   7.951 -0.7355 -0.6978  1.1334
  170SAPE  H16S19248   6.644   2.406   7.837 -0.1791  0.8439 -0.9326
  170SAPE  C21719249   6.593   2.538   8.006 -0.0315 -0.2559  0.0075
  170SAPE  H17R19250   6.494   2.571   7.969  0.7285  1.3562 -0.7044
  170SAPE  H17S19251   6.639   2.627   8.053 -0.0403 -0.0621 -0.3503
  170SAPE  C21819252   6.551   2.437   8.120 -1.3195  0.5388  0.0754
  170SAPE  H18R19253   6.638   2.389   8.170  1.2297  2.5353 -2.1551
  170SAPE  H18S19254   6.488   2.357   8.075 -1.8723  0.7027  0.5470
  170SAPE  C21919255   6.457   2.512   8.218 -0.0207  0.4077 -0.7059
  170SAPE  H19R19256   6.383   2.574   8.163 -1.4203 -0.4245  0.1838
  170SAPE  H19S19257   6.522   2.585   8.270  0.8585 -0.5251 -0.4616
  170SAPE  C22019258   6.383   2.425   8.314 -0.7694  0.1783 -0.1793
  170SAPE  H20R19259   6.275   2.448   8.312 -1.1417 -0.0893  4.6171
  170SAPE  H20S19260   6.417   2.472   8.410 -2.0672  1.0421 -0.1251
  170SAPE  H20T19261   6.411   2.318   8.305  0.7681  0.6565 -1.8847
  170SAPE   C3319262   6.521   2.025   6.931  0.1455 -0.4838  0.2760
  170SAPE   H3X19263   6.590   2.095   6.983  1.0475 -1.4705  0.4482
  170SAPE   H3Y19264   6.558   1.920   6.926  0.1377 -0.7684  3.7803
  170SAPE   C3419265   6.400   2.019   7.026  0.7932  0.6744  0.0100
  170SAPE   H4X19266   6.326   1.950   6.981  0.6905 -1.0261  2.5736
  170SAPE   H4Y19267   6.354   2.120   7.035  3.4358  1.8562  1.2680
  170SAPE   C3519268   6.416   1.963   7.167 -0.0510  0.2563 -0.8454
  170SAPE   H5X19269   6.490   1.881   7.160 -0.0436  0.2625 -0.8396
  170SAPE   H5Y19270   6.322   1.919   7.206 -0.4166  1.3842 -0.4115
  170SAPE   C3619271   6.441   2.077   7.266  0.2710 -0.4644  0.1000
  170SAPE   H6X19272   6.350   2.140   7.266  0.3009 -0.3467 -2.0826
  170SAPE   H6Y19273   6.525   2.137   7.226 -1.7843  2.0258 -0.7252
  170SAPE   C3719274   6.483   2.029   7.403 -0.0895 -0.1198  0.1660
  170SAPE   H7X19275   6.555   2.108   7.435 -0.0821  1.3645 -3.0942
  170SAPE   H7Y19276   6.535   1.931   7.408 -1.3939 -0.8719 -0.5913
  170SAPE   C3819277   6.376   2.028   7.509 -0.3512  0.4049  0.2648
  170SAPE   H8X19278   6.414   1.991   7.606  1.5809  2.4790  0.4081
  170SAPE   H8Y19279   6.295   1.957   7.482  1.0498 -0.6929 -1.2826
  170SAPE   C3919280   6.321   2.176   7.535  0.2174  0.1606 -0.6412
  170SAPE   H9X19281   6.275   2.212   7.441  2.1610  0.1372 -1.6594
  170SAPE   H9Y19282   6.405   2.250   7.536  0.0280  0.3916  0.6912
  170SAPE  C31019283   6.216   2.187   7.641  0.2448  0.3480 -0.7347
  170SAPE  H10X19284   6.134   2.113   7.633 -0.7168  1.2561  0.4189
  170SAPE  H10Y19285   6.167   2.287   7.635 -1.1398 -0.2780 -0.2754
  170SAPE  C31119286   6.281   2.169   7.783  0.2663 -0.8460  0.1676
  170SAPE  H11X19287   6.358   2.249   7.793 -0.1484 -0.2376 -1.1887
  170SAPE  H11Y19288   6.332   2.073   7.802 -3.5757 -2.7986  1.6529
  170SAPE  C31219289   6.191   2.189   7.905  0.3645  0.2349 -0.4541
  170SAPE  H12X19290   6.127   2.098   7.902  1.5011 -0.6778  1.4362
  170SAPE  H12Y19291   6.141   2.289   7.911  1.4535  0.8727 -1.5509
  170SAPE  C31319292   6.270   2.177   8.041  0.0930 -0.1291  0.1783
  170SAPE  H13X19293   6.295   2.283   8.063  1.3949  0.3415 -2.9812
  170SAPE  H13Y19294   6.359   2.112   8.028  1.3134  1.3753  0.6741
  170SAPE  C31419295   6.188   2.131   8.161  0.3776 -0.0436  0.4067
  170SAPE  H14X19296   6.236   2.124   8.261 -1.9792  1.7032  1.7647
  170SAPE  H14Y19297   6.154   2.029   8.131 -2.1461  0.5739  0.9048
  170SAPE  C31519298   6.052   2.198   8.186 -0.2186 -0.8429  0.1704
  170SAPE  H15X19299   5.994   2.208   8.091 -1.2864 -2.5397  0.5894
  170SAPE  H15Y19300   6.076   2.297   8.231  0.2074 -0.7576 -0.2395
  170SAPE  C31619301   5.964   2.124   8.286 -0.5928  0.2304  0.0053
  170SAPE  H16X19302   5.934   2.030   8.235  2.9904 -1.6255  0.9576
  170SAPE  H16Y19303   5.866   2.171   8.303 -0.8727  0.3104 -1.6176
  170SAPE  C31719304   6.031   2.071   8.418  0.0926 -0.6041 -0.4275
  170SAPE  H17X19305   6.104   2.151   8.442 -1.4836  0.9002 -0.4867
  170SAPE  H17Y19306   6.080   1.972   8.407 -2.1479 -1.7985 -0.2626
  170SAPE  C31819307   5.936   2.074   8.540 -0.6290  0.2127 -0.3664
  170SAPE  H18X19308   5.993   2.055   8.633  0.7899 -0.2263 -1.2993
  170SAPE  H18Y19309   5.852   2.003   8.526 -0.5453  0.2060 -0.8460
  170SAPE  H18Z19310   5.895   2.175   8.563  1.0632  0.9796 -0.6289
  171SAPE     N19311   6.465   4.425   6.013 -0.3029  0.6142 -0.0594
  171SAPE   HN119312   6.477   4.324   5.989  2.3047  0.8861 -0.2051
  171SAPE   HN219313   6.371   4.458   5.985 -1.1646 -1.0862  0.6340
  171SAPE   HN319314   6.538   4.470   5.954 -1.3330 -0.9778 -2.7242
  171SAPE   C1219315   6.475   4.446   6.164 -0.4215  0.1264 -0.2420
  171SAPE  H12A19316   6.413   4.538   6.175  0.0389  0.1857  2.6565
  171SAPE  H12B19317   6.584   4.454   6.188 -0.2720 -2.2813  0.0781
  171SAPE   C1119318   6.426   4.326   6.246 -0.3364 -0.2698 -0.1187
  171SAPE  H11A19319   6.318   4.305   6.227 -0.2990 -1.0666  0.5019
  171SAPE  H11B19320   6.442   4.364   6.349  0.3110  2.8723 -1.2843
  171SAPE     P19321   6.649   4.174   6.263  0.4501  0.3740  0.1479
  171SAPE   O1319322   6.665   4.026   6.278  0.5084 -0.7206 -0.3663
  171SAPE   O1419323   6.732   4.233   6.154  0.1462  0.5327  1.0318
  171SAPE   O1219324   6.501   4.209   6.225  0.4529 -0.5001  0.1558
  171SAPE   O1119325   6.676   4.255   6.397 -0.6723 -0.2912 -0.2877
  171SAPE    C119326   6.650   4.188   6.525  0.4495 -0.3753  0.0902
  171SAPE    HA19327   6.582   4.251   6.586  1.8735  0.9523  0.3320
  171SAPE    HB19328   6.603   4.089   6.502 -1.0301  0.0973  0.8984
  171SAPE    C219329   6.782   4.164   6.595  0.4983  0.3106 -1.0467
  171SAPE    HS19330   6.827   4.081   6.535 -0.2699 -0.6789 -0.2988
  171SAPE   O2119331   6.755   4.134   6.731  0.4114  0.0390  0.0631
  171SAPE   C2119332   6.837   4.053   6.786  0.4889 -0.4222  1.0323
  171SAPE   O2219333   6.920   3.988   6.733  0.1574  0.4361  0.0131
  171SAPE   C2219334   6.833   4.084   6.935 -0.2226 -0.5714 -0.3582
  171SAPE   H2R19335   6.852   4.192   6.952 -0.5302 -0.4915 -0.4969
  171SAPE   H2S19336   6.730   4.060   6.971 -0.5346 -0.1481 -0.9426
  171SAPE    C319337   6.874   4.284   6.579 -0.1014 -0.3529 -0.0639
  171SAPE    HX19338   6.815   4.371   6.616  0.9403  0.2220  0.2913
  171SAPE    HY19339   6.892   4.309   6.472  3.8800 -0.3163  0.4792
  171SAPE   O3119340   6.996   4.266   6.657  0.0180 -0.9531  0.2420
  171SAPE   C3119341   7.098   4.233   6.583 -0.4997  0.8057 -0.5401
  171SAPE   O3219342   7.103   4.228   6.462 -0.1580 -0.8280 -0.6040
  171SAPE   C3219343   7.213   4.185   6.668 -0.1519  0.1965 -0.7343
  171SAPE   H2X19344   7.279   4.118   6.609 -0.1040  0.0031 -0.4635
  171SAPE   H2Y19345   7.174   4.136   6.760  1.0773  1.4508  0.5080
  171SAPE   C2319346   6.927   3.989   7.009  0.2510  0.4643 -0.7535
  171SAPE   H3R19347   7.030   4.017   6.980  1.4876 -2.5660  0.2937
  171SAPE   H3S19348   6.908   3.880   6.993 -0.9355  0.2804  1.4263
  171SAPE   C2419349   6.884   4.016   7.158 -0.0300 -0.2033  0.3442
  171SAPE   H4R19350   6.779   3.982   7.172  0.6929 -2.3694  0.8391
  171SAPE   H4S19351   6.882   4.123   7.187  1.9185 -0.1264  0.3140
  171SAPE   C2519352   6.973   3.939   7.249  0.9400  0.8194 -0.3640
  171SAPE   H5R19353   6.937   3.840   7.284  2.4667  0.3307 -0.1026
  171SAPE   C2619354   7.089   3.979   7.297  0.0830 -0.4640  0.8081
  171SAPE   H6R19355   7.146   3.919   7.370  0.6433  0.1975  0.9311
  171SAPE   C2719356   7.158   4.109   7.259  0.6100 -0.3957 -0.0839
  171SAPE   H7R19357   7.198   4.162   7.349  2.3456 -0.4131 -0.8113
  171SAPE   H7S19358   7.085   4.183   7.220 -0.2105 -1.3470 -0.3875
  171SAPE   C2819359   7.250   4.092   7.141 -0.2569 -0.1742 -0.4781
  171SAPE   H8R19360   7.209   4.088   7.039 -0.4353 -0.9603 -0.3846
  171SAPE   C2919361   7.384   4.107   7.153  0.0486  1.0266  0.0664
  171SAPE   H9R19362   7.441   4.075   7.064 -1.0583 -0.9235 -0.0127
  171SAPE  C21019363   7.457   4.140   7.282 -0.4217  1.0419 -0.8601
  171SAPE  H10R19364   7.406   4.230   7.324 -2.1001 -0.4210  0.3874
  171SAPE  H10S19365   7.560   4.178   7.269  0.7441 -1.8288 -0.6864
  171SAPE  C21119366   7.468   4.029   7.375  0.5871  0.3079 -0.1249
  171SAPE  H11R19367   7.424   3.936   7.335 -1.0754  1.2814 -0.6374
  171SAPE  C21219368   7.496   4.047   7.502  0.1761  0.0266 -1.0415
  171SAPE  H12R19369   7.491   3.955   7.563 -1.4166  1.8052  1.7320
  171SAPE  C21319370   7.539   4.172   7.570  0.2803 -0.3984  0.2895
  171SAPE  H13R19371   7.546   4.253   7.495  2.0634 -0.0076  0.8240
  171SAPE  H13S19372   7.640   4.163   7.616  1.7802  1.7260 -2.2793
  171SAPE  C21419373   7.423   4.209   7.663 -0.1585 -0.2895  0.7273
  171SAPE  H14R19374   7.324   4.209   7.614  0.4125 -0.9236 -0.4718
  171SAPE  C21519375   7.445   4.227   7.794  0.1151  0.4101  0.3716
  171SAPE  H15R19376   7.369   4.229   7.873  1.9591 -1.3917  2.3252
  171SAPE  C21619377   7.579   4.215   7.860  1.1241 -0.3411  0.0019
  171SAPE  H16R19378   7.652   4.279   7.807  1.1973  1.0532  1.7035
  171SAPE  H16S19379   7.612   4.109   7.869  0.4259 -0.8074 -2.1904
  171SAPE  C21719380   7.587   4.274   8.002  0.2553  0.8135  0.4904
  171SAPE  H17R19381   7.499   4.245   8.064  1.0035  2.3136  2.3591
  171SAPE  H17S19382   7.573   4.383   7.985 -0.2788  0.8912  1.3692
  171SAPE  C21819383   7.718   4.237   8.072 -1.0234  0.1957 -0.4840
  171SAPE  H18R19384   7.811   4.275   8.026 -1.2158 -0.5997 -1.5853
  171SAPE  H18S19385   7.716   4.126   8.069  2.0639 -0.0058  1.1615
  171SAPE  C21919386   7.725   4.254   8.228 -0.4059  0.2740 -0.5394
  171SAPE  H19R19387   7.777   4.165   8.268 -2.0086 -0.3436  0.2287
  171SAPE  H19S19388   7.619   4.240   8.258 -0.4438 -0.7916 -1.1227
  171SAPE  C22019389   7.786   4.384   8.263 -0.0401 -0.4734 -0.6875
  171SAPE  H20R19390   7.805   4.395   8.372  0.6449 -0.4542 -0.8044
  171SAPE  H20S19391   7.725   4.474   8.238  0.7949  0.4391  0.4807
  171SAPE  H20T19392   7.879   4.404   8.206  1.3625  0.4718  1.7596
  171SAPE   C3319393   7.296   4.310   6.726 -0.0848 -0.3961  0.3924
  171SAPE   H3X19394   7.263   4.345   6.826  0.7836  0.6368  0.3412
  171SAPE   H3Y19395   7.296   4.396   6.655  1.2723 -0.0161  0.8256
  171SAPE   C3419396   7.440   4.263   6.749 -0.6382 -0.5429 -0.3197
  171SAPE   H4X19397   7.501   4.276   6.657 -0.2579 -0.4914 -0.0583
  171SAPE   H4Y19398   7.437   4.155   6.778 -1.4094 -0.6095 -0.6217
  171SAPE   C3519399   7.502   4.348   6.865  0.4106 -0.1626 -0.0224
  171SAPE   H5X19400   7.493   4.298   6.964 -1.9520 -0.2653 -0.2448
  171SAPE   H5Y19401   7.447   4.444   6.863 -0.6528 -0.7645 -0.7805
  171SAPE   C3619402   7.650   4.391   6.847  1.1880  0.0386 -0.0564
  171SAPE   H6X19403   7.684   4.421   6.745  2.8371 -1.3888  0.0297
  171SAPE   H6Y19404   7.709   4.301   6.874  1.3810  0.4467  0.9108
  171SAPE   C3719405   7.688   4.503   6.951  0.5011  0.4863  0.3567
  171SAPE   H7X19406   7.635   4.597   6.925 -0.0801 -0.2118 -1.0358
  171SAPE   H7Y19407   7.799   4.510   6.947  0.4501  1.8709  0.7025
  171SAPE   C3819408   7.654   4.450   7.094 -0.1430  0.1006 -0.0090
  171SAPE   H8X19409   7.689   4.345   7.107  0.0876  0.4508  3.1518
  171SAPE   H8Y19410   7.545   4.445   7.112 -0.2339 -0.7504 -0.7393
  171SAPE   C3919411   7.725   4.533   7.203  0.0123  0.2536  0.6292
  171SAPE   H9X19412   7.695   4.639   7.191  1.4011  0.6651  0.5243
  171SAPE   H9Y19413   7.835   4.528   7.188 -0.0344  1.2873 -0.1285
  171SAPE  C31019414   7.689   4.487   7.343  0.6617  0.0119 -0.4493
  171SAPE  H10X19415   7.744   4.391   7.355 -0.5777 -0.7526 -0.7014
  171SAPE  H10Y19416   7.583   4.458   7.356  1.2937 -1.9238  0.9056
  171SAPE  C31119417   7.744   4.588   7.445  0.4620 -0.1679  0.0633
  171SAPE  H11X19418   7.701   4.688   7.426 -2.2233 -1.7051 -2.8039
  171SAPE  H11Y19419   7.853   4.605   7.432  0.5825  0.4913  1.6277
  171SAPE  C31219420   7.728   4.561   7.596 -0.1676  0.5989  0.7986
  171SAPE  H12X19421   7.769   4.460   7.618  0.8478  0.3658 -1.8600
  171SAPE  H12Y19422   7.618   4.562   7.610 -0.1239 -0.1094  1.2242
  171SAPE  C31319423   7.782   4.661   7.697 -0.4004 -0.2549  0.1555
  171SAPE  H13X19424   7.727   4.755   7.677  1.4197  0.6344 -0.9132
  171SAPE  H13Y19425   7.892   4.677   7.690 -0.0723 -1.6104  1.4567
  171SAPE  C31419426   7.768   4.628   7.849  0.3138  0.6037 -0.0679
  171SAPE  H14X19427   7.843   4.552   7.880 -0.9505 -1.0725 -0.9325
  171SAPE  H14Y19428   7.668   4.586   7.871  0.2790  0.1990 -0.9521
  171SAPE  C31519429   7.782   4.749   7.947 -0.7431 -0.5596  0.5902
  171SAPE  H15X19430   7.702   4.826   7.937 -0.2098  0.8209  4.8394
  171SAPE  H15Y19431   7.883   4.793   7.933 -1.6594  0.6320 -3.6964
  171SAPE  C31619432   7.777   4.703   8.089  0.5129  0.1196  0.8663
  171SAPE  H16X19433   7.863   4.639   8.118  0.1755  0.0109  1.6633
  171SAPE  H16Y19434   7.690   4.634   8.095  0.2762 -0.2902 -3.7979
  171SAPE  C31719435   7.783   4.820   8.186  0.1125 -0.0214 -0.9469
  171SAPE  H17X19436   7.732   4.789   8.280  2.1315  1.2590  0.6617
  171SAPE  H17Y19437   7.735   4.911   8.145 -0.1512  0.6530  0.7517
  171SAPE  C31819438   7.927   4.853   8.230  0.5701 -0.0621  0.0574
  171SAPE  H18X19439   7.972   4.760   8.272 -1.7310 -0.7553  1.1478
  171SAPE  H18Y19440   7.934   4.939   8.299  1.1255  0.8297 -1.0750
  171SAPE  H18Z19441   7.981   4.892   8.141 -0.6357  1.4396 -0.0488
  172SAPE     N19442   5.778   0.980   6.368  0.3085  0.3500  0.0999
  172SAPE   HN119443   5.717   0.897   6.360  2.0492 -0.9882  0.1516
  172SAPE   HN219444   5.830   0.969   6.457 -0.1004  0.7537  0.3909
  172SAPE   HN319445   5.730   1.072   6.372  1.1256  0.7907  0.0286
  172SAPE   C1219446   5.867   0.992   6.246  0.5945  0.2864 -0.4010
  172SAPE  H12A19447   5.856   1.089   6.193  2.3403  1.1334  0.6980
  172SAPE  H12B19448   5.832   0.913   6.175 -0.0803  0.2811 -0.0639
  172SAPE   C1119449   6.013   0.949   6.286  0.4355 -0.6693 -0.5264
  172SAPE  H11A19450   6.072   0.923   6.196 -1.9496 -1.3511 -1.9710
  172SAPE  H11B19451   6.009   0.860   6.353  1.0330  0.8398  1.6432
  172SAPE     P19452   6.138   1.175   6.304  0.1164 -0.3760 -0.2377
  172SAPE   O1319453   6.285   1.163   6.314  0.1409  1.2130  0.2667
  172SAPE   O1419454   6.076   1.216   6.179  0.1730  0.8355  0.7447
  172SAPE   O1219455   6.073   1.047   6.364 -0.0087  0.2463  0.7117
  172SAPE   O1119456   6.097   1.284   6.414  0.2051  0.1879  0.1960
  172SAPE    C119457   5.962   1.309   6.449 -0.7483  0.7362 -0.0230
  172SAPE    HA19458   5.934   1.414   6.430 -0.1797  0.9533  0.2956
  172SAPE    HB19459   5.899   1.235   6.395  1.4224 -1.0480 -0.2559
  172SAPE    C219460   5.939   1.282   6.598  0.0195  0.3407 -0.2137
  172SAPE    HS19461   5.832   1.287   6.625 -0.1031  1.2260 -0.8156
  172SAPE   O2119462   6.002   1.382   6.683 -0.5143 -0.5721 -0.4137
  172SAPE   C2119463   5.958   1.397   6.808  0.1598  0.8082  0.3583
  172SAPE   O2219464   5.858   1.344   6.853 -0.1402  0.2404 -0.0687
  172SAPE   C2219465   6.044   1.485   6.883  0.2289 -0.4371 -0.3393
  172SAPE   H2R19466   6.146   1.441   6.894  0.8835  1.1360  0.2564
  172SAPE   H2S19467   6.049   1.577   6.821  0.1035  1.0294  1.6892
  172SAPE    C319468   5.992   1.146   6.639  0.1426  0.3109  0.3547
  172SAPE    HX19469   6.100   1.152   6.613 -0.3058  1.0317 -1.5660
  172SAPE    HY19470   5.954   1.064   6.575  0.8861 -0.5713  1.0013
  172SAPE   O3119471   5.980   1.112   6.778  0.6263 -0.1336  0.6166
  172SAPE   C3119472   5.877   1.046   6.826 -0.0100 -0.8251 -0.9027
  172SAPE   O3219473   5.783   0.999   6.770 -0.2184  0.8233 -0.2916
  172SAPE   C3219474   5.891   1.028   6.980 -0.1061 -0.6384 -0.3921
  172SAPE   H2X19475   5.910   1.128   7.026 -3.9601 -0.8730  2.1666
  172SAPE   H2Y19476   5.983   0.970   7.001  0.4496 -0.5542 -2.3830
  172SAPE   C2319477   5.976   1.510   7.026  0.1609  0.1368  0.6433
  172SAPE   H3R19478   5.963   1.408   7.069  1.6390 -1.1862 -1.8520
  172SAPE   H3S19479   5.877   1.559   7.017  0.7683  1.2137 -0.4608
  172SAPE   C2419480   6.065   1.594   7.123  0.3851 -0.1725 -0.7014
  172SAPE   H4R19481   6.171   1.564   7.105  0.1211 -0.3409 -2.1228
  172SAPE   H4S19482   6.036   1.571   7.227  2.4654  0.4657  0.0675
  172SAPE   C2519483   6.055   1.741   7.096 -0.5215  0.3951  0.2764
  172SAPE   H5R19484   6.103   1.782   7.006  0.1942  1.4135  1.0941
  172SAPE   C2619485   5.995   1.829   7.177 -0.4737  0.0269  0.0546
  172SAPE   H6R19486   5.990   1.930   7.133  0.0100  0.3905  0.8071
  172SAPE   C2719487   5.928   1.810   7.313 -0.1911  0.2880 -0.6298
  172SAPE   H7R19488   5.863   1.721   7.306 -2.2586  1.7389 -0.8887
  172SAPE   H7S19489   5.852   1.887   7.339  0.7445  0.9416  0.3042
  172SAPE   C2819490   6.040   1.788   7.417  0.4495  0.3046 -0.1209
  172SAPE   H8R19491   6.143   1.771   7.383  1.2876  2.1315  1.2973
  172SAPE   C2919492   6.031   1.797   7.553 -0.0422  0.1826 -0.1550
  172SAPE   H9R19493   6.126   1.786   7.608 -0.3599  0.5943  0.4961
  172SAPE  C21019494   5.905   1.812   7.632 -0.1880 -0.3493 -0.0768
  172SAPE  H10R19495   5.863   1.715   7.665  0.3788  0.0334  1.8824
  172SAPE  H10S19496   5.825   1.851   7.566  2.9015  2.6330 -2.4080
  172SAPE  C21119497   5.930   1.909   7.741  0.3716 -0.3362  0.1229
  172SAPE  H11R19498   5.930   2.015   7.712  1.2780 -0.1134  0.8973
  172SAPE  C21219499   5.943   1.872   7.866  0.5951 -0.2622  0.2284
  172SAPE  H12R19500   5.961   1.947   7.944 -2.2875  0.1005  0.6379
  172SAPE  C21319501   5.951   1.728   7.910 -0.2972  0.5423 -0.4628
  172SAPE  H13R19502   6.003   1.662   7.837 -1.4571 -0.2403 -0.5926
  172SAPE  H13S19503   5.857   1.670   7.899 -0.2657  0.5251 -0.6539
  172SAPE  C21419504   6.006   1.706   8.047  0.0104 -0.0785  0.1170
  172SAPE  H14R19505   6.109   1.665   8.048  0.3258  0.6674  1.3777
  172SAPE  C21519506   5.935   1.728   8.162  0.5517 -0.2144 -0.6088
  172SAPE  H15R19507   5.983   1.721   8.260  0.1165  2.0422 -0.1872
  172SAPE  C21619508   5.795   1.782   8.157 -0.2218  0.2012 -0.5211
  172SAPE  H16R19509   5.741   1.728   8.075 -1.3992  0.0488  0.3375
  172SAPE  H16S19510   5.796   1.891   8.135  0.8508  0.1776 -0.6868
  172SAPE  C21719511   5.727   1.749   8.294 -0.3248  0.4057 -0.4778
  172SAPE  H17R19512   5.671   1.840   8.324  0.3053  0.5798  0.1883
  172SAPE  H17S19513   5.793   1.728   8.381 -0.2060 -0.0021 -0.6655
  172SAPE  C21819514   5.605   1.653   8.273 -0.3793  0.3301 -0.2455
  172SAPE  H18R19515   5.658   1.571   8.220 -0.0000  1.1578 -1.1733
  172SAPE  H18S19516   5.526   1.700   8.211  0.4953  0.2635 -1.4395
  172SAPE  C21919517   5.544   1.596   8.398 -0.1437 -0.0645  0.5972
  172SAPE  H19R19518   5.628   1.570   8.466 -0.0602 -2.4203 -0.3280
  172SAPE  H19S19519   5.496   1.501   8.368  1.4451 -0.5006 -0.7121
  172SAPE  C22019520   5.439   1.678   8.480 -0.3754 -0.0488 -0.3659
  172SAPE  H20R19521   5.416   1.620   8.571 -0.5678  0.8119  0.1428
  172SAPE  H20S19522   5.346   1.697   8.422  0.5746  1.2757 -1.5275
  172SAPE  H20T19523   5.495   1.773   8.499 -0.9444  0.8387 -2.7739
  172SAPE   C3319524   5.768   0.983   7.052 -0.1038 -0.1923  0.0115
  172SAPE   H3X19525   5.741   0.880   7.018 -0.1984  0.0948 -0.8136
  172SAPE   H3Y19526   5.683   1.047   7.020  1.3978  2.1449  0.4827
  172SAPE   C3419527   5.778   0.991   7.211  0.0975  0.0748  0.5382
  172SAPE   H4X19528   5.802   1.097   7.235  1.3884 -0.6149  2.5090
  172SAPE   H4Y19529   5.866   0.924   7.222  0.5590  0.4439 -0.6775
  172SAPE   C3519530   5.660   0.925   7.286  0.0422  0.3449  0.2119
  172SAPE   H5X19531   5.637   0.828   7.238 -0.5260  0.5502  0.0579
  172SAPE   H5Y19532   5.569   0.987   7.272 -0.0661 -0.2833 -2.2011
  172SAPE   C3619533   5.694   0.908   7.437 -0.0462 -0.0556 -0.0018
  172SAPE   H6X19534   5.740   1.002   7.474  1.6254 -1.2162  1.0451
  172SAPE   H6Y19535   5.780   0.838   7.435  1.1720  1.4055 -0.4355
  172SAPE   C3719536   5.574   0.862   7.510  0.0076 -0.2919 -0.0385
  172SAPE   H7X19537   5.544   0.764   7.467  0.9444 -1.2955  1.4818
  172SAPE   H7Y19538   5.500   0.943   7.499 -0.5537 -0.4125  2.2741
  172SAPE   C3819539   5.600   0.829   7.664  0.5867 -0.1295  0.1074
  172SAPE   H8X19540   5.681   0.753   7.660  1.8745  1.1999 -0.2460
  172SAPE   H8Y19541   5.510   0.796   7.720  1.3738  0.1980  1.6302
  172SAPE   C3919542   5.666   0.952   7.740 -0.2673  0.3952  1.0375
  172SAPE   H9X19543   5.603   1.043   7.732 -1.1625 -0.0940  2.2705
  172SAPE   H9Y19544   5.759   0.976   7.684 -1.2503 -1.9174 -1.8582
  172SAPE  C31019545   5.692   0.933   7.891  0.3573 -0.1633  0.6632
  172SAPE  H10X19546   5.590   0.923   7.932  0.0683 -2.7368 -0.5099
  172SAPE  H10Y19547   5.749   1.016   7.938  0.7712 -0.2961  0.4001
  172SAPE  C31119548   5.758   0.798   7.919 -0.0606 -0.2869  0.2888
  172SAPE  H11X19549   5.840   0.779   7.846 -0.6885 -0.7712 -0.3067
  172SAPE  H11Y19550   5.697   0.708   7.897  0.6470 -0.3797 -1.4512
  172SAPE  C31219551   5.826   0.806   8.057 -0.9795  0.3504  0.1273
  172SAPE  H12X19552   5.907   0.881   8.065 -0.1068 -0.4803 -0.7331
  172SAPE  H12Y19553   5.884   0.713   8.077 -0.1182  0.9704  0.5549
  172SAPE  C31319554   5.732   0.835   8.175 -0.1520  0.2527 -0.2139
  172SAPE  H13X19555   5.665   0.748   8.189  0.3057  0.1912  2.0747
  172SAPE  H13Y19556   5.674   0.929   8.163 -1.3272 -0.3215  0.8394
  172SAPE  C31419557   5.816   0.871   8.308 -0.3405  0.2783  0.3792
  172SAPE  H14X19558   5.749   0.929   8.376  0.9027  1.7708  0.3694
  172SAPE  H14Y19559   5.897   0.938   8.275 -1.3588  0.2860 -2.3265
  172SAPE  C31519560   5.864   0.738   8.370 -0.1871  0.9974 -0.2619
  172SAPE  H15X19561   5.907   0.669   8.295 -0.9836 -0.1512  0.3139
  172SAPE  H15Y19562   5.780   0.692   8.427  1.8873 -0.8418  1.4799
  172SAPE  C31619563   5.975   0.752   8.475 -0.5391 -1.1972  0.0553
  172SAPE  H16X19564   5.967   0.662   8.539 -2.6863 -1.7462 -0.8973
  172SAPE  H16Y19565   5.958   0.834   8.548 -0.3572  3.2607 -4.3312
  172SAPE  C31719566   6.113   0.761   8.413 -1.1171  0.2107  0.5435
  172SAPE  H17X19567   6.117   0.849   8.345 -0.4384 -1.4641 -1.7010
  172SAPE  H17Y19568   6.133   0.675   8.346 -0.3531 -0.3006  1.3965
  172SAPE  C31819569   6.222   0.772   8.524 -0.4647 -0.0558 -0.3041
  172SAPE  H18X19570   6.205   0.689   8.596 -0.9853  1.1916  1.0714
  172SAPE  H18Y19571   6.214   0.872   8.573 -0.6427 -0.1698 -0.1016
  172SAPE  H18Z19572   6.321   0.763   8.474  1.1267 -2.2466  2.9188
  173SOPE     N19573   1.773   0.705  10.978  0.2461  0.4958  0.0249
  173SOPE   HN119574   1.765   0.755  11.069 -0.1543  1.7324 -0.6572
  173SOPE   HN219575   1.780   0.777  10.903 -3.0646  0.5836 -0.3795
  173SOPE   HN319576   1.686   0.649  10.964  0.0965 -0.1815  3.0274
  173SOPE   C1219577   1.884   0.601  10.977 -1.0375 -0.0077  0.3653
  173SOPE  H12A19578   1.915   0.576  10.873  0.4372  3.0077 -0.0251
  173SOPE  H12B19579   1.847   0.515  11.037 -0.3718  1.3182  2.7731
  173SOPE   C1119580   2.012   0.650  11.056  0.7410 -0.5686  0.0943
  173SOPE  H11A19581   2.073   0.559  11.070  0.2219 -0.9910 -0.3616
  173SOPE  H11B19582   1.983   0.682  11.159  3.1879  3.0408 -0.1384
  173SOPE     P19583   2.230   0.757  10.955  0.0085 -0.2003 -0.2373
  173SOPE   O1319584   2.301   0.814  11.078  0.1892  0.3831  0.1966
  173SOPE   O1419585   2.232   0.838  10.827  0.2808 -0.2084  0.2137
  173SOPE   O1219586   2.073   0.754  10.987 -0.3840  0.3534 -0.2980
  173SOPE   O1119587   2.279   0.612  10.926 -0.3318  0.6461  0.4979
  173SOPE    C119588   2.211   0.531  10.832  0.2616 -0.4616  1.1921
  173SOPE    HA19589   2.103   0.556  10.819 -0.0122 -2.1504 -0.1327
  173SOPE    HB19590   2.203   0.423  10.860  0.5474 -0.9758 -0.6092
  173SOPE    C219591   2.269   0.538  10.683 -0.8376  0.8156  0.0464
  173SOPE    HS19592   2.252   0.640  10.643  0.3204  0.9460 -0.1442
  173SOPE   O2119593   2.199   0.441  10.598 -0.3556 -0.1943 -0.4113
  173SOPE   C2119594   2.167   0.481  10.477 -0.1541  0.4464  0.2630
  173SOPE   O2219595   2.178   0.592  10.433 -0.0407  0.1502  0.1593
  173SOPE   C2219596   2.096   0.368  10.389  0.3295  0.9727 -0.0107
  173SOPE   H2R19597   1.986   0.381  10.377  0.0206 -1.4088 -0.3261
  173SOPE   H2S19598   2.123   0.266  10.425  0.7728  0.6088 -1.3113
  173SOPE    C319599   2.423   0.505  10.672 -0.4240  0.0909  0.0272
  173SOPE    HX19600   2.438   0.398  10.700 -0.1422  0.1840  0.2391
  173SOPE    HY19601   2.489   0.559  10.743 -1.2117  0.3401  0.5770
  173SOPE   O3119602   2.468   0.519  10.533 -0.5865 -0.1591  0.7355
  173SOPE   C3119603   2.478   0.641  10.485  0.0018 -0.7894  0.3516
  173SOPE   O3219604   2.426   0.738  10.528 -0.6950 -0.1045 -0.3907
  173SOPE   C3219605   2.574   0.641  10.366 -0.0701  0.3604 -0.1769
  173SOPE   H2X19606   2.529   0.587  10.280 -1.2169 -0.3197  0.8209
  173SOPE   H2Y19607   2.665   0.595  10.410 -0.6523  0.3216  1.0424
  173SOPE   C2319608   2.151   0.369  10.244  0.4229 -0.2257  0.4417
  173SOPE   H3R19609   2.139   0.469  10.196 -1.2370 -0.1828  0.8871
  173SOPE   H3S19610   2.084   0.303  10.184  0.5201  1.9585 -2.3242
  173SOPE   C2419611   2.300   0.330  10.238 -0.3472  0.0125  0.3467
  173SOPE   H4R19612   2.358   0.380  10.319 -2.0634 -1.8529  2.9044
  173SOPE   H4S19613   2.314   0.221  10.259  0.9728  0.3090  1.1570
  173SOPE   C2519614   2.367   0.380  10.105 -0.3266  0.0062 -0.1442
  173SOPE   H5R19615   2.360   0.488  10.082  1.1614  0.2042  0.2391
  173SOPE   H5S19616   2.471   0.343  10.121 -0.6182 -0.5488  0.5115
  173SOPE   C2619617   2.325   0.314   9.977  0.6928  0.2547 -0.3791
  173SOPE   H6R19618   2.343   0.204   9.981 -0.4754  0.0606 -0.1098
  173SOPE   H6S19619   2.217   0.334   9.963  0.6685  1.4582  1.2623
  173SOPE   C2719620   2.398   0.372   9.861  0.4092  0.0566 -0.4265
  173SOPE   H7R19621   2.377   0.480   9.852  2.6101  0.7905  2.0870
  173SOPE   H7S19622   2.506   0.350   9.878 -0.0404 -1.0783  1.2014
  173SOPE   C2819623   2.359   0.304   9.730  0.9169 -0.2225  0.0589
  173SOPE   H8R19624   2.339   0.196   9.748 -1.9185  0.0913 -0.7384
  173SOPE   H8S19625   2.270   0.355   9.689  1.8018  0.1066 -1.5634
  173SOPE   C2919626   2.472   0.327   9.632  0.3898  0.4634  0.0389
  173SOPE   H9119627   2.568   0.362   9.671  1.1464 -0.2044 -1.1728
  173SOPE  C21019628   2.460   0.348   9.496  0.9285  0.3925  0.0167
  173SOPE  H10119629   2.549   0.370   9.436  3.0147  0.6391  2.9631
  173SOPE  C21119630   2.322   0.329   9.425 -0.1177  0.4993 -0.2030
  173SOPE  H11R19631   2.260   0.420   9.442 -1.8421 -0.7640  0.6470
  173SOPE  H11S19632   2.261   0.242   9.460  1.9424 -1.6610 -1.6347
  173SOPE  C21219633   2.347   0.320   9.270  0.0912 -0.6415 -0.2859
  173SOPE  H12R19634   2.376   0.424   9.244  1.9852 -0.7735  1.0773
  173SOPE  H12S19635   2.244   0.303   9.232 -0.5995  1.5854  0.4578
  173SOPE  C21319636   2.437   0.207   9.210 -0.0431  0.2550 -0.1324
  173SOPE  H13R19637   2.410   0.118   9.271  0.6790 -0.7977 -1.3109
  173SOPE  H13S19638   2.545   0.230   9.225 -0.0775 -0.8371  2.4118
  173SOPE  C21419639   2.401   0.183   9.060 -0.3139 -0.2655  0.1457
  173SOPE  H14R19640   2.400   0.284   9.014  1.3541 -0.6788 -0.8547
  173SOPE  H14S19641   2.296   0.144   9.061  0.2071 -1.7278  1.3719
  173SOPE  C21519642   2.489   0.077   8.987 -0.0730 -0.4375 -0.7711
  173SOPE  H15R19643   2.450  -0.027   8.994  0.6478 -0.6117  1.2634
  173SOPE  H15S19644   2.587   0.066   9.037  0.0017 -2.2283 -1.2652
  173SOPE  C21619645   2.507   0.087   8.832  0.0758  0.1312 -0.2505
  173SOPE  H16R19646   2.531   0.194   8.817 -1.1168  0.4239 -0.1594
  173SOPE  H16S19647   2.411   0.075   8.777 -0.8161  3.5314  0.3759
  173SOPE  C21719648   2.613  -0.007   8.783 -0.6925 -0.0755 -0.5491
  173SOPE  H17R19649   2.594  -0.107   8.827 -0.6749  0.7309  1.4302
  173SOPE  H17S19650   2.709   0.017   8.835 -0.6022 -0.0938 -0.7083
  173SOPE  C21819651   2.617  -0.019   8.636  0.0470 -0.5395 -0.3147
  173SOPE  H18R19652   2.523  -0.066   8.601 -1.9163  1.2935  2.0876
  173SOPE  H18S19653   2.695  -0.089   8.599 -1.7786 -3.6258  1.2783
  173SOPE  H18T19654   2.633   0.082   8.593  1.8393 -0.0784  1.2733
  173SOPE   C3319655   2.614   0.782  10.309 -0.1455  0.4528  0.4989
  173SOPE   H3X19656   2.670   0.846  10.380  1.3181 -0.3912  0.1536
  173SOPE   H3Y19657   2.525   0.844  10.287  0.5108  1.2830  0.1250
  173SOPE   C3419658   2.701   0.782  10.183 -0.3175 -0.3445  0.2131
  173SOPE   H4X19659   2.807   0.757  10.205 -0.2467 -0.9557 -0.7774
  173SOPE   H4Y19660   2.705   0.885  10.142  0.2839 -0.4778 -0.0771
  173SOPE   C3519661   2.656   0.698  10.054  0.1587 -0.3500 -0.5826
  173SOPE   H5X19662   2.546   0.706  10.046  0.0680 -2.0288 -1.4783
  173SOPE   H5Y19663   2.674   0.591  10.075  1.0364 -0.9514 -3.8808
  173SOPE   C3619664   2.719   0.743   9.922 -0.3380 -0.0089  0.5756
  173SOPE   H6X19665   2.830   0.741   9.921 -0.2977  0.5731 -1.5854
  173SOPE   H6Y19666   2.687   0.844   9.888 -0.5125 -1.1588 -3.1382
  173SOPE   C3719667   2.669   0.660   9.808  0.6949 -0.0974 -0.1648
  173SOPE   H7X19668   2.559   0.676   9.808  0.7011  0.0378 -1.0968
  173SOPE   H7Y19669   2.691   0.552   9.822 -2.6239 -0.6412  1.9045
  173SOPE   C3819670   2.724   0.709   9.670 -0.6402 -0.4927 -0.4990
  173SOPE   H8X19671   2.829   0.673   9.671 -0.7087 -0.8300  1.8664
  173SOPE   H8Y19672   2.730   0.820   9.669  0.2710 -0.4831  1.3474
  173SOPE   C3919673   2.646   0.658   9.553  0.2231 -0.2597  0.2977
  173SOPE   H9X19674   2.552   0.715   9.540  1.7827  1.9448 -2.1120
  173SOPE   H9Y19675   2.629   0.549   9.568 -1.0055  0.2015  2.8283
  173SOPE  C31019676   2.724   0.667   9.425 -0.3438 -0.6159  0.0742
  173SOPE  H10X19677   2.815   0.603   9.427  1.1936  1.4213 -1.1543
  173SOPE  H10Y19678   2.760   0.771   9.410  0.2316 -0.8599 -0.2866
  173SOPE  C31119679   2.654   0.628   9.298  1.1432  0.2723 -0.3890
  173SOPE  H11X19680   2.553   0.669   9.281  0.3039 -1.1673  0.8779
  173SOPE  H11Y19681   2.622   0.525   9.325  1.1590  0.1924 -0.6741
  173SOPE  C31219682   2.723   0.622   9.165 -0.5890 -0.1793 -0.1011
  173SOPE  H12X19683   2.826   0.584   9.180 -0.7996 -2.2915 -3.0328
  173SOPE  H12Y19684   2.734   0.727   9.130 -2.5380 -0.6618 -2.4950
  173SOPE  C31319685   2.668   0.529   9.056 -0.3615 -0.4679 -0.7153
  173SOPE  H13X19686   2.659   0.420   9.077 -2.5092 -0.3339 -0.6673
  173SOPE  H13Y19687   2.739   0.529   8.971 -0.2885 -1.5859 -0.6655
  173SOPE  C31419688   2.541   0.574   8.999 -0.5677  0.3664 -0.6015
  173SOPE  H14X19689   2.524   0.683   9.017 -1.3204  0.1920 -0.1922
  173SOPE  H14Y19690   2.449   0.523   9.036 -1.2116 -0.5855 -3.2700
  173SOPE  C31519691   2.535   0.557   8.850 -0.2162  0.7042  0.6025
  173SOPE  H15X19692   2.434   0.554   8.802  0.3307 -0.4101 -0.5515
  173SOPE  H15Y19693   2.592   0.468   8.817  0.6491  2.0917 -1.9117
  173SOPE  C31619694   2.608   0.671   8.777  0.7116 -0.2474  0.2813
  173SOPE  H16X19695   2.715   0.677   8.806  1.0250 -0.2637 -0.8192
  173SOPE  H16Y19696   2.571   0.769   8.815  0.8258 -0.1099  0.0394
  173SOPE  C31719697   2.591   0.668   8.629 -0.1441  0.4358  0.5667
  173SOPE  H17X19698   2.487   0.669   8.590 -0.2354 -0.3877  0.7514
  173SOPE  H17Y19699   2.631   0.571   8.592 -0.7862  0.0807  0.7749
  173SOPE  C31819700   2.667   0.779   8.572 -0.2600 -0.7532  0.6839
  173SOPE  H18X19701   2.774   0.778   8.601 -0.0124  0.2176 -0.1364
  173SOPE  H18Y19702   2.614   0.871   8.605 -1.0816 -0.3900 -1.4606
  173SOPE  H18Z19703   2.655   0.764   8.462  0.3540 -0.5802  0.5896
  174SOPE     N19704   2.323   6.367  10.739 -0.5129  0.3214  0.0703
  174SOPE   HN119705   2.403   6.432  10.751  0.3743 -0.3262 -1.9110
  174SOPE   HN219706   2.249   6.391  10.807 -1.2931 -1.9908  0.1147
  174SOPE   HN319707   2.376   6.279  10.758  2.6070  2.2183  0.8563
  174SOPE   C1219708   2.263   6.372  10.600  0.4974  0.1867  0.4145
  174SOPE  H12A19709   2.340   6.344  10.525 -1.8129 -2.4091 -1.1864
  174SOPE  H12B19710   2.226   6.475  10.584  2.2730  0.6016 -1.3622
  174SOPE   C1119711   2.155   6.267  10.578 -0.1421 -0.5618 -0.1796
  174SOPE  H11A19712   2.199   6.165  10.587 -0.5013 -0.5833  1.9197
  174SOPE  H11B19713   2.132   6.272  10.469  1.7997 -2.3229 -0.7328
  174SOPE     P19714   1.932   6.203  10.701  0.0805 -0.0382 -0.3143
  174SOPE   O1319715   1.845   6.270  10.799 -0.5806  0.0864  0.2871
  174SOPE   O1419716   1.994   6.073  10.745  0.2201 -0.2274 -0.3822
  174SOPE   O1219717   2.045   6.296  10.655 -0.1907 -0.1090 -0.4703
  174SOPE   O1119718   1.843   6.167  10.575 -0.7470  0.7390  0.6073
  174SOPE    C119719   1.789   6.277  10.499  0.2590  0.1845 -0.8615
  174SOPE    HA19720   1.866   6.344  10.456  0.3476  1.7557  1.5140
  174SOPE    HB19721   1.732   6.349  10.563 -0.6302  0.3888 -1.8589
  174SOPE    C219722   1.710   6.218  10.381 -0.2494  0.2190 -0.1022
  174SOPE    HS19723   1.628   6.156  10.422  2.3996 -2.7274  1.0768
  174SOPE   O2119724   1.792   6.126  10.301  0.2768  0.1469  0.4155
  174SOPE   C2119725   1.722   6.027  10.243 -0.7781  0.1721  0.1995
  174SOPE   O2219726   1.602   6.016  10.246 -0.7292 -0.0057 -0.1278
  174SOPE   C2219727   1.822   5.925  10.194 -0.2868 -0.9418 -0.6027
  174SOPE   H2R19728   1.837   5.854  10.279 -0.4965  0.3633  0.5692
  174SOPE   H2S19729   1.927   5.960  10.186 -0.3802 -1.0860 -3.2809
  174SOPE    C319730   1.652   6.335  10.297 -0.8839 -0.0407 -0.3231
  174SOPE    HX19731   1.595   6.393  10.372 -1.7647 -0.0679 -0.9573
  174SOPE    HY19732   1.580   6.293  10.223  0.1252 -0.0055 -1.3663
  174SOPE   O3119733   1.760   6.407  10.236  0.1795 -0.1016 -0.2614
  174SOPE   C3119734   1.774   6.361  10.110 -0.7939  0.1006 -0.4349
  174SOPE   O3219735   1.707   6.280  10.046 -0.0533  0.3250 -0.2455
  174SOPE   C3219736   1.892   6.442  10.049 -0.2826  0.3919 -0.6015
  174SOPE   H2X19737   1.972   6.436  10.126  0.1155 -2.6448 -1.1264
  174SOPE   H2Y19738   1.863   6.548  10.034 -1.4454 -0.1839 -2.7879
  174SOPE   C2319739   1.788   5.853  10.062 -0.0891  0.1570  0.2385
  174SOPE   H3R19740   1.687   5.808  10.068 -1.4329  2.9218 -0.2038
  174SOPE   H3S19741   1.866   5.775  10.052 -0.6644 -0.4662  0.5208
  174SOPE   C2419742   1.798   5.946   9.942  0.3487 -0.1507  0.0939
  174SOPE   H4R19743   1.769   6.048   9.975 -0.4107 -0.7026  1.1989
  174SOPE   H4S19744   1.903   5.960   9.908 -0.1499  0.6232 -1.2319
  174SOPE   C2519745   1.705   5.887   9.825 -0.2461 -0.7116 -0.5661
  174SOPE   H5R19746   1.718   5.777   9.814 -0.2705 -0.7557 -0.1787
  174SOPE   H5S19747   1.603   5.902   9.867  0.5284  2.8465  0.3848
  174SOPE   C2619748   1.717   5.951   9.683  0.7972 -0.1589  0.3813
  174SOPE   H6R19749   1.688   6.058   9.688 -3.4898 -1.1883  3.1394
  174SOPE   H6S19750   1.824   5.958   9.654  0.3764  0.1833 -1.1840
  174SOPE   C2719751   1.651   5.864   9.569 -0.5524 -0.1210  0.2355
  174SOPE   H7R19752   1.670   5.755   9.583 -1.6177 -0.3188  0.2443
  174SOPE   H7S19753   1.541   5.862   9.588 -0.7932 -4.0251 -0.5759
  174SOPE   C2819754   1.677   5.907   9.422 -0.1594 -0.0199  0.4238
  174SOPE   H8R19755   1.781   5.873   9.399 -0.9977 -1.6035 -1.2991
  174SOPE   H8S19756   1.601   5.851   9.364 -1.6656  0.7802  1.5699
  174SOPE   C2919757   1.655   6.053   9.401  0.5275  0.0017  0.0498
  174SOPE   H9119758   1.710   6.121   9.468 -1.4320  1.8409 -0.1125
  174SOPE  C21019759   1.575   6.108   9.306  0.5597  0.2725  0.2786
  174SOPE  H10119760   1.561   6.217   9.305 -0.0634  0.1953 -0.2722
  174SOPE  C21119761   1.496   6.034   9.194 -0.2690  0.0240  0.2445
  174SOPE  H11R19762   1.536   5.932   9.174 -0.3322  0.2694 -1.1960
  174SOPE  H11S19763   1.493   6.082   9.094  0.0107  2.2368  1.2327
  174SOPE  C21219764   1.359   6.004   9.244  0.2751 -0.3688 -0.5045
  174SOPE  H12R19765   1.300   6.097   9.261  0.9835  0.2540 -1.3637
  174SOPE  H12S19766   1.365   5.950   9.341 -0.0454 -0.2304 -0.4044
  174SOPE  C21319767   1.281   5.916   9.143  0.4747 -0.7377  0.9215
  174SOPE  H13R19768   1.191   5.875   9.194 -1.7459 -2.1288 -3.6523
  174SOPE  H13S19769   1.351   5.835   9.115  0.1572 -1.4906  2.1850
  174SOPE  C21419770   1.230   5.992   9.014 -0.8058  0.0775 -0.7074
  174SOPE  H14R19771   1.320   6.020   8.956 -2.2150  0.8622 -2.6409
  174SOPE  H14S19772   1.171   6.082   9.041 -1.4055 -0.8361  1.2141
  174SOPE  C21519773   1.154   5.893   8.931 -0.4708  0.0110  1.3531
  174SOPE  H15R19774   1.051   5.874   8.968 -0.5735 -1.7900  0.2573
  174SOPE  H15S19775   1.206   5.795   8.932 -1.0562 -0.3059  2.2888
  174SOPE  C21619776   1.145   5.929   8.776 -1.1527 -0.1682 -0.4983
  174SOPE  H16R19777   1.249   5.922   8.737 -0.4348  1.6251  0.8999
  174SOPE  H16S19778   1.101   6.029   8.759  0.1029  0.6783  0.9020
  174SOPE  C21719779   1.059   5.829   8.695  0.5859 -0.3272 -0.2687
  174SOPE  H17R19780   1.049   5.866   8.590  1.4282  3.4237  0.8466
  174SOPE  H17S19781   0.958   5.828   8.740  0.9478  1.8705  0.7170
  174SOPE  C21819782   1.097   5.677   8.694  0.4225 -0.0560 -0.6352
  174SOPE  H18R19783   1.197   5.681   8.645  0.1565 -0.7126 -1.2497
  174SOPE  H18S19784   1.029   5.609   8.640 -0.0622 -0.5556  0.5841
  174SOPE  H18T19785   1.108   5.637   8.797 -1.5275  0.7228 -0.0775
  174SOPE   C3319786   1.935   6.388   9.913  0.5603 -0.0029  0.2771
  174SOPE   H3X19787   1.931   6.279   9.896  3.6816 -0.2739  0.6706
  174SOPE   H3Y19788   2.028   6.434   9.873 -0.1657 -0.7442 -2.4967
  174SOPE   C3419789   1.844   6.452   9.799  0.3037 -0.3623 -0.1450
  174SOPE   H4X19790   1.866   6.561   9.795 -0.0774 -0.3231 -2.4363
  174SOPE   H4Y19791   1.740   6.441   9.836 -0.0958 -0.6756 -1.3340
  174SOPE   C3519792   1.857   6.388   9.661  0.7748 -0.8619  0.1728
  174SOPE   H5X19793   1.845   6.278   9.663 -3.2632 -0.5870  0.9318
  174SOPE   H5Y19794   1.953   6.414   9.611 -0.5444  2.2659 -0.9982
  174SOPE   C3619795   1.754   6.449   9.569 -1.0184  0.1791 -0.0719
  174SOPE   H6X19796   1.767   6.557   9.590 -2.2803  0.0396  1.6299
  174SOPE   H6Y19797   1.651   6.417   9.592 -0.2558 -2.7959 -0.3822
  174SOPE   C3719798   1.786   6.424   9.411  0.1015  0.1293  0.6613
  174SOPE   H7X19799   1.792   6.313   9.399  0.6632  0.1122  1.0727
  174SOPE   H7Y19800   1.883   6.477   9.398  1.6053 -2.6875 -0.6660
  174SOPE   C3819801   1.673   6.479   9.317  0.2013  0.2536  0.0888
  174SOPE   H8X19802   1.665   6.589   9.322 -1.6633  0.1990 -0.8849
  174SOPE   H8Y19803   1.579   6.430   9.353 -0.8321  1.1356 -1.3474
  174SOPE   C3919804   1.702   6.443   9.174 -0.3879 -0.0403  0.9758
  174SOPE   H9X19805   1.703   6.332   9.164  0.9557  0.0734 -0.6961
  174SOPE   H9Y19806   1.802   6.479   9.141 -1.2347 -1.5063 -4.1419
  174SOPE  C31019807   1.595   6.495   9.079  0.0430  0.1332  0.4570
  174SOPE  H10X19808   1.577   6.604   9.092 -0.7512  0.1505 -0.6216
  174SOPE  H10Y19809   1.503   6.437   9.104 -0.0388 -1.0975 -2.3595
  174SOPE  C31119810   1.615   6.467   8.926 -0.8514  0.4248  0.4689
  174SOPE  H11X19811   1.633   6.359   8.907 -0.8753  0.3720  0.7443
  174SOPE  H11Y19812   1.709   6.516   8.892 -0.7638 -0.6018 -0.8617
  174SOPE  C31219813   1.513   6.516   8.823  0.2872  0.4709  0.3068
  174SOPE  H12X19814   1.477   6.617   8.855 -0.7663  0.1500  0.1680
  174SOPE  H12Y19815   1.418   6.459   8.830  1.0788 -0.7039  2.3951
  174SOPE  C31319816   1.571   6.511   8.680  0.7768  0.2587  0.6050
  174SOPE  H13X19817   1.579   6.402   8.657 -2.2751  0.3817 -1.5915
  174SOPE  H13Y19818   1.668   6.564   8.668  0.4953  0.5975 -0.2403
  174SOPE  C31419819   1.477   6.570   8.574 -0.1505  0.2629 -0.0167
  174SOPE  H14X19820   1.466   6.676   8.603 -1.8113  1.0488 -3.0432
  174SOPE  H14Y19821   1.377   6.520   8.570  0.0434 -0.1589  0.3219
  174SOPE  C31519822   1.538   6.573   8.434 -0.0122 -0.4962 -0.0240
  174SOPE  H15X19823   1.641   6.616   8.434 -0.1095 -0.2348 -1.1345
  174SOPE  H15Y19824   1.473   6.640   8.374  1.0588  2.6175  2.0460
  174SOPE  C31619825   1.525   6.430   8.368  0.5016  0.1310  0.2888
  174SOPE  H16X19826   1.422   6.389   8.363  0.3015  0.5504  0.7929
  174SOPE  H16Y19827   1.591   6.361   8.425  0.5364 -0.6973 -0.7355
  174SOPE  C31719828   1.583   6.432   8.229  0.6230 -0.6046 -0.2938
  174SOPE  H17X19829   1.690   6.462   8.222  0.6622 -0.5881  0.3117
  174SOPE  H17Y19830   1.520   6.504   8.173  0.5170 -1.6602 -1.5632
  174SOPE  C31819831   1.565   6.301   8.152 -0.2161  0.2669  0.4362
  174SOPE  H18X19832   1.459   6.274   8.131  0.1558  0.6597 -2.2402
  174SOPE  H18Y19833   1.618   6.211   8.191  1.0286  0.3208 -1.0373
  174SOPE  H18Z19834   1.612   6.301   8.052 -0.6111 -1.6101  0.2218
  175SOPE     N19835   4.112   1.572  10.808  0.3897 -0.4196 -0.0007
  175SOPE   HN119836   4.117   1.470  10.787 -0.1023 -0.1101 -1.7180
  175SOPE   HN219837   4.041   1.585  10.883  0.9123  2.5596  0.0949
  175SOPE   HN319838   4.077   1.624  10.726 -0.6607 -0.6876  0.2606
  175SOPE   C1219839   4.235   1.623  10.864  0.6527 -0.2622 -0.2574
  175SOPE  H12A19840   4.322   1.569  10.820  0.7109  1.1372 -1.9652
  175SOPE  H12B19841   4.231   1.591  10.970 -2.6508  0.6020 -0.0234
  175SOPE   C1119842   4.243   1.774  10.834 -0.1084 -0.0352  0.5156
  175SOPE  H11A19843   4.329   1.814  10.893 -1.1885 -1.0682  2.9190
  175SOPE  H11B19844   4.160   1.832  10.880 -0.5161  0.7024 -1.0577
  175SOPE     P19845   4.264   1.955  10.644  0.7232 -0.0559  0.3515
  175SOPE   O1319846   4.355   1.977  10.530  0.0410  0.0634  0.1148
  175SOPE   O1419847   4.276   2.046  10.757 -0.2008 -0.4018  0.0989
  175SOPE   O1219848   4.268   1.805  10.692 -0.6496 -0.2718 -0.1003
  175SOPE   O1119849   4.111   1.950  10.595 -0.5356  0.4626 -0.3538
  175SOPE    C119850   4.038   2.057  10.530 -0.4744 -0.4865 -0.0135
  175SOPE    HA19851   4.096   2.151  10.521  0.4931 -1.1826 -1.4793
  175SOPE    HB19852   3.941   2.069  10.583  1.4362  0.0615  3.6571
  175SOPE    C219853   4.010   2.029  10.378  0.0992 -0.0650 -0.2795
  175SOPE    HS19854   3.948   1.937  10.375 -1.7932  1.1544 -0.1560
  175SOPE   O2119855   4.128   2.023  10.298  0.7691 -0.2497 -0.3471
  175SOPE   C2119856   4.183   1.904  10.287 -0.4666 -0.7505  1.0409
  175SOPE   O2219857   4.135   1.804  10.325  0.5134  0.2301  0.5614
  175SOPE   C2219858   4.313   1.918  10.210 -0.1905 -0.0589 -0.2163
  175SOPE   H2R19859   4.378   1.861  10.280 -0.8326  0.6315  0.9921
  175SOPE   H2S19860   4.346   2.024  10.201  0.4650 -0.0236  2.0320
  175SOPE    C319861   3.933   2.152  10.312  0.6443  0.7660 -0.0032
  175SOPE    HX19862   3.997   2.237  10.281 -0.1736  0.5507 -2.5110
  175SOPE    HY19863   3.868   2.194  10.392  0.6147 -2.2050  1.6674
  175SOPE   O3119864   3.852   2.105  10.201 -0.7893 -0.5979 -0.0146
  175SOPE   C3119865   3.747   2.037  10.227  0.1414 -0.2545 -0.2271
  175SOPE   O3219866   3.715   1.977  10.332 -0.2022  0.3209  0.6421
  175SOPE   C3219867   3.655   2.036  10.108  0.6079 -0.1728  0.0851
  175SOPE   H2X19868   3.724   2.032  10.022  0.1893 -0.8715 -0.2269
  175SOPE   H2Y19869   3.585   2.123  10.111 -1.7966 -1.9779 -0.7657
  175SOPE   C2319870   4.313   1.855  10.067 -0.2666  0.2720  0.2152
  175SOPE   H3R19871   4.213   1.830  10.027 -1.5321  2.0295  2.0547
  175SOPE   H3S19872   4.356   1.754  10.081 -1.0105 -0.1152 -0.2268
  175SOPE   C2419873   4.387   1.947   9.965  0.8810 -0.3579  0.6975
  175SOPE   H4R19874   4.354   2.052   9.978  2.0285 -0.0920  1.5517
  175SOPE   H4S19875   4.495   1.935   9.987  0.8265  0.8858  1.7155
  175SOPE   C2519876   4.354   1.917   9.820 -0.5408  0.5250 -0.4744
  175SOPE   H5R19877   4.410   1.824   9.795  1.8285  1.2951  1.4977
  175SOPE   H5S19878   4.245   1.898   9.809 -0.5145  0.7520 -1.1636
  175SOPE   C2619879   4.383   2.033   9.722  0.0375  0.4057  0.5477
  175SOPE   H6R19880   4.375   1.998   9.617  2.9560 -0.5393  0.5604
  175SOPE   H6S19881   4.303   2.108   9.740  0.2331  0.4919  1.0708
  175SOPE   C2719882   4.519   2.099   9.748  0.2134 -0.0453 -1.0884
  175SOPE   H7R19883   4.520   2.147   9.848  3.1877 -0.9429 -0.6163
  175SOPE   H7S19884   4.601   2.024   9.743 -2.1516 -2.8809 -0.3392
  175SOPE   C2819885   4.555   2.207   9.646 -0.1515 -0.7869 -0.8796
  175SOPE   H8R19886   4.653   2.244   9.682 -0.2576 -0.9210 -0.4402
  175SOPE   H8S19887   4.568   2.167   9.543 -2.1181  2.6692 -2.6588
  175SOPE   C2919888   4.466   2.331   9.651  0.7239 -0.1916 -0.0687
  175SOPE   H9119889   4.476   2.377   9.751  2.3793 -1.0283  0.1920
  175SOPE  C21019890   4.379   2.383   9.561 -0.5066 -0.1939  0.0534
  175SOPE  H10119891   4.329   2.476   9.592  0.1058 -0.2040  1.0906
  175SOPE  C21119892   4.342   2.332   9.423 -0.2073 -0.1835  0.3426
  175SOPE  H11R19893   4.433   2.286   9.379  0.6385  0.5738  1.2389
  175SOPE  H11S19894   4.316   2.417   9.356  0.7560 -0.9289 -1.0235
  175SOPE  C21219895   4.241   2.222   9.421  0.1391 -0.0916 -0.3832
  175SOPE  H12R19896   4.276   2.139   9.486  0.6933  0.9689  0.7108
  175SOPE  H12S19897   4.246   2.182   9.318 -0.0177 -1.3746  0.0824
  175SOPE  C21319898   4.097   2.262   9.469  0.1392 -0.7123  0.8557
  175SOPE  H13R19899   4.107   2.341   9.546  1.4786  0.1532 -0.1654
  175SOPE  H13S19900   4.053   2.174   9.519 -1.5757 -0.1389  0.4534
  175SOPE  C21419901   3.992   2.303   9.362  1.1124 -0.3188  0.1891
  175SOPE  H14R19902   3.897   2.328   9.415  1.7867 -0.2877  1.4349
  175SOPE  H14S19903   3.975   2.214   9.297  0.0214  0.8815 -1.2347
  175SOPE  C21519904   4.030   2.421   9.263 -0.6289  0.3577 -0.0573
  175SOPE  H15R19905   4.129   2.401   9.218  0.3324  1.2573  1.5799
  175SOPE  H15S19906   4.041   2.510   9.329  1.6750  1.3850 -1.7154
  175SOPE  C21619907   3.929   2.436   9.148 -0.5865 -0.3452  0.7534
  175SOPE  H16R19908   3.835   2.484   9.182 -0.2799  2.2183 -1.6319
  175SOPE  H16S19909   3.901   2.339   9.101 -3.2234  1.9515 -2.9505
  175SOPE  C21719910   3.995   2.522   9.034 -0.2882 -0.5573  0.2321
  175SOPE  H17R19911   3.933   2.527   8.941  1.8009  1.5367 -1.1823
  175SOPE  H17S19912   4.085   2.464   9.007 -1.7761 -3.2698  0.6831
  175SOPE  C21819913   4.018   2.669   9.082 -1.0456  0.4480  0.2954
  175SOPE  H18R19914   4.074   2.673   9.178 -1.9388 -0.9483  0.9024
  175SOPE  H18S19915   3.924   2.719   9.113 -0.5097  0.7496  1.4930
  175SOPE  H18T19916   4.065   2.740   9.010 -1.1730 -0.0695 -0.3011
  175SOPE   C3319917   3.555   1.917  10.113 -0.3166 -0.1671  0.1708
  175SOPE   H3X19918   3.483   1.935  10.195 -1.4542 -0.6162 -0.7068
  175SOPE   H3Y19919   3.612   1.824  10.136  0.4740  1.1136  4.2205
  175SOPE   C3419920   3.496   1.892   9.974 -0.0831  0.1208 -0.4323
  175SOPE   H4X19921   3.585   1.863   9.913  0.0829 -2.1728  0.7645
  175SOPE   H4Y19922   3.448   1.985   9.938  1.0379  1.9655  2.4929
  175SOPE   C3519923   3.401   1.779   9.973  0.9775  0.4521  0.0647
  175SOPE   H5X19924   3.316   1.800  10.041 -0.2011  3.2526 -2.0589
  175SOPE   H5Y19925   3.437   1.680  10.006  1.2237  0.8375  0.9786
  175SOPE   C3619926   3.350   1.746   9.829 -0.2013 -0.3017  0.4985
  175SOPE   H6X19927   3.308   1.835   9.777 -0.5547 -1.4317 -1.2372
  175SOPE   H6Y19928   3.273   1.666   9.823  0.5370 -0.9583 -0.5017
  175SOPE   C3719929   3.465   1.690   9.733  0.4926  0.1229 -0.4267
  175SOPE   H7X19930   3.523   1.605   9.778  0.9406  1.3026  1.3345
  175SOPE   H7Y19931   3.543   1.768   9.720  1.2444 -0.5817 -0.2401
  175SOPE   C3819932   3.427   1.654   9.587 -0.8688 -0.0695 -0.4453
  175SOPE   H8X19933   3.406   1.751   9.537  2.4122  1.3008  0.5154
  175SOPE   H8Y19934   3.329   1.603   9.589 -0.2790 -1.2863 -1.1306
  175SOPE   C3919935   3.548   1.585   9.507  0.3938 -0.2283 -0.1922
  175SOPE   H9X19936   3.533   1.476   9.495  0.7167 -0.2483 -0.4199
  175SOPE   H9Y19937   3.650   1.594   9.552  1.4129 -2.4235 -1.8587
  175SOPE  C31019938   3.550   1.657   9.370 -0.3666 -0.1148 -0.4077
  175SOPE  H10X19939   3.560   1.767   9.380 -1.9172  0.0189 -0.1267
  175SOPE  H10Y19940   3.454   1.627   9.323 -1.0475  1.0044  0.2427
  175SOPE  C31119941   3.667   1.592   9.298 -0.3871 -0.4654 -0.6529
  175SOPE  H11X19942   3.653   1.482   9.288  2.5183 -0.7794 -2.1885
  175SOPE  H11Y19943   3.760   1.609   9.357 -1.1029 -1.1147  0.7128
  175SOPE  C31219944   3.706   1.648   9.158 -0.7214 -0.8923  0.2797
  175SOPE  H12X19945   3.781   1.579   9.114 -3.3393 -1.5392 -3.7473
  175SOPE  H12Y19946   3.748   1.744   9.193 -1.0553 -1.0620  1.1700
  175SOPE  C31319947   3.593   1.665   9.060  0.3367  0.3729 -0.4789
  175SOPE  H13X19948   3.503   1.713   9.104  0.8278  0.3208  0.6394
  175SOPE  H13Y19949   3.565   1.565   9.022  0.5159  0.1921 -0.1373
  175SOPE  C31419950   3.646   1.735   8.936  0.0322 -0.1766 -0.4988
  175SOPE  H14X19951   3.740   1.685   8.902  1.2367  1.9474 -0.4525
  175SOPE  H14Y19952   3.684   1.831   8.976  0.0638  0.2675 -1.5667
  175SOPE  C31519953   3.549   1.757   8.822  0.1932  0.1321 -0.5895
  175SOPE  H15X19954   3.580   1.846   8.762  1.0485  1.1141  1.2415
  175SOPE  H15Y19955   3.449   1.779   8.865 -0.0101 -0.7578 -0.6008
  175SOPE  C31619956   3.549   1.642   8.713 -0.7310 -1.0035  0.3014
  175SOPE  H16X19957   3.535   1.547   8.770 -0.2438 -1.6909 -0.6910
  175SOPE  H16Y19958   3.647   1.646   8.662  0.4786 -2.9964  2.2757
  175SOPE  C31719959   3.441   1.661   8.607  0.1928 -0.6054 -0.1042
  175SOPE  H17X19960   3.346   1.617   8.641  0.2120  0.3782  1.2921
  175SOPE  H17Y19961   3.464   1.600   8.516 -0.2683 -1.2580  0.2117
  175SOPE  C31819962   3.420   1.807   8.549 -0.0539  0.7061 -0.2754
  175SOPE  H18X19963   3.513   1.855   8.513  0.7557  0.0858  0.9510
  175SOPE  H18Y19964   3.372   1.868   8.628 -1.2087  0.6053 -0.8743
  175SOPE  H18Z19965   3.361   1.799   8.455 -2.2105 -0.1654  1.0744
  176SOPE     N19966   3.153   1.273  11.052 -0.0276 -1.0941 -0.2751
  176SOPE   HN119967   3.152   1.177  11.013 -1.9737 -0.9447 -0.7076
  176SOPE   HN219968   3.152   1.251  11.154  0.7303 -1.8990 -0.4325
  176SOPE   HN319969   3.061   1.315  11.026  0.8151  0.2297 -1.2281
  176SOPE   C1219970   3.276   1.355  11.006 -0.9355  0.1985 -0.2912
  176SOPE  H12A19971   3.369   1.294  11.007  2.9879  5.5171 -0.6381
  176SOPE  H12B19972   3.296   1.434  11.081 -2.0684 -1.3161  1.7256
  176SOPE   C1119973   3.268   1.416  10.872 -0.3738 -0.1767 -0.0244
  176SOPE  H11A19974   3.172   1.471  10.858  1.0020  2.6410  0.9889
  176SOPE  H11B19975   3.261   1.339  10.792 -1.0938 -1.2946  1.0923
  176SOPE     P19976   3.522   1.461  10.812  0.1477  0.4026  0.4119
  176SOPE   O1319977   3.569   1.342  10.887 -0.0923 -0.3534  0.2215
  176SOPE   O1419978   3.615   1.578  10.809 -0.0203 -0.5780  0.1762
  176SOPE   O1219979   3.373   1.503  10.846 -0.5124  0.2364 -0.3177
  176SOPE   O1119980   3.510   1.419  10.663  0.3246 -0.0879  0.3545
  176SOPE    C119981   3.427   1.493  10.572  0.6126  0.0341 -0.9586
  176SOPE    HA19982   3.433   1.603  10.583  0.7057 -0.0684  0.1741
  176SOPE    HB19983   3.320   1.463  10.579  1.2566 -2.1052  1.3881
  176SOPE    C219984   3.479   1.462  10.429  0.3004  0.3124  0.3888
  176SOPE    HS19985   3.449   1.360  10.395 -0.5976  0.7174 -0.0688
  176SOPE   O2119986   3.619   1.475  10.418  0.0454 -0.1736  0.0454
  176SOPE   C2119987   3.671   1.388  10.322 -0.4804 -0.4475 -0.5233
  176SOPE   O2219988   3.617   1.305  10.255 -0.6865  0.2623 -0.4344
  176SOPE   C2219989   3.823   1.422  10.292 -0.4582 -0.5577 -0.1762
  176SOPE   H2R19990   3.858   1.339  10.226  1.4194 -1.0078  1.2897
  176SOPE   H2S19991   3.874   1.398  10.387  0.6072 -0.2171 -0.6449
  176SOPE    C319992   3.424   1.566  10.333  0.4409  0.4116  0.0747
  176SOPE    HX19993   3.486   1.658  10.343  0.8420  0.1815 -0.2587
  176SOPE    HY19994   3.318   1.588  10.358  0.6208  0.6357  0.6575
  176SOPE   O3119995   3.436   1.527  10.195  0.3515 -0.2015 -0.6505
  176SOPE   C3119996   3.336   1.441  10.149  0.0942  0.4315  0.5772
  176SOPE   O3219997   3.238   1.416  10.215  0.4851  0.8627 -0.0537
  176SOPE   C3219998   3.363   1.393  10.007 -0.1524  0.3343  0.7106
  176SOPE   H2X19999   3.459   1.337  10.009  0.3334  1.1449  0.6136
  176SOPE   H2Y20000   3.392   1.482   9.947  2.3475 -1.3710 -0.7638
  176SOPE   C2320001   3.839   1.564  10.237 -0.2587  0.4382 -0.1877
  176SOPE   H3R20002   3.947   1.590  10.234 -0.3224  0.6839 -0.4064
  176SOPE   H3S20003   3.790   1.630  10.312 -0.2849 -0.7599  0.8765
  176SOPE   C2420004   3.778   1.574  10.101  0.0560  0.4734 -0.0227
  176SOPE   H4R20005   3.803   1.475  10.057  0.2960 -0.3716  1.9282
  176SOPE   H4S20006   3.668   1.583  10.106  0.0265 -0.4963  2.5511
  176SOPE   C2520007   3.862   1.672  10.018  0.4969 -0.3684  0.5792
  176SOPE   H5R20008   3.851   1.768  10.072  0.3977 -0.8135  1.3736
  176SOPE   H5S20009   3.965   1.633  10.028  0.7355 -0.0250 -0.4578
  176SOPE   C2620010   3.826   1.676   9.863 -0.1640  0.5136  0.3813
  176SOPE   H6R20011   3.834   1.567   9.842 -0.0027  0.5020  0.5000
  176SOPE   H6S20012   3.720   1.708   9.865 -0.5011 -0.4585 -0.8925
  176SOPE   C2720013   3.920   1.765   9.779  0.0441 -0.6408  0.2884
  176SOPE   H7R20014   3.918   1.861   9.834  1.1170 -0.1832 -0.4416
  176SOPE   H7S20015   4.025   1.731   9.788  0.8263  1.8031  1.1857
  176SOPE   C2820016   3.886   1.780   9.627 -0.0011  0.1079 -0.3987
  176SOPE   H8R20017   3.905   1.676   9.593 -3.5709 -0.9546  0.4941
  176SOPE   H8S20018   3.776   1.791   9.614 -0.0075  0.6835  0.0954
  176SOPE   C2920019   3.959   1.886   9.546 -0.3355  0.3763 -0.4096
  176SOPE   H9120020   3.950   1.981   9.601 -1.7158 -0.1750  0.3880
  176SOPE  C21020021   4.033   1.872   9.431  0.0306  0.1379  0.0428
  176SOPE  H10120022   4.077   1.965   9.392 -0.5679 -0.1122 -1.3123
  176SOPE  C21120023   4.058   1.747   9.351  0.5323 -0.5437 -0.2665
  176SOPE  H11R20024   3.959   1.711   9.316  0.4439  1.7752 -2.6772
  176SOPE  H11S20025   4.108   1.671   9.415 -1.4240 -1.7836 -0.1112
  176SOPE  C21220026   4.129   1.780   9.216  0.0146  0.6294 -0.7500
  176SOPE  H12R20027   4.157   1.679   9.180 -1.5882 -0.0590 -0.1513
  176SOPE  H12S20028   4.224   1.837   9.226 -0.0415  0.4811  0.9236
  176SOPE  C21320029   4.044   1.844   9.097  0.0102  0.6087 -0.5204
  176SOPE  H13R20030   4.036   1.954   9.103 -1.5694  0.4715  0.6940
  176SOPE  H13S20031   3.940   1.807   9.109 -0.5730  1.4687 -2.5458
  176SOPE  C21420032   4.102   1.809   8.959 -0.1136  0.0811 -0.6732
  176SOPE  H14R20033   4.086   1.700   8.944 -1.0227 -0.3991  2.8779
  176SOPE  H14S20034   4.209   1.839   8.953 -0.2610  0.6874 -0.3478
  176SOPE  C21520035   4.038   1.894   8.852  0.6704 -0.6953 -0.3697
  176SOPE  H15R20036   4.051   2.004   8.852 -1.5351 -0.3722  0.4563
  176SOPE  H15S20037   3.928   1.874   8.858  1.0296 -3.0144 -0.3431
  176SOPE  C21620038   4.073   1.847   8.708  0.5147  0.2619  0.2909
  176SOPE  H16R20039   4.068   1.737   8.691  1.1309  0.7837 -4.9662
  176SOPE  H16S20040   4.181   1.871   8.698  0.3976  0.4686 -0.5240
  176SOPE  C21720041   3.988   1.907   8.596  0.3748 -0.3688 -0.3451
  176SOPE  H17R20042   4.038   1.885   8.499 -3.6770  0.3973 -2.9066
  176SOPE  H17S20043   4.013   2.015   8.588  1.2623 -0.6355 -1.3546
  176SOPE  C21820044   3.839   1.868   8.596  0.6161 -0.4919  1.1126
  176SOPE  H18R20045   3.774   1.927   8.665 -0.3936  0.8598 -0.9090
  176SOPE  H18S20046   3.835   1.760   8.622  0.6284 -0.7708 -0.0234
  176SOPE  H18T20047   3.796   1.871   8.494  1.1190 -1.5418  0.8533
  176SOPE   C3320048   3.243   1.316   9.933  0.6463 -0.0657  0.7404
  176SOPE   H3X20049   3.145   1.348   9.974 -0.4633 -1.5524 -0.6219
  176SOPE   H3Y20050   3.239   1.209   9.962 -1.2443 -0.6054 -1.1871
  176SOPE   C3420051   3.241   1.335   9.784 -0.2584  0.3836 -0.7611
  176SOPE   H4X20052   3.248   1.441   9.753  0.3640  0.6002  0.0829
  176SOPE   H4Y20053   3.166   1.263   9.746  1.5397 -0.8549 -2.1275
  176SOPE   C3520054   3.369   1.269   9.713  1.0516  0.0435 -0.0100
  176SOPE   H5X20055   3.389   1.170   9.759  0.5564 -0.9531 -1.8283
  176SOPE   H5Y20056   3.458   1.326   9.748  1.7026  0.3453 -2.0243
  176SOPE   C3620057   3.343   1.264   9.566 -0.3861 -0.0595 -0.2894
  176SOPE   H6X20058   3.343   1.368   9.528 -1.7446 -0.4271 -1.3493
  176SOPE   H6Y20059   3.249   1.209   9.544 -0.4552  0.3100 -0.9508
  176SOPE   C3720060   3.461   1.197   9.496  0.1538 -1.1590  0.7100
  176SOPE   H7X20061   3.472   1.092   9.530 -1.9600 -1.9324 -0.7163
  176SOPE   H7Y20062   3.546   1.254   9.539  0.0196 -0.6610  0.3260
  176SOPE   C3820063   3.467   1.203   9.341  0.6549  0.1228 -0.0724
  176SOPE   H8X20064   3.414   1.297   9.313 -1.6190 -0.4283  2.1021
  176SOPE   H8Y20065   3.405   1.120   9.300  1.8710 -0.7437 -0.2281
  176SOPE   C3920066   3.611   1.189   9.284 -0.3118  0.0476  0.4067
  176SOPE   H9X20067   3.647   1.085   9.275 -0.4965  0.1418 -2.6290
  176SOPE   H9Y20068   3.678   1.239   9.357  1.2405  0.5373 -1.2637
  176SOPE  C31020069   3.622   1.245   9.141  0.0934  0.5744  0.4053
  176SOPE  H10X20070   3.729   1.231   9.112 -0.3390 -0.4039 -0.8241
  176SOPE  H10Y20071   3.595   1.353   9.138  1.9115  1.0662  0.3934
  176SOPE  C31120072   3.536   1.174   9.032  0.3803 -0.6611  0.1876
  176SOPE  H11X20073   3.429   1.175   9.065  0.6600  0.9516  1.1443
  176SOPE  H11Y20074   3.559   1.066   9.032  0.5673 -0.6222  0.7420
  176SOPE  C31220075   3.562   1.252   8.896  0.5666  0.3008  0.3664
  176SOPE  H12X20076   3.664   1.222   8.866  0.6136 -0.7579  1.5230
  176SOPE  H12Y20077   3.557   1.360   8.922  0.2159 -0.1450  2.3216
  176SOPE  C31320078   3.454   1.226   8.791 -0.0675 -0.5704 -0.2559
  176SOPE  H13X20079   3.370   1.294   8.813  0.0089  0.1238 -1.9113
  176SOPE  H13Y20080   3.407   1.128   8.815  0.1811 -0.6224  0.0298
  176SOPE  C31420081   3.491   1.223   8.641 -0.5365 -0.6108  0.2700
  176SOPE  H14X20082   3.536   1.322   8.621 -3.0522  1.4889  3.8314
  176SOPE  H14Y20083   3.392   1.222   8.590 -0.5212 -0.1569  0.2296
  176SOPE  C31520084   3.574   1.104   8.592 -0.0174  0.3131 -0.0262
  176SOPE  H15X20085   3.545   1.010   8.643  4.3159 -1.3311 -0.1808
  176SOPE  H15Y20086   3.677   1.127   8.625 -0.5453 -0.3218  2.2022
  176SOPE  C31620087   3.558   1.070   8.441 -0.8575 -0.0385 -0.1772
  176SOPE  H16X20088   3.451   1.079   8.413 -0.3278  2.1140 -1.7781
  176SOPE  H16Y20089   3.585   0.962   8.437 -0.6079 -0.0507  1.2508
  176SOPE  C31720090   3.654   1.158   8.352  0.0769  0.3486  0.6649
  176SOPE  H17X20091   3.762   1.149   8.378  0.4120  0.4301 -0.6070
  176SOPE  H17Y20092   3.627   1.265   8.370 -1.1259  0.3338 -0.8354
  176SOPE  C31820093   3.635   1.115   8.205 -0.5304 -0.3177  0.4425
  176SOPE  H18X20094   3.538   1.151   8.164 -0.1737  3.8512  2.7664
  176SOPE  H18Y20095   3.649   1.007   8.182 -0.0624 -0.2166  0.2204
  176SOPE  H18Z20096   3.713   1.159   8.138  1.2040 -1.1553  1.8075
  177SOPE     N20097   4.232   5.804  10.881  0.2379 -0.0187 -0.2224
  177SOPE   HN120098   4.273   5.751  10.960 -0.4276  1.2506  1.0267
  177SOPE   HN220099   4.285   5.791  10.793 -0.7441  1.1920 -1.0237
  177SOPE   HN320100   4.244   5.902  10.916 -1.6576 -0.2663  1.2891
  177SOPE   C1220101   4.086   5.774  10.868 -0.4003 -0.4131 -0.6331
  177SOPE  H12A20102   4.036   5.825  10.953  1.2079  3.5463 -1.7927
  177SOPE  H12B20103   4.077   5.663  10.871  0.0927 -0.4453 -0.2700
  177SOPE   C1120104   4.020   5.817  10.741  0.2067  0.8336  0.4462
  177SOPE  H11A20105   4.017   5.732  10.670 -0.2916  0.3365  1.0410
  177SOPE  H11B20106   4.074   5.903  10.697  3.0731 -1.0901 -0.0194
  177SOPE     P20107   3.778   5.767  10.821  0.1733  0.1518  0.1598
  177SOPE   O1320108   3.766   5.771  10.967 -0.3213  0.3900  0.3449
  177SOPE   O1420109   3.805   5.628  10.770 -0.0624  0.0504  0.7868
  177SOPE   O1220110   3.889   5.864  10.766  1.1152 -0.3082 -0.0547
  177SOPE   O1120111   3.645   5.819  10.751 -0.2112 -0.0526 -0.1021
  177SOPE    C120112   3.603   5.951  10.715 -0.3016  0.4985  0.6863
  177SOPE    HA20113   3.680   6.028  10.741 -0.4380  0.8181  0.1600
  177SOPE    HB20114   3.512   5.984  10.768 -0.9835 -0.3350  0.0590
  177SOPE    C220115   3.590   5.965  10.566 -0.7629 -0.0324  0.5027
  177SOPE    HS20116   3.574   6.073  10.545  0.0850  0.0107  0.0573
  177SOPE   O2120117   3.481   5.878  10.523  0.0351  0.0292  0.2686
  177SOPE   C2120118   3.362   5.947  10.519  0.3621  0.5030 -0.4802
  177SOPE   O2220119   3.349   6.063  10.546 -0.1258 -0.0639  0.0884
  177SOPE   C2220120   3.247   5.841  10.490 -0.7512 -0.3775 -0.1391
  177SOPE   H2R20121   3.200   5.809  10.586  3.4187 -0.8623  1.9633
  177SOPE   H2S20122   3.291   5.747  10.451 -3.4895 -2.3231  1.0939
  177SOPE    C320123   3.716   5.926  10.489  1.0482 -0.5053 -0.9907
  177SOPE    HX20124   3.754   5.829  10.527 -1.6927 -0.7799  1.4158
  177SOPE    HY20125   3.797   5.998  10.513 -1.9630  2.3958  1.4562
  177SOPE   O3120126   3.703   5.933  10.349  0.4089  0.0065 -0.2992
  177SOPE   C3120127   3.677   5.809  10.288 -0.2131 -0.3494 -0.3070
  177SOPE   O3220128   3.697   5.703  10.346  0.2251  0.5056  0.6106
  177SOPE   C3220129   3.607   5.828  10.155 -0.1812 -0.8079 -0.4516
  177SOPE   H2X20130   3.612   5.936  10.128  3.4994 -1.0419 -1.1576
  177SOPE   H2Y20131   3.502   5.792  10.165 -0.5084 -0.2584 -1.6513
  177SOPE   C2320132   3.144   5.896  10.390  0.0252  0.6612 -0.1805
  177SOPE   H3R20133   3.111   5.996  10.425 -0.6509  0.5776 -0.5601
  177SOPE   H3S20134   3.060   5.823  10.398  0.7639 -0.1764  0.1739
  177SOPE   C2420135   3.207   5.920  10.256  0.2363 -0.3618  0.1696
  177SOPE   H4R20136   3.291   5.993  10.251  2.0509 -2.3829 -0.4379
  177SOPE   H4S20137   3.235   5.829  10.199 -1.5494 -0.3285 -0.8613
  177SOPE   C2520138   3.097   5.977  10.164 -0.4154 -0.4440  0.2909
  177SOPE   H5R20139   2.999   5.924  10.169  0.5655 -2.1976  3.2153
  177SOPE   H5S20140   3.079   6.080  10.204 -0.2770 -0.4725  0.4238
  177SOPE   C2620141   3.160   5.984  10.022  0.3758 -0.1936 -0.1826
  177SOPE   H6R20142   3.261   6.031  10.020  0.5303 -0.5362 -0.8050
  177SOPE   H6S20143   3.182   5.876  10.006 -0.1239 -0.4310  0.6743
  177SOPE   C2720144   3.060   6.053   9.917  0.0073  0.1694  0.4096
  177SOPE   H7R20145   2.955   6.031   9.947  0.0399 -0.8448 -0.1879
  177SOPE   H7S20146   3.074   6.162   9.898 -1.7222  0.5411  1.0322
  177SOPE   C2820147   3.065   6.004   9.768 -0.2899 -0.7542 -0.1968
  177SOPE   H8R20148   3.005   5.911   9.776 -2.3892  0.6444  2.0937
  177SOPE   H8S20149   3.020   6.075   9.696 -0.5843  0.5593  1.2216
  177SOPE   C2920150   3.194   5.981   9.705  0.0928  0.6731 -0.0002
  177SOPE   H9120151   3.282   6.016   9.761 -0.9645  2.1047  0.8324
  177SOPE  C21020152   3.209   5.919   9.589  0.4298 -0.5581 -0.1942
  177SOPE  H10120153   3.308   5.905   9.545 -0.1479 -2.5717 -1.0085
  177SOPE  C21120154   3.104   5.854   9.503  0.3082 -0.2271  0.0144
  177SOPE  H11R20155   3.002   5.859   9.547  0.7014 -2.4103  1.3471
  177SOPE  H11S20156   3.136   5.748   9.491 -0.5184 -0.6584  1.4836
  177SOPE  C21220157   3.096   5.916   9.361 -0.0159 -0.4876  0.6327
  177SOPE  H12R20158   3.082   6.026   9.368 -0.3922 -0.3426 -1.6195
  177SOPE  H12S20159   3.002   5.874   9.319 -0.2303  0.2600  0.3443
  177SOPE  C21320160   3.219   5.882   9.280 -0.2871  0.0077  0.5572
  177SOPE  H13R20161   3.255   5.785   9.319  0.7676  0.5354  0.9454
  177SOPE  H13S20162   3.293   5.962   9.304 -0.6459  1.3576 -2.4012
  177SOPE  C21420163   3.183   5.888   9.127 -0.2224 -0.2698  0.1162
  177SOPE  H14R20164   3.279   5.894   9.071 -1.4363  0.9336 -1.9473
  177SOPE  H14S20165   3.119   5.976   9.107  0.6437  0.6009  1.0538
  177SOPE  C21520166   3.107   5.759   9.080 -0.1210  0.3708 -0.7395
  177SOPE  H15R20167   3.009   5.755   9.132  0.9379  1.7013  1.5091
  177SOPE  H15S20168   3.167   5.672   9.115 -1.6754  1.0628  4.3906
  177SOPE  C21620169   3.068   5.764   8.932  0.2910  0.2632 -0.7891
  177SOPE  H16R20170   3.119   5.849   8.882  0.2308  0.4208 -0.5860
  177SOPE  H16S20171   2.959   5.783   8.924  0.1259  0.5542  1.4189
  177SOPE  C21720172   3.090   5.634   8.862  0.3464 -0.2991 -0.8994
  177SOPE  H17R20173   3.005   5.571   8.894  0.7480 -1.2614 -1.6844
  177SOPE  H17S20174   3.187   5.587   8.889  0.7379  0.5029 -0.8598
  177SOPE  C21820175   3.072   5.653   8.707 -0.3767  0.2715  0.6438
  177SOPE  H18R20176   2.963   5.661   8.688 -0.5090  1.6222  1.8534
  177SOPE  H18S20177   3.114   5.558   8.668  0.0052  0.9320 -0.5829
  177SOPE  H18T20178   3.126   5.741   8.668  2.3176 -0.9360  1.4291
  177SOPE   C3320179   3.680   5.748  10.045  1.2994 -0.8526  0.2609
  177SOPE   H3X20180   3.658   5.640  10.059 -4.0788  0.1926  1.9957
  177SOPE   H3Y20181   3.789   5.770  10.041  0.9331  1.0157 -0.5513
  177SOPE   C3420182   3.632   5.794   9.910  0.4620 -1.3895  0.4849
  177SOPE   H4X20183   3.660   5.901   9.893 -0.4974 -0.8000  2.3305
  177SOPE   H4Y20184   3.522   5.784   9.900  0.3335 -1.5128  1.8274
  177SOPE   C3520185   3.683   5.711   9.794  0.1888 -0.3994  0.0738
  177SOPE   H5X20186   3.661   5.608   9.831  0.5021  0.1234  1.8356
  177SOPE   H5Y20187   3.793   5.709   9.787  0.1214 -1.1159 -1.0169
  177SOPE   C3620188   3.614   5.741   9.658 -0.6328 -0.0436 -0.1091
  177SOPE   H6X20189   3.653   5.839   9.622  0.2421 -0.9056 -1.5712
  177SOPE   H6Y20190   3.503   5.739   9.666 -1.0048  0.0776 -3.6557
  177SOPE   C3720191   3.654   5.633   9.555  0.0688  0.6969  0.0156
  177SOPE   H7X20192   3.642   5.530   9.593  1.3038  0.0990 -1.1432
  177SOPE   H7Y20193   3.764   5.645   9.543  0.1568 -1.0899 -1.3374
  177SOPE   C3820194   3.579   5.663   9.420  0.3925 -0.8716 -0.0553
  177SOPE   H8X20195   3.469   5.671   9.432  0.3237 -1.0090 -0.5592
  177SOPE   H8Y20196   3.602   5.580   9.349 -0.4000 -1.6902  0.6251
  177SOPE   C3920197   3.629   5.792   9.350  0.2770  0.2494  0.3508
  177SOPE   H9X20198   3.738   5.779   9.333  0.6306  0.9903  1.8388
  177SOPE   H9Y20199   3.620   5.875   9.424 -1.8942  0.2813  0.1242
  177SOPE  C31020200   3.570   5.814   9.212 -0.1812 -0.3658  0.0725
  177SOPE  H10X20201   3.589   5.918   9.176  2.0723 -1.2663 -1.6569
  177SOPE  H10Y20202   3.463   5.800   9.234  0.5566 -1.8431  3.2326
  177SOPE  C31120203   3.623   5.727   9.104 -0.1630  0.3934 -0.3252
  177SOPE  H11X20204   3.667   5.640   9.157  0.4647  1.1093  0.3498
  177SOPE  H11Y20205   3.710   5.774   9.054  1.3862 -0.0099  1.8862
  177SOPE  C31220206   3.511   5.676   9.005  0.1375 -0.4623  0.1583
  177SOPE  H12X20207   3.445   5.756   8.965 -0.0360 -1.6781 -2.1931
  177SOPE  H12Y20208   3.430   5.621   9.057 -0.7974 -1.1656 -1.9233
  177SOPE  C31320209   3.554   5.593   8.888 -0.3014  0.5952 -0.3871
  177SOPE  H13X20210   3.463   5.563   8.831 -2.6307  0.0362  3.3329
  177SOPE  H13Y20211   3.617   5.508   8.924 -1.7873  0.1220  1.2160
  177SOPE  C31420212   3.652   5.663   8.783  0.4147  0.0002 -0.1088
  177SOPE  H14X20213   3.689   5.586   8.712  0.2270  1.1559 -1.5333
  177SOPE  H14Y20214   3.736   5.702   8.844 -0.3011  0.5175  0.5550
  177SOPE  C31520215   3.589   5.787   8.710 -0.2110 -0.5426  0.2033
  177SOPE  H15X20216   3.586   5.869   8.784 -0.5273 -1.9582  1.8309
  177SOPE  H15Y20217   3.488   5.770   8.667 -0.6099  1.7533  0.1359
  177SOPE  C31620218   3.664   5.834   8.585  0.0855  0.1403 -0.3078
  177SOPE  H16X20219   3.611   5.916   8.533 -1.1188 -0.5404 -0.1854
  177SOPE  H16Y20220   3.666   5.754   8.508 -2.4121  1.5847 -1.9910
  177SOPE  C31720221   3.813   5.865   8.622  0.1655 -0.2082  1.0403
  177SOPE  H17X20222   3.863   5.768   8.644 -1.1425 -0.5410  2.6889
  177SOPE  H17Y20223   3.817   5.924   8.716  2.1775 -0.0622  0.9081
  177SOPE  C31820224   3.889   5.935   8.505 -1.0120  0.3964 -0.3637
  177SOPE  H18X20225   3.914   5.862   8.425  0.7189  0.4966  0.0583
  177SOPE  H18Y20226   3.982   5.984   8.539 -1.5090  2.1585 -1.4390
  177SOPE  H18Z20227   3.827   6.012   8.455  0.5795 -0.0547 -3.1968
  178SOPE     N20228   2.112   4.410  10.567 -0.3549  0.2192  0.0379
  178SOPE   HN120229   2.048   4.401  10.486 -0.8175  2.7352  0.0288
  178SOPE   HN220230   2.107   4.511  10.594  1.3742  1.0993 -2.5680
  178SOPE   HN320231   2.208   4.387  10.536 -0.3918  0.8728 -0.5985
  178SOPE   C1220232   2.075   4.334  10.692  0.4451  0.3424  0.0158
  178SOPE  H12A20233   2.164   4.332  10.760 -0.4812 -2.0451  1.2779
  178SOPE  H12B20234   2.059   4.230  10.656 -1.3503  0.8001 -0.6081
  178SOPE   C1120235   1.951   4.391  10.768  0.3205  0.0289  0.0007
  178SOPE  H11A20236   1.975   4.491  10.811 -0.1370  0.4426 -0.6901
  178SOPE  H11B20237   1.940   4.344  10.868 -1.0470  2.1699  0.9301
  178SOPE     P20238   1.741   4.276  10.665 -0.0553 -0.0007 -0.3513
  178SOPE   O1320239   1.603   4.313  10.634  0.0047 -0.3212  0.3024
  178SOPE   O1420240   1.759   4.186  10.780 -0.0927 -0.0926 -0.2931
  178SOPE   O1220241   1.832   4.406  10.692  0.1155  0.0337  0.2146
  178SOPE   O1120242   1.809   4.206  10.545 -0.3340  0.2492  0.2032
  178SOPE    C120243   1.822   4.265  10.417 -0.4857  0.6987 -0.7106
  178SOPE    HA20244   1.919   4.228  10.377 -0.3396 -2.2642  1.9676
  178SOPE    HB20245   1.822   4.376  10.420  0.5335  0.7082  1.9636
  178SOPE    C220246   1.712   4.206  10.322  0.0012  0.5049  0.0907
  178SOPE    HS20247   1.618   4.229  10.376  0.1593 -1.4247  1.2811
  178SOPE   O2120248   1.745   4.071  10.286  0.1203 -0.1327  0.7414
  178SOPE   C2120249   1.652   3.980  10.315  0.2225 -0.3351 -0.2659
  178SOPE   O2220250   1.541   4.009  10.357  0.4876  0.3302 -0.1396
  178SOPE   C2220251   1.703   3.833  10.274  0.6154  0.5998  0.7242
  178SOPE   H2R20252   1.680   3.766  10.359  0.0401  1.7043  1.4714
  178SOPE   H2S20253   1.813   3.830  10.257  0.5381 -2.7192  0.2468
  178SOPE    C320254   1.696   4.291  10.194  0.7241 -0.1060  0.0123
  178SOPE    HX20255   1.797   4.294  10.147  1.0400  1.3092  0.7556
  178SOPE    HY20256   1.673   4.394  10.226  2.6234  0.5534 -0.6377
  178SOPE   O3120257   1.590   4.250  10.107 -0.6819  0.7785  0.2969
  178SOPE   C3120258   1.467   4.275  10.128 -0.1556 -0.6582 -0.2794
  178SOPE   O3220259   1.418   4.350  10.212  0.1649  0.2156 -0.3334
  178SOPE   C3220260   1.396   4.199  10.013 -0.4064 -0.4290  0.3189
  178SOPE   H2X20261   1.355   4.115  10.072 -1.2163 -0.1479  0.1694
  178SOPE   H2Y20262   1.469   4.168   9.935 -1.5093  0.8684 -1.3150
  178SOPE   C2320263   1.621   3.800  10.146  0.2937 -0.0397  0.5000
  178SOPE   H3R20264   1.513   3.805  10.170  0.3659 -0.3302  0.8848
  178SOPE   H3S20265   1.654   3.694  10.136  1.0685  0.3639 -1.9877
  178SOPE   C2420266   1.666   3.889  10.030 -1.0180  0.1962 -0.3597
  178SOPE   H4R20267   1.665   3.994  10.066 -1.3581 -0.0281  0.3125
  178SOPE   H4S20268   1.766   3.859   9.992 -0.2490  1.5943  0.4768
  178SOPE   C2520269   1.568   3.887   9.918  0.1118 -0.1214 -1.0350
  178SOPE   H5R20270   1.545   3.782   9.892  0.6544 -0.6471  0.5423
  178SOPE   H5S20271   1.475   3.937   9.953  1.1931  0.0272  1.8559
  178SOPE   C2620272   1.629   3.945   9.791 -0.2850  0.3709  0.1040
  178SOPE   H6R20273   1.645   4.054   9.804 -2.5158  0.8241 -0.4791
  178SOPE   H6S20274   1.725   3.896   9.766 -0.4391  0.9987 -1.8453
  178SOPE   C2720275   1.523   3.920   9.678 -0.1960 -0.7158 -0.2500
  178SOPE   H7R20276   1.505   3.811   9.668  0.7928 -0.7415 -2.1369
  178SOPE   H7S20277   1.428   3.972   9.703 -0.2746 -1.9266  2.3261
  178SOPE   C2820278   1.592   3.964   9.545  0.6841  1.0529 -0.0860
  178SOPE   H8R20279   1.678   3.900   9.518 -0.5325 -0.0798 -1.3998
  178SOPE   H8S20280   1.521   3.941   9.463 -0.5024  0.5517  1.0488
  178SOPE   C2920281   1.617   4.111   9.535 -0.1415 -0.2757  0.0338
  178SOPE   H9120282   1.543   4.168   9.593 -1.3806 -0.1866 -1.5759
  178SOPE  C21020283   1.717   4.168   9.467 -0.6456 -0.6073 -0.0674
  178SOPE  H10120284   1.740   4.276   9.467 -0.6036 -0.5425 -2.7020
  178SOPE  C21120285   1.825   4.097   9.389  0.1820  0.7480 -0.6758
  178SOPE  H11R20286   1.828   3.994   9.430  1.0796  1.1046  0.1940
  178SOPE  H11S20287   1.929   4.132   9.402  0.5797  0.1440 -2.0820
  178SOPE  C21220288   1.792   4.097   9.244  0.2570 -0.6169 -0.0091
  178SOPE  H12R20289   1.767   4.201   9.213  1.3909 -0.4530 -0.4159
  178SOPE  H12S20290   1.711   4.025   9.220 -0.5341 -0.5538  2.2487
  178SOPE  C21320291   1.914   4.056   9.154 -0.9137  0.2114 -0.1746
  178SOPE  H13R20292   1.949   3.951   9.169  0.5210  0.4626 -1.5110
  178SOPE  H13S20293   2.004   4.115   9.179  0.2032  0.0061 -3.2594
  178SOPE  C21420294   1.888   4.087   9.008 -0.1501 -0.1727 -0.4747
  178SOPE  H14R20295   1.987   4.076   8.957 -0.1549 -1.5493 -0.2327
  178SOPE  H14S20296   1.858   4.194   9.007  0.2589 -0.0471  0.1381
  178SOPE  C21520297   1.776   3.989   8.945 -0.3586 -0.1606 -0.0015
  178SOPE  H15R20298   1.680   4.005   9.000  0.0980 -0.8269  1.0149
  178SOPE  H15S20299   1.812   3.887   8.970 -2.0230 -0.6468  0.5407
  178SOPE  C21620300   1.755   4.025   8.791 -0.1238 -0.0676 -0.3950
  178SOPE  H16R20301   1.854   4.051   8.749  1.0432 -0.5359  1.9161
  178SOPE  H16S20302   1.703   4.123   8.793 -0.5286 -0.0957 -3.7411
  178SOPE  C21720303   1.677   3.923   8.712 -0.2839 -0.2111  0.2883
  178SOPE  H17R20304   1.734   3.831   8.736  1.7912  0.2566 -2.3695
  178SOPE  H17S20305   1.690   3.937   8.602 -1.9403 -0.1433  0.0748
  178SOPE  C21820306   1.535   3.928   8.748  0.7832 -0.1320  0.1727
  178SOPE  H18R20307   1.517   3.911   8.857 -2.0793 -2.6634 -0.5376
  178SOPE  H18S20308   1.465   3.864   8.691  2.4066  0.8822 -3.1681
  178SOPE  H18T20309   1.503   4.034   8.736  1.7492  0.3147  1.3636
  178SOPE   C3320310   1.293   4.291   9.942 -0.2709 -0.1278 -0.5923
  178SOPE   H3X20311   1.227   4.341  10.016  0.6633  0.1079  0.0936
  178SOPE   H3Y20312   1.226   4.218   9.891 -1.3948  0.7415 -0.4169
  178SOPE   C3420313   1.347   4.385   9.834 -0.2433  0.1006  0.0621
  178SOPE   H4X20314   1.369   4.322   9.745 -0.7220 -1.0467  0.7343
  178SOPE   H4Y20315   1.437   4.438   9.872  0.3411 -0.2528 -0.8029
  178SOPE   C3520316   1.243   4.498   9.792 -0.4582 -0.1070 -0.2066
  178SOPE   H5X20317   1.292   4.561   9.715  0.3701  1.1899  1.3314
  178SOPE   H5Y20318   1.222   4.565   9.879 -0.3105 -0.5537  0.1769
  178SOPE   C3620319   1.110   4.443   9.750  0.1265  0.1397 -0.3517
  178SOPE   H6X20320   1.045   4.531   9.727 -1.7288 -1.2127 -0.4742
  178SOPE   H6Y20321   1.064   4.386   9.833  0.1142 -0.9019 -1.0670
  178SOPE   C3720322   1.101   4.351   9.619 -0.1937  0.6636 -0.0665
  178SOPE   H7X20323   1.137   4.253   9.658  0.2624  0.5204 -0.8353
  178SOPE   H7Y20324   1.180   4.376   9.544 -0.4740 -0.0629 -0.6107
  178SOPE   C3820325   0.963   4.332   9.547  0.4199  0.2061 -0.4707
  178SOPE   H8X20326   0.883   4.345   9.622  1.4576 -2.5644  1.2910
  178SOPE   H8Y20327   0.953   4.226   9.513 -0.1536  0.2143 -0.3212
  178SOPE   C3920328   0.960   4.425   9.429  0.6377 -0.9649 -0.1133
  178SOPE   H9X20329   1.056   4.401   9.379  1.0199 -1.5694  0.8863
  178SOPE   H9Y20330   0.956   4.532   9.461 -3.8428 -0.6392 -1.1182
  178SOPE  C31020331   0.842   4.402   9.323 -0.0972 -0.1536  0.0787
  178SOPE  H10X20332   0.749   4.427   9.378  0.5868  1.8411  0.4051
  178SOPE  H10Y20333   0.836   4.292   9.305 -0.4503 -0.2237  0.5988
  178SOPE  C31120334   0.846   4.482   9.200  0.5205 -0.0823 -0.0890
  178SOPE  H11X20335   0.858   4.587   9.235 -0.8965  0.0373  0.0860
  178SOPE  H11Y20336   0.751   4.467   9.143  1.2499  0.5971 -1.5506
  178SOPE  C31220337   0.963   4.459   9.103 -0.1145  0.1414  0.4400
  178SOPE  H12X20338   0.943   4.360   9.056  1.3280 -0.5283  1.1675
  178SOPE  H12Y20339   1.065   4.458   9.147 -0.9496 -0.9368  2.5020
  178SOPE  C31320340   0.958   4.572   8.995 -0.2808  0.2912 -0.4113
  178SOPE  H13X20341   0.952   4.674   9.041 -0.5762 -0.1402  0.5311
  178SOPE  H13Y20342   0.860   4.556   8.946  0.3330 -0.5560 -1.3842
  178SOPE  C31420343   1.068   4.569   8.884 -0.0142  0.6907  0.0548
  178SOPE  H14X20344   1.096   4.466   8.855  1.6575  1.2267 -0.3230
  178SOPE  H14Y20345   1.160   4.607   8.934  0.0248  1.4105 -0.5449
  178SOPE  C31520346   1.025   4.645   8.757 -0.0719  0.2949  0.3771
  178SOPE  H15X20347   1.113   4.678   8.699 -0.9945 -0.8632 -1.7872
  178SOPE  H15Y20348   0.992   4.740   8.805  0.9664 -0.2321  2.2421
  178SOPE  C31620349   0.907   4.580   8.679  0.9246 -0.9753  0.2437
  178SOPE  H16X20350   0.821   4.568   8.749 -0.9212  2.5159 -1.2062
  178SOPE  H16Y20351   0.941   4.479   8.648  0.0961 -1.6405  1.4134
  178SOPE  C31720352   0.866   4.649   8.551 -0.4518  0.2924 -0.2537
  178SOPE  H17X20353   0.789   4.583   8.506  0.0058 -0.1528 -0.4009
  178SOPE  H17Y20354   0.962   4.649   8.494  0.6238 -0.1891  1.4793
  178SOPE  C31820355   0.821   4.795   8.568 -0.3118  0.1997 -0.0385
  178SOPE  H18X20356   0.901   4.859   8.611 -0.6531  0.7655 -0.2302
  178SOPE  H18Y20357   0.727   4.796   8.627 -1.4444 -1.2362 -1.7054
  178SOPE  H18Z20358   0.781   4.836   8.472 -3.3740  0.0423  1.0726
  179SOPE     N20359   4.918   5.114   6.407  0.2133 -0.5592 -1.1272
  179SOPE   HN120360   5.019   5.127   6.427 -0.0141 -0.7537  0.2725
  179SOPE   HN220361   4.884   5.157   6.319 -3.2525  1.7055  1.0344
  179SOPE   HN320362   4.871   5.167   6.483  0.8633 -1.5821  0.0295
  179SOPE   C1220363   4.892   4.969   6.407  0.0468  0.1799  0.3910
  179SOPE  H12A20364   4.974   4.927   6.346  0.1674  1.2232 -0.1782
  179SOPE  H12B20365   4.799   4.933   6.358 -0.0754 -0.3095  0.9692
  179SOPE   C1120366   4.897   4.915   6.555  0.5793 -0.3801  0.0877
  179SOPE  H11A20367   4.995   4.934   6.603 -0.1156 -1.2796  1.9662
  179SOPE  H11B20368   4.886   4.805   6.567  3.2100 -0.5599  1.5260
  179SOPE     P20369   4.647   4.973   6.610  0.3002  0.4438 -0.3626
  179SOPE   O1320370   4.617   4.828   6.569 -0.5352  0.4051 -0.2591
  179SOPE   O1420371   4.605   5.079   6.521  0.2303  0.2021  1.4077
  179SOPE   O1220372   4.803   4.983   6.637  0.3776  0.0578 -0.1074
  179SOPE   O1120373   4.591   5.013   6.754  0.5575 -0.0753  0.3131
  179SOPE    C120374   4.640   4.970   6.873 -0.1368  0.6647  0.8354
  179SOPE    HA20375   4.681   5.057   6.930  0.0424  2.3463 -1.6865
  179SOPE    HB20376   4.721   4.895   6.859 -1.7137 -0.8159 -0.6039
  179SOPE    C220377   4.524   4.900   6.956  0.3984  0.2202 -0.1533
  179SOPE    HS20378   4.562   4.835   7.037  0.6350 -0.4783 -0.8190
  179SOPE   O2120379   4.439   4.819   6.873 -0.1645  0.0809 -0.4724
  179SOPE   C2120380   4.488   4.707   6.846  0.2184  0.2387 -0.1951
  179SOPE   O2220381   4.604   4.666   6.866 -0.1749 -0.1357  0.6127
  179SOPE   C2220382   4.376   4.612   6.787 -0.2783 -0.3274 -0.1073
  179SOPE   H2R20383   4.409   4.598   6.682 -0.6263 -0.3416 -0.2155
  179SOPE   H2S20384   4.277   4.659   6.802 -0.5826 -1.2486  0.9255
  179SOPE    C320385   4.434   5.011   7.027  0.0323 -0.0180 -0.1571
  179SOPE    HX20386   4.351   4.949   7.066  0.1410 -1.5629 -2.2533
  179SOPE    HY20387   4.395   5.081   6.950  1.3842  0.3178 -0.5616
  179SOPE   O3120388   4.504   5.092   7.131  0.0011  0.4442 -0.1041
  179SOPE   C3120389   4.526   5.026   7.251 -0.0145 -0.1634  0.8566
  179SOPE   O3220390   4.508   4.909   7.267  0.2422  0.1143 -0.2924
  179SOPE   C3220391   4.578   5.133   7.351  0.4260  0.3096  0.2459
  179SOPE   H2X20392   4.539   5.234   7.325 -0.2903 -0.8112 -3.5947
  179SOPE   H2Y20393   4.689   5.126   7.350  0.3644 -1.0453 -1.5935
  179SOPE   C2320394   4.386   4.472   6.847 -0.1824  0.0529 -0.5231
  179SOPE   H3R20395   4.488   4.434   6.867 -0.0374 -0.0062 -1.3370
  179SOPE   H3S20396   4.342   4.405   6.770 -0.5174  0.0138 -0.2984
  179SOPE   C2420397   4.304   4.460   6.978  0.6364 -0.1432 -0.4311
  179SOPE   H4R20398   4.344   4.539   7.045  1.6131 -1.9909  1.2771
  179SOPE   H4S20399   4.194   4.474   6.970  0.4538 -1.4737 -0.6412
  179SOPE   C2520400   4.328   4.334   7.055 -0.2660 -0.2669  0.0003
  179SOPE   H5R20401   4.323   4.243   6.993 -1.2915 -0.1824 -0.0545
  179SOPE   H5S20402   4.433   4.335   7.092 -0.4207 -1.5513  0.5372
  179SOPE   C2620403   4.238   4.323   7.176 -0.3475 -0.2198  0.5331
  179SOPE   H6R20404   4.137   4.318   7.130  0.5736  0.9215 -1.7656
  179SOPE   H6S20405   4.272   4.240   7.241  0.7326 -0.7143 -0.6233
  179SOPE   C2720406   4.238   4.444   7.269 -0.4840 -0.1909  0.3969
  179SOPE   H7R20407   4.341   4.484   7.260 -0.2322 -1.0351 -0.8473
  179SOPE   H7S20408   4.168   4.524   7.238 -1.0920  0.0545  2.3221
  179SOPE   C2820409   4.213   4.416   7.419  0.6352  0.0164 -0.4381
  179SOPE   H8R20410   4.110   4.376   7.426  0.8016 -0.1841  1.1514
  179SOPE   H8S20411   4.286   4.344   7.462  2.1114  2.4135  1.3486
  179SOPE   C2920412   4.215   4.532   7.513 -0.0567 -0.2698 -0.5532
  179SOPE   H9120413   4.302   4.596   7.491 -0.2467 -0.0970 -0.8131
  179SOPE  C21020414   4.136   4.564   7.611  0.7570  0.3605 -0.1839
  179SOPE  H10120415   4.162   4.652   7.671  0.5007  0.8015 -0.7047
  179SOPE  C21120416   4.021   4.491   7.663  0.2178  0.4298  0.5644
  179SOPE  H11R20417   3.987   4.425   7.582  1.0742  2.4156 -1.5335
  179SOPE  H11S20418   3.939   4.564   7.682 -2.0447 -1.8279 -0.0108
  179SOPE  C21220419   4.051   4.414   7.795 -0.9411 -0.6141 -0.1623
  179SOPE  H12R20420   4.145   4.358   7.777 -1.4574 -0.9165 -2.1379
  179SOPE  H12S20421   3.971   4.340   7.814 -2.1490  1.1562  2.2593
  179SOPE  C21320422   4.054   4.492   7.924 -0.9269  0.3417  0.3155
  179SOPE  H13R20423   3.965   4.559   7.929 -0.2685  1.2383  0.3912
  179SOPE  H13S20424   4.145   4.555   7.923  0.0450 -0.9342 -2.7014
  179SOPE  C21420425   4.017   4.406   8.052 -0.7385  0.4329  0.1507
  179SOPE  H14R20426   3.913   4.366   8.051 -0.8861  0.7203  1.9566
  179SOPE  H14S20427   4.012   4.470   8.142  2.6206 -1.5072  1.9060
  179SOPE  C21520428   4.119   4.292   8.078  0.8606 -0.0155 -0.0521
  179SOPE  H15R20429   4.220   4.337   8.083  1.3229 -1.1848  2.7147
  179SOPE  H15S20430   4.119   4.223   7.990  3.0277  0.1607 -0.2444
  179SOPE  C21620431   4.098   4.216   8.215  0.4455 -0.1751  0.2408
  179SOPE  H16R20432   4.126   4.293   8.290 -0.9370  2.1572 -1.5153
  179SOPE  H16S20433   4.165   4.127   8.215 -1.4854 -1.7096  0.3248
  179SOPE  C21720434   3.949   4.182   8.237  0.0742  0.4701 -0.2172
  179SOPE  H17R20435   3.905   4.123   8.153 -0.3940 -1.7282  1.4794
  179SOPE  H17S20436   3.887   4.270   8.263 -0.6276 -0.5264  1.6344
  179SOPE  C21820437   3.929   4.105   8.372  0.1177 -0.3926 -0.0174
  179SOPE  H18R20438   3.967   4.002   8.356  1.1825 -0.1578  0.8752
  179SOPE  H18S20439   3.820   4.108   8.391  0.4705  2.1097  2.1534
  179SOPE  H18T20440   3.992   4.147   8.453 -0.9603 -1.1162  1.2354
  179SOPE   C3320441   4.533   5.089   7.494 -0.4213 -0.0815 -0.1485
  179SOPE   H3X20442   4.575   4.989   7.515 -0.3793 -0.3526 -1.4338
  179SOPE   H3Y20443   4.422   5.089   7.497 -0.4944 -2.8253 -0.8349
  179SOPE   C3420444   4.577   5.186   7.601 -0.3551 -0.6411  0.0052
  179SOPE   H4X20445   4.545   5.292   7.592 -0.6938 -0.7211  0.2385
  179SOPE   H4Y20446   4.688   5.188   7.600 -0.3582 -0.4298 -1.2270
  179SOPE   C3520447   4.553   5.132   7.745  0.4783  0.5775  0.8541
  179SOPE   H5X20448   4.609   5.039   7.765 -0.2883  0.2839  1.6822
  179SOPE   H5Y20449   4.448   5.097   7.756  0.8882 -1.4024 -0.8472
  179SOPE   C3620450   4.588   5.225   7.856  0.5689 -0.5860 -0.4415
  179SOPE   H6X20451   4.524   5.316   7.853 -0.3321 -1.2365 -1.3087
  179SOPE   H6Y20452   4.693   5.263   7.853  0.3552  0.1477  0.6023
  179SOPE   C3720453   4.560   5.182   8.004  0.4045 -0.0679  0.2918
  179SOPE   H7X20454   4.617   5.088   8.021 -1.4010 -1.2835 -0.1902
  179SOPE   H7Y20455   4.458   5.141   8.019  0.3079 -0.8832 -2.1583
  179SOPE   C3820456   4.582   5.288   8.115 -0.4042  0.4455 -0.1144
  179SOPE   H8X20457   4.521   5.374   8.081  0.3030  0.1073 -2.4557
  179SOPE   H8Y20458   4.690   5.315   8.110 -0.1308 -0.1792  1.7005
  179SOPE   C3920459   4.546   5.235   8.254 -0.2460  0.1785 -0.4975
  179SOPE   H9X20460   4.623   5.164   8.290  2.3722  1.7169 -2.6904
  179SOPE   H9Y20461   4.452   5.175   8.250 -0.0976 -0.1381  0.5503
  179SOPE  C31020462   4.517   5.351   8.344  0.1137  0.2452  0.0299
  179SOPE  H10X20463   4.452   5.427   8.294  0.7346  0.1843 -0.8874
  179SOPE  H10Y20464   4.609   5.399   8.383  1.8971 -2.5947 -0.4601
  179SOPE  C31120465   4.434   5.307   8.464 -0.6899  0.1732  0.7568
  179SOPE  H11X20466   4.499   5.254   8.536  0.6454  0.7229 -0.0155
  179SOPE  H11Y20467   4.358   5.232   8.434  0.4763 -1.0458  0.8018
  179SOPE  C31220468   4.363   5.425   8.528 -0.1777  0.2670 -0.1342
  179SOPE  H12X20469   4.293   5.470   8.454 -1.0040  0.4416  0.7237
  179SOPE  H12Y20470   4.443   5.501   8.544  1.1320 -1.3480  1.2696
  179SOPE  C31320471   4.305   5.400   8.671  0.1573 -0.1158 -0.2498
  179SOPE  H13X20472   4.373   5.360   8.750 -1.6642  1.0619  2.0369
  179SOPE  H13Y20473   4.221   5.327   8.667 -0.6109  0.6307  1.1688
  179SOPE  C31420474   4.251   5.527   8.739 -0.6689  0.8863  0.1447
  179SOPE  H14X20475   4.194   5.581   8.660  0.1523 -0.3028 -1.3112
  179SOPE  H14Y20476   4.332   5.592   8.779 -1.1616  1.2486  0.5722
  179SOPE  C31520477   4.143   5.496   8.851 -0.1630 -0.5517 -0.4750
  179SOPE  H15X20478   4.176   5.402   8.900 -0.5144 -0.8690 -0.8434
  179SOPE  H15Y20479   4.046   5.483   8.799 -0.6691 -0.4330  0.4099
  179SOPE  C31620480   4.133   5.593   8.971  0.5085 -0.4615  0.4928
  179SOPE  H16X20481   4.139   5.702   8.950  0.0467 -0.3681  0.8123
  179SOPE  H16Y20482   4.220   5.572   9.037  0.0554 -2.7459  0.4304
  179SOPE  C31720483   4.007   5.560   9.057 -0.6642 -0.0899 -0.0365
  179SOPE  H17X20484   3.995   5.455   9.091 -2.8138 -0.6456 -2.1976
  179SOPE  H17Y20485   3.919   5.550   8.990 -0.6525 -1.2999  0.0944
  179SOPE  C31820486   3.987   5.664   9.176 -0.5956 -0.2746  0.2468
  179SOPE  H18X20487   3.950   5.759   9.131  1.3290  0.5561  0.3224
  179SOPE  H18Y20488   4.062   5.686   9.255 -1.0834  0.7813  0.4434
  179SOPE  H18Z20489   3.900   5.620   9.229 -2.2414 -1.3041 -3.0167
  180SOPE     N20490   3.009   5.298   6.143 -0.3253 -0.2478  0.3310
  180SOPE   HN120491   2.981   5.376   6.206 -0.4374 -1.6143  2.0541
  180SOPE   HN220492   2.999   5.322   6.043  0.9306  1.2256  0.5208
  180SOPE   HN320493   2.956   5.211   6.165  0.1195 -0.8547 -0.9180
  180SOPE   C1220494   3.150   5.281   6.197 -0.0055 -0.2798  0.6141
  180SOPE  H12A20495   3.191   5.182   6.165 -1.9116 -1.1392  0.6611
  180SOPE  H12B20496   3.142   5.291   6.307 -1.0408 -0.4769  0.5654
  180SOPE   C1120497   3.223   5.408   6.153  0.4320  0.0639 -0.3788
  180SOPE  H11A20498   3.219   5.424   6.043 -0.4754  1.4132 -0.1736
  180SOPE  H11B20499   3.331   5.399   6.176  0.6663 -0.0700 -1.4520
  180SOPE     P20500   3.232   5.665   6.203  0.3698  0.3254 -0.1826
  180SOPE   O1320501   3.134   5.772   6.194 -0.3381  0.5428  0.1671
  180SOPE   O1420502   3.348   5.666   6.109  0.0032  0.2360 -0.3950
  180SOPE   O1220503   3.157   5.525   6.209  0.3593  1.0929 -0.1151
  180SOPE   O1120504   3.292   5.666   6.349 -0.7215 -0.1467  0.1722
  180SOPE    C120505   3.208   5.662   6.467 -0.3387 -0.4226 -0.5645
  180SOPE    HA20506   3.112   5.609   6.447 -0.8303  0.0166  0.5519
  180SOPE    HB20507   3.191   5.769   6.493 -1.1050 -0.5094 -0.6769
  180SOPE    C220508   3.268   5.573   6.581  0.7444  0.1998 -0.1494
  180SOPE    HS20509   3.189   5.568   6.659 -1.2938 -2.2475 -2.2154
  180SOPE   O2120510   3.398   5.617   6.630  0.5149  0.1093 -0.1995
  180SOPE   C2120511   3.389   5.705   6.730  0.4355  0.0248  0.1805
  180SOPE   O2220512   3.289   5.740   6.787 -0.1535  0.0487 -0.6927
  180SOPE   C2220513   3.526   5.755   6.761 -0.0533  0.4467 -0.3358
  180SOPE   H2R20514   3.560   5.812   6.672 -2.0762  1.6451 -0.4026
  180SOPE   H2S20515   3.589   5.672   6.798  0.3524  0.8478 -0.1193
  180SOPE    C320516   3.291   5.424   6.526 -0.1499 -1.4285 -0.3968
  180SOPE    HX20517   3.365   5.423   6.443 -0.2065  0.0822 -0.4787
  180SOPE    HY20518   3.194   5.414   6.474  0.3601  1.4536 -2.0495
  180SOPE   O3120519   3.303   5.331   6.636  0.3704 -0.0674  0.6434
  180SOPE   C3120520   3.428   5.288   6.648  0.4212  0.0840  0.2047
  180SOPE   O3220521   3.523   5.310   6.574  0.2352 -0.1689  0.1050
  180SOPE   C3220522   3.450   5.202   6.769  0.0577 -0.1308  0.2509
  180SOPE   H2X20523   3.546   5.147   6.765  1.3881  1.9709  1.4529
  180SOPE   H2Y20524   3.375   5.120   6.762  1.2366 -1.2001 -0.1886
  180SOPE   C2320525   3.515   5.855   6.878 -0.2893 -0.7970 -0.6577
  180SOPE   H3R20526   3.440   5.934   6.858  3.5035  3.0793 -0.9110
  180SOPE   H3S20527   3.609   5.914   6.875 -0.1106 -1.1029 -2.1557
  180SOPE   C2420528   3.506   5.795   7.018 -0.5050 -0.1588  0.1809
  180SOPE   H4R20529   3.407   5.745   7.025 -0.1213 -0.7528  2.3173
  180SOPE   H4S20530   3.581   5.715   7.034  1.8156  1.9351  0.2990
  180SOPE   C2520531   3.522   5.897   7.131 -0.4514  0.0390  0.0848
  180SOPE   H5R20532   3.612   5.960   7.114  1.0574 -1.2757  2.5024
  180SOPE   H5S20533   3.430   5.959   7.125 -1.4000 -0.9147  2.8028
  180SOPE   C2620534   3.511   5.837   7.275 -0.1768  0.2852  0.1787
  180SOPE   H6R20535   3.597   5.771   7.297  1.3510  0.5518 -4.0037
  180SOPE   H6S20536   3.522   5.931   7.334 -0.2720  0.9835 -0.8857
  180SOPE   C2720537   3.374   5.770   7.311  0.1603  0.5822 -0.5553
  180SOPE   H7R20538   3.292   5.844   7.317 -1.1293 -0.5866 -2.3773
  180SOPE   H7S20539   3.334   5.703   7.232 -2.0301 -0.1182  1.0565
  180SOPE   C2820540   3.392   5.687   7.436 -0.5493 -0.7275  0.6613
  180SOPE   H8R20541   3.476   5.614   7.430  0.7140  0.7724 -0.7426
  180SOPE   H8S20542   3.420   5.757   7.518  0.5371  0.7148 -0.8835
  180SOPE   C2920543   3.268   5.610   7.472  1.1258  0.5849 -1.2993
  180SOPE   H9120544   3.235   5.521   7.417 -1.6727 -0.2168  1.3548
  180SOPE  C21020545   3.193   5.630   7.579  0.1790  0.4355 -0.2053
  180SOPE  H10120546   3.117   5.552   7.596 -0.9143  1.5913  0.3081
  180SOPE  C21120547   3.211   5.733   7.692  0.3403 -0.5569 -0.1494
  180SOPE  H11R20548   3.116   5.778   7.728  1.1987  0.1499  1.2977
  180SOPE  H11S20549   3.280   5.816   7.664 -2.1070  1.5025 -0.4256
  180SOPE  C21220550   3.281   5.659   7.812  0.4185  0.4396 -0.1649
  180SOPE  H12R20551   3.382   5.630   7.778 -0.5257 -2.0718 -1.1017
  180SOPE  H12S20552   3.230   5.564   7.837 -0.2024  1.0441  0.9793
  180SOPE  C21320553   3.283   5.726   7.950  0.0902 -0.7377 -0.1447
  180SOPE  H13R20554   3.188   5.772   7.983  0.7758 -0.4960  1.5493
  180SOPE  H13S20555   3.360   5.806   7.945  1.2934 -1.9245 -1.8409
  180SOPE  C21420556   3.330   5.631   8.066  0.6355 -0.2315 -0.0334
  180SOPE  H14R20557   3.440   5.617   8.052  1.2017  1.3198  2.2308
  180SOPE  H14S20558   3.272   5.538   8.082  0.1901  0.2425  1.1912
  180SOPE  C21520559   3.324   5.697   8.204  0.7645 -0.0912  0.0920
  180SOPE  H15R20560   3.242   5.771   8.216  0.2920 -0.6319  0.2354
  180SOPE  H15S20561   3.421   5.751   8.210  0.9575 -0.6030  1.9510
  180SOPE  C21620562   3.313   5.593   8.318 -0.6888  0.5334 -0.2231
  180SOPE  H16R20563   3.233   5.519   8.292  0.8964 -0.2834 -3.2059
  180SOPE  H16S20564   3.281   5.654   8.405  0.3752 -0.3410  0.8192
  180SOPE  C21720565   3.446   5.518   8.358  0.1201 -0.2588 -0.5681
  180SOPE  H17R20566   3.534   5.585   8.346  0.3836 -0.3159  0.8471
  180SOPE  H17S20567   3.467   5.434   8.289 -1.1838 -0.1357 -1.1379
  180SOPE  C21820568   3.440   5.457   8.499 -0.4881 -0.0648 -0.8648
  180SOPE  H18R20569   3.375   5.367   8.505 -0.7435  0.1688 -0.0120
  180SOPE  H18S20570   3.404   5.532   8.573 -1.5468 -0.0012 -1.4110
  180SOPE  H18T20571   3.539   5.422   8.534  0.1005  2.4963  0.3247
  180SOPE   C3320572   3.420   5.284   6.894  0.0321 -0.4546 -0.1466
  180SOPE   H3X20573   3.326   5.252   6.945  0.1472 -0.4735  0.0543
  180SOPE   H3Y20574   3.407   5.394   6.881  1.1268 -0.3745 -0.6420
  180SOPE   C3420575   3.534   5.284   6.999  0.2274 -0.1621 -0.0291
  180SOPE   H4X20576   3.618   5.342   6.955  0.7979 -1.3038 -0.4578
  180SOPE   H4Y20577   3.561   5.177   7.005 -1.5188 -0.6680 -0.6807
  180SOPE   C3520578   3.508   5.334   7.143 -0.6190 -0.2485 -0.7815
  180SOPE   H5X20579   3.423   5.283   7.193 -0.0262  1.2798  1.9926
  180SOPE   H5Y20580   3.494   5.445   7.141 -1.7048 -0.2758  1.4552
  180SOPE   C3620581   3.627   5.303   7.234 -0.1739 -0.0288 -0.3023
  180SOPE   H6X20582   3.712   5.363   7.196  0.7753 -2.0544 -1.5103
  180SOPE   H6Y20583   3.665   5.199   7.242  0.6319  0.3530  1.4128
  180SOPE   C3720584   3.594   5.342   7.377 -0.3054 -0.6280 -0.1637
  180SOPE   H7X20585   3.512   5.277   7.414 -0.1272 -0.5191  0.4449
  180SOPE   H7Y20586   3.562   5.449   7.373 -0.6687 -0.4982  3.1520
  180SOPE   C3820587   3.712   5.346   7.479  0.5000  0.1255  0.2657
  180SOPE   H8X20588   3.802   5.393   7.433  0.7579 -2.6289 -2.3495
  180SOPE   H8Y20589   3.740   5.240   7.497 -4.0585 -1.2563  0.5386
  180SOPE   C3920590   3.668   5.412   7.617 -0.1634 -0.2644  0.0138
  180SOPE   H9X20591   3.576   5.351   7.630 -0.0233 -0.4511  0.1264
  180SOPE   H9Y20592   3.649   5.520   7.603  1.7440  0.0577 -0.4061
  180SOPE  C31020593   3.764   5.394   7.734  0.9865 -0.1720 -0.0897
  180SOPE  H10X20594   3.839   5.476   7.733  1.5231 -0.6559 -0.1798
  180SOPE  H10Y20595   3.823   5.300   7.724 -2.1374 -2.2777 -0.0155
  180SOPE  C31120596   3.695   5.399   7.873  0.1747 -0.2107  0.0229
  180SOPE  H11X20597   3.586   5.385   7.857 -0.0082  0.4993  0.5976
  180SOPE  H11Y20598   3.700   5.501   7.916 -3.4591 -0.4991  1.5336
  180SOPE  C31220599   3.731   5.284   7.967 -0.0724  0.1387  0.0894
  180SOPE  H12X20600   3.832   5.304   8.008  1.3691 -0.7002 -2.7558
  180SOPE  H12Y20601   3.716   5.195   7.902 -3.8048  1.4251 -1.1084
  180SOPE  C31320602   3.629   5.252   8.078  0.1378  0.6839  0.2870
  180SOPE  H13X20603   3.528   5.227   8.040  0.1247  1.0095  0.1010
  180SOPE  H13Y20604   3.615   5.346   8.137  1.2454  1.8211 -1.1760
  180SOPE  C31420605   3.667   5.135   8.173 -0.6224 -0.6257  0.7020
  180SOPE  H14X20606   3.764   5.168   8.217 -0.9474  0.6293  0.5383
  180SOPE  H14Y20607   3.692   5.051   8.105  0.9809  1.8553 -2.0505
  180SOPE  C31520608   3.553   5.097   8.268 -0.0575 -0.3597  0.1981
  180SOPE  H15X20609   3.514   5.192   8.310 -1.0124 -0.9464  0.6690
  180SOPE  H15Y20610   3.592   5.044   8.358  0.1088  1.1106  1.0174
  180SOPE  C31620611   3.438   5.015   8.219  0.0195 -0.4891 -0.5847
  180SOPE  H16X20612   3.465   4.909   8.201  1.6422 -0.0059 -1.1336
  180SOPE  H16Y20613   3.381   5.055   8.132  0.3834  0.8199 -0.2429
  180SOPE  C31720614   3.345   4.981   8.339  0.9197 -0.2932  0.2684
  180SOPE  H17X20615   3.403   4.938   8.423  2.1512  1.5473  0.3999
  180SOPE  H17Y20616   3.261   4.915   8.309  0.4736 -0.7962  2.4371
  180SOPE  C31820617   3.274   5.102   8.399 -0.2138  0.0086  0.3241
  180SOPE  H18X20618   3.237   5.163   8.314  2.0644  2.3589  0.8658
  180SOPE  H18Y20619   3.348   5.171   8.445  0.6655  0.0075 -1.0008
  180SOPE  H18Z20620   3.193   5.074   8.468  1.6069 -0.2388  2.4548
  181SOPE     N20621   6.106   3.602   5.860 -0.3664  0.4314  0.0687
  181SOPE   HN120622   6.160   3.533   5.915 -0.8128  0.2296  0.2609
  181SOPE   HN220623   6.157   3.618   5.771 -1.8878  0.7881 -0.7816
  181SOPE   HN320624   6.103   3.696   5.905  2.4263 -0.2333  1.8613
  181SOPE   C1220625   5.970   3.560   5.817 -0.5293 -0.1154 -0.1201
  181SOPE  H12A20626   5.980   3.468   5.756  0.0358 -1.4565  1.8947
  181SOPE  H12B20627   5.926   3.641   5.755 -2.8041  0.3867  1.9860
  181SOPE   C1120628   5.881   3.534   5.939 -0.1438 -0.5321  0.5319
  181SOPE  H11A20629   5.951   3.470   5.997 -1.3573 -0.7056  1.8629
  181SOPE  H11B20630   5.784   3.486   5.914 -0.6104  0.0802  1.1443
  181SOPE     P20631   5.738   3.746   6.002 -0.3040  0.0933  0.3860
  181SOPE   O1320632   5.635   3.676   6.082 -0.2782 -0.3098 -0.2241
  181SOPE   O1420633   5.711   3.759   5.855  0.1181  0.3270 -0.3472
  181SOPE   O1220634   5.870   3.659   6.005  0.0572 -0.3713 -0.0845
  181SOPE   O1120635   5.761   3.889   6.062  0.5518 -0.2821  0.7754
  181SOPE    C120636   5.886   3.941   6.117  0.1659  0.0485  0.8195
  181SOPE    HA20637   5.887   4.051   6.096 -0.2088 -0.3405 -1.5050
  181SOPE    HB20638   5.958   3.902   6.043 -2.1673  0.3427 -1.8077
  181SOPE    C220639   5.928   3.897   6.253  1.0150 -0.2126  0.2726
  181SOPE    HS20640   5.914   3.787   6.252  1.2305 -0.4240  4.3082
  181SOPE   O2120641   5.834   3.959   6.338  0.2826 -0.3909 -0.1901
  181SOPE   C2120642   5.803   3.896   6.443 -0.1540  0.7055 -0.3754
  181SOPE   O2220643   5.858   3.794   6.480  0.1040 -0.3866 -0.0767
  181SOPE   C2220644   5.674   3.951   6.493  1.1240 -0.0250 -0.7818
  181SOPE   H2R20645   5.594   3.887   6.450  0.7207 -0.3017  0.3652
  181SOPE   H2S20646   5.668   4.057   6.460 -2.2775 -0.6899 -2.8420
  181SOPE    C320647   6.067   3.941   6.295  0.4788 -0.3127 -0.8292
  181SOPE    HX20648   6.053   4.047   6.324  0.4762 -0.7651  0.9205
  181SOPE    HY20649   6.144   3.938   6.215  1.1201  0.0279 -0.2369
  181SOPE   O3120650   6.120   3.872   6.412 -0.8266  0.3732 -0.6639
  181SOPE   C3120651   6.145   3.746   6.406 -0.5983 -0.8381  0.2996
  181SOPE   O3220652   6.125   3.678   6.307  0.5646  0.1819  0.2720
  181SOPE   C3220653   6.213   3.691   6.534 -0.2186 -0.3345 -0.3450
  181SOPE   H2X20654   6.318   3.727   6.523  0.1725 -1.1873  0.4974
  181SOPE   H2Y20655   6.217   3.580   6.525 -1.4714 -0.4215  0.0637
  181SOPE   C2320656   5.654   3.928   6.646  0.1052  0.2173  0.7136
  181SOPE   H3R20657   5.670   3.820   6.666 -0.9947  0.0152  0.5649
  181SOPE   H3S20658   5.547   3.951   6.665 -0.8567 -3.1346  0.0130
  181SOPE   C2420659   5.754   4.004   6.729 -1.1399 -0.2370 -0.2532
  181SOPE   H4R20660   5.858   3.982   6.699 -0.3324 -0.2855  2.3363
  181SOPE   H4S20661   5.735   4.113   6.716  0.5703  0.4539  2.3233
  181SOPE   C2520662   5.731   3.991   6.879 -0.5325  0.3350 -0.4766
  181SOPE   H5R20663   5.767   3.887   6.889  1.9273  1.2194  0.7793
  181SOPE   H5S20664   5.805   4.060   6.925 -1.2347 -0.0542  1.3261
  181SOPE   C2620665   5.590   4.032   6.927 -0.7624  0.3402  0.2288
  181SOPE   H6R20666   5.544   4.104   6.855  0.9712  0.0171 -1.2821
  181SOPE   H6S20667   5.537   3.934   6.932 -0.1794 -0.0676 -1.0860
  181SOPE   C2720668   5.573   4.091   7.070  0.1391 -0.3961 -0.1571
  181SOPE   H7R20669   5.593   4.200   7.073 -0.4787 -0.2352 -1.2339
  181SOPE   H7S20670   5.466   4.089   7.100  0.4318  1.6500  1.1956
  181SOPE   C2820671   5.642   4.027   7.189  0.0607  0.8460 -0.2045
  181SOPE   H8R20672   5.749   4.025   7.158 -0.0877  2.2996 -0.9260
  181SOPE   H8S20673   5.651   4.099   7.272  1.0826 -0.2136  0.6398
  181SOPE   C2920674   5.594   3.892   7.248  0.0121  0.0700 -0.1496
  181SOPE   H9120675   5.609   3.814   7.172  0.0591 -0.3654  0.3028
  181SOPE  C21020676   5.531   3.867   7.363 -0.4184  0.0391  0.0322
  181SOPE  H10120677   5.498   3.764   7.382  0.9771 -0.5478 -0.6378
  181SOPE  C21120678   5.500   3.969   7.472  0.3151  0.6350  0.0988
  181SOPE  H11R20679   5.422   3.929   7.541 -0.2355  3.1189  1.0271
  181SOPE  H11S20680   5.449   4.050   7.415 -0.9770 -1.4953 -1.9915
  181SOPE  C21220681   5.614   4.027   7.556 -0.0780  0.1215  0.4375
  181SOPE  H12R20682   5.697   4.059   7.489  1.0768 -1.3381  1.1028
  181SOPE  H12S20683   5.663   3.951   7.620  1.7203  1.7543  1.1276
  181SOPE  C21320684   5.572   4.142   7.653 -0.0846 -0.2624  0.0305
  181SOPE  H13R20685   5.521   4.225   7.600  1.3514 -0.1962 -1.3208
  181SOPE  H13S20686   5.668   4.185   7.691  0.2425 -0.2803 -0.7599
  181SOPE  C21420687   5.497   4.089   7.776  0.1335 -0.1358 -0.2063
  181SOPE  H14R20688   5.564   4.013   7.822  0.1891  0.1135  0.1320
  181SOPE  H14S20689   5.399   4.046   7.750 -1.7342  2.8122  1.3033
  181SOPE  C21520690   5.467   4.206   7.871  0.6790 -0.0010  0.4408
  181SOPE  H15R20691   5.379   4.257   7.827  0.8321  0.6637  0.8844
  181SOPE  H15S20692   5.558   4.271   7.874  1.4436 -1.0262  0.1580
  181SOPE  C21620693   5.435   4.152   8.008  0.3285 -0.9429 -1.0893
  181SOPE  H16R20694   5.512   4.076   8.035  0.0300 -0.2912  1.8410
  181SOPE  H16S20695   5.335   4.104   8.011 -0.1653  0.0895 -0.9868
  181SOPE  C21720696   5.416   4.261   8.115  0.8783 -0.0825 -0.0065
  181SOPE  H17R20697   5.325   4.320   8.090  1.3141  0.3113 -0.6969
  181SOPE  H17S20698   5.504   4.328   8.108  2.5188 -2.1284 -0.1203
  181SOPE  C21820699   5.415   4.210   8.262 -0.1387 -0.5550 -0.4614
  181SOPE  H18R20700   5.490   4.128   8.273 -1.1817 -1.4383  0.4066
  181SOPE  H18S20701   5.316   4.178   8.301 -0.6966  2.2570  0.6800
  181SOPE  H18T20702   5.449   4.293   8.328  0.9118  0.1836 -1.8810
  181SOPE   C3320703   6.155   3.728   6.665 -0.8200 -1.4269 -0.2644
  181SOPE   H3X20704   6.055   3.773   6.646  0.4543  1.6777 -0.2619
  181SOPE   H3Y20705   6.215   3.802   6.722  0.1021 -2.3942  0.0499
  181SOPE   C3420706   6.156   3.615   6.759  0.4340  0.1198  0.6255
  181SOPE   H4X20707   6.261   3.584   6.777  0.4187  1.5061  3.5977
  181SOPE   H4Y20708   6.099   3.530   6.714  0.8910 -0.6848  1.5286
  181SOPE   C3520709   6.095   3.639   6.896 -0.4364  0.2811  0.1349
  181SOPE   H5X20710   6.143   3.724   6.949  2.6640 -0.7541 -0.8127
  181SOPE   H5Y20711   6.117   3.548   6.956 -0.7883  1.1685  1.6616
  181SOPE   C3620712   5.947   3.667   6.904  0.3929  0.4173 -0.0187
  181SOPE   H6X20713   5.894   3.569   6.903  1.8687 -0.4077 -0.4747
  181SOPE   H6Y20714   5.910   3.725   6.817  2.4412  2.2336  0.2246
  181SOPE   C3720715   5.907   3.741   7.035 -0.2815 -0.2498  0.2819
  181SOPE   H7X20716   5.797   3.731   7.044 -0.0239 -1.1342  3.5989
  181SOPE   H7Y20717   5.929   3.848   7.017 -2.1182 -0.1475 -1.9140
  181SOPE   C3820718   5.951   3.668   7.163  0.1076 -0.1726 -0.5809
  181SOPE   H8X20719   6.061   3.662   7.152  0.6210  2.0100  2.0632
  181SOPE   H8Y20720   5.898   3.571   7.170  0.3515 -0.4773 -2.5031
  181SOPE   C3920721   5.939   3.750   7.296  0.0065 -0.1378 -0.0284
  181SOPE   H9X20722   5.832   3.772   7.316 -0.7401 -1.2645 -2.4318
  181SOPE   H9Y20723   5.997   3.841   7.268 -1.3876  0.6098 -0.6068
  181SOPE  C31020724   6.009   3.673   7.404  0.1034  0.5235 -0.2005
  181SOPE  H10X20725   6.118   3.673   7.384  0.4203 -0.9559  1.3306
  181SOPE  H10Y20726   5.977   3.568   7.387  0.7624  0.5155 -1.5493
  181SOPE  C31120727   5.992   3.728   7.552  1.0907 -0.4285  0.3707
  181SOPE  H11X20728   5.887   3.727   7.587  1.0749  0.2210  0.3530
  181SOPE  H11Y20729   6.021   3.834   7.533  1.8985 -0.8444 -0.8781
  181SOPE  C31220730   6.090   3.665   7.655  0.0706 -0.4061 -0.2804
  181SOPE  H12X20731   6.189   3.683   7.608  0.6216 -1.0324  0.6062
  181SOPE  H12Y20732   6.057   3.559   7.653  0.6423 -0.5878 -0.3571
  181SOPE  C31320733   6.096   3.724   7.793 -0.5247  0.5423  0.4238
  181SOPE  H13X20734   6.073   3.833   7.799 -2.1469  0.1882  1.2561
  181SOPE  H13Y20735   6.193   3.701   7.840  0.8828  1.2977 -1.9251
  181SOPE  C31420736   5.989   3.654   7.878 -0.6733  0.2686  0.2119
  181SOPE  H14X20737   6.003   3.544   7.881 -1.2799  0.1838  0.2333
  181SOPE  H14Y20738   5.888   3.669   7.834 -1.0896  0.7280  1.2776
  181SOPE  C31520739   5.976   3.701   8.026  0.0384  0.1852 -0.5154
  181SOPE  H15X20740   5.886   3.643   8.055 -0.5287 -0.6266 -3.5272
  181SOPE  H15Y20741   5.936   3.805   8.031  0.5572  0.3611  3.3014
  181SOPE  C31620742   6.100   3.688   8.124  0.9094  0.0786 -0.0821
  181SOPE  H16X20743   6.181   3.747   8.076  1.3951 -1.4153 -1.1926
  181SOPE  H16Y20744   6.149   3.589   8.136  2.0817  0.3950 -1.8635
  181SOPE  C31720745   6.061   3.748   8.266 -0.1490 -0.5489 -0.2459
  181SOPE  H17X20746   6.022   3.851   8.250 -0.0101 -0.8003 -2.4679
  181SOPE  H17Y20747   6.157   3.765   8.320 -1.1621 -0.6026  1.6724
  181SOPE  C31820748   5.959   3.662   8.352 -0.6615  0.3099  0.7105
  181SOPE  H18X20749   5.928   3.715   8.445  0.9298 -0.3154  1.6315
  181SOPE  H18Y20750   6.012   3.567   8.374  0.3311  0.8522  0.7052
  181SOPE  H18Z20751   5.876   3.645   8.280 -0.5490  0.5190  0.5356
  182SOPE     N20752   3.982   3.810   6.188  0.6875  1.0987 -0.4628
  182SOPE   HN120753   4.050   3.856   6.123 -0.1000  0.9422 -1.4230
  182SOPE   HN220754   3.901   3.787   6.127 -1.5112  2.5487  1.7507
  182SOPE   HN320755   3.952   3.876   6.263  0.8018  0.1704  0.4164
  182SOPE   C1220756   4.060   3.693   6.247  0.2687  0.6291 -0.2475
  182SOPE  H12A20757   4.019   3.661   6.345  0.7112 -0.7825 -0.4973
  182SOPE  H12B20758   4.155   3.738   6.281 -0.5956  2.3929 -0.0598
  182SOPE   C1120759   4.074   3.587   6.144 -0.5878  0.4442  0.6180
  182SOPE  H11A20760   4.138   3.506   6.185  0.5132  0.8040 -0.3447
  182SOPE  H11B20761   4.132   3.630   6.059  0.9712  0.6142  1.7109
  182SOPE     P20762   3.901   3.395   6.098 -0.5648 -0.2394  0.1791
  182SOPE   O1320763   4.002   3.318   6.023 -0.4383  0.4932  0.3264
  182SOPE   O1420764   3.759   3.382   6.064  0.1753  0.8218 -0.2026
  182SOPE   O1220765   3.946   3.539   6.109  0.0147 -0.5175 -0.4069
  182SOPE   O1120766   3.908   3.359   6.252 -0.5253  0.4109  0.0350
  182SOPE    C120767   3.821   3.431   6.346  0.4775 -0.3164 -0.2690
  182SOPE    HA20768   3.753   3.494   6.285  0.8692  1.0137  0.6386
  182SOPE    HB20769   3.877   3.507   6.405 -0.1691 -0.4045  0.4796
  182SOPE    C220770   3.734   3.342   6.440 -0.8450  0.4119 -0.2573
  182SOPE    HS20771   3.689   3.411   6.515 -1.1520  0.0195 -0.0820
  182SOPE   O2120772   3.817   3.237   6.502  0.4863  0.4024 -0.6231
  182SOPE   C2120773   3.877   3.264   6.614  0.0722  0.3861 -0.0019
  182SOPE   O2220774   3.894   3.373   6.664  0.2622 -0.3042 -0.1595
  182SOPE   C2220775   3.927   3.136   6.679  0.0454 -0.2491  0.8319
  182SOPE   H2R20776   4.030   3.130   6.639 -0.4980  3.3325 -1.5948
  182SOPE   H2S20777   3.875   3.049   6.634 -0.6563 -0.3344  1.7801
  182SOPE    C320778   3.626   3.263   6.374 -0.0361 -0.0880 -0.4887
  182SOPE    HX20779   3.664   3.189   6.300 -0.0392  0.5991 -1.1863
  182SOPE    HY20780   3.554   3.328   6.319 -0.7146  1.4641  2.0780
  182SOPE   O3120781   3.559   3.192   6.483 -0.1484  0.3363  0.6012
  182SOPE   C3120782   3.462   3.257   6.549  0.7139  0.1287 -0.2138
  182SOPE   O3220783   3.410   3.358   6.511  0.5196  0.5815 -0.3280
  182SOPE   C3220784   3.411   3.178   6.670  0.2416 -0.5720 -0.7298
  182SOPE   H2X20785   3.466   3.082   6.684 -1.3820 -1.3115  1.0745
  182SOPE   H2Y20786   3.309   3.152   6.634 -0.1238  1.3408 -1.1801
  182SOPE   C2320787   3.925   3.153   6.833 -0.0790  0.8303  0.0835
  182SOPE   H3R20788   3.978   3.237   6.882  1.3132  1.6243 -2.6025
  182SOPE   H3S20789   3.972   3.060   6.870 -2.2334  0.3789  1.9498
  182SOPE   C2420790   3.784   3.144   6.883 -0.0416  0.3730 -0.2745
  182SOPE   H4R20791   3.723   3.235   6.863  0.6322  0.6418 -1.1335
  182SOPE   H4S20792   3.726   3.062   6.836 -1.0905  0.5384  0.6696
  182SOPE   C2520793   3.771   3.113   7.038 -0.2868  0.3311 -0.4887
  182SOPE   H5R20794   3.662   3.108   7.056 -0.2214  1.6659  0.4653
  182SOPE   H5S20795   3.838   3.028   7.062  0.2099  1.1402  1.1611
  182SOPE   C2620796   3.810   3.240   7.122  1.2131  0.8378 -0.1958
  182SOPE   H6R20797   3.918   3.264   7.114  0.9308  2.0458 -0.6342
  182SOPE   H6S20798   3.742   3.322   7.092  0.5355  0.2883 -0.1804
  182SOPE   C2720799   3.772   3.208   7.265  0.0189  0.5949  0.5464
  182SOPE   H7R20800   3.669   3.168   7.275 -0.6450  1.4368 -2.0492
  182SOPE   H7S20801   3.846   3.131   7.295 -1.8880 -1.1846  0.8736
  182SOPE   C2820802   3.767   3.338   7.349 -0.2591 -0.5153 -0.1844
  182SOPE   H8R20803   3.681   3.400   7.314 -0.1263  1.2278  2.2904
  182SOPE   H8S20804   3.730   3.295   7.444  0.3166 -0.7806 -0.0740
  182SOPE   C2920805   3.901   3.419   7.361 -0.1514 -0.3499 -0.4869
  182SOPE   H9120806   3.975   3.425   7.280  1.9259  1.0086  1.3906
  182SOPE  C21020807   3.936   3.486   7.472  0.6462  0.1530 -0.2407
  182SOPE  H10120808   4.022   3.552   7.454 -0.8544  2.6468  1.1186
  182SOPE  C21120809   3.876   3.506   7.605  0.0045 -0.3854  0.3510
  182SOPE  H11R20810   3.796   3.432   7.627  0.8079 -1.1524  0.7623
  182SOPE  H11S20811   3.831   3.607   7.613  0.9469  0.1377 -0.7611
  182SOPE  C21220812   3.983   3.488   7.719  0.2618 -0.1405  0.3607
  182SOPE  H12R20813   4.041   3.582   7.718 -2.1990  1.4577 -0.0168
  182SOPE  H12S20814   4.044   3.398   7.692  0.6511  0.0341  0.6510
  182SOPE  C21320815   3.926   3.454   7.857  1.0890 -0.6942  1.0939
  182SOPE  H13R20816   3.856   3.367   7.854 -2.3177  1.8622  0.1374
  182SOPE  H13S20817   3.858   3.537   7.885  1.1115  0.2503 -1.3713
  182SOPE  C21420818   4.036   3.439   7.971 -0.0399  0.1344 -0.0741
  182SOPE  H14R20819   4.077   3.539   7.995 -1.2090  0.0972  2.3672
  182SOPE  H14S20820   4.110   3.364   7.936 -0.1573 -0.0670  0.1117
  182SOPE  C21520821   3.980   3.392   8.109  0.5594 -0.2829  0.1482
  182SOPE  H15R20822   3.944   3.288   8.095 -1.6626  0.4810 -0.1847
  182SOPE  H15S20823   3.894   3.460   8.124  0.8226  0.6812 -2.2060
  182SOPE  C21620824   4.077   3.407   8.228  0.0971  0.3743 -0.7939
  182SOPE  H16R20825   4.125   3.506   8.215  0.5275  0.1886 -0.6646
  182SOPE  H16S20826   4.151   3.325   8.211 -0.2078 -0.7984  2.7417
  182SOPE  C21720827   4.002   3.383   8.362 -0.1437  0.2489  0.3124
  182SOPE  H17R20828   3.926   3.465   8.364 -0.9166 -0.3934  3.6790
  182SOPE  H17S20829   4.079   3.396   8.441 -1.0939  0.5714  1.2157
  182SOPE  C21820830   3.937   3.245   8.378 -0.1112  0.2500  0.2964
  182SOPE  H18R20831   3.913   3.231   8.486  1.5837  2.4884  1.0454
  182SOPE  H18S20832   4.001   3.157   8.354  1.7140  2.0229 -1.7811
  182SOPE  H18T20833   3.841   3.239   8.323  0.5187 -2.0074 -0.6703
  182SOPE   C3320834   3.420   3.267   6.792 -0.3062 -0.0434 -0.3286
  182SOPE   H3X20835   3.381   3.369   6.771 -2.0079 -0.8000 -1.0853
  182SOPE   H3Y20836   3.525   3.279   6.827 -0.3637 -0.5470  0.0257
  182SOPE   C3420837   3.353   3.202   6.906 -0.2471  0.1840 -0.0144
  182SOPE   H4X20838   3.376   3.093   6.911 -1.0521  0.0308  4.7975
  182SOPE   H4Y20839   3.243   3.187   6.901 -0.2393  0.4182 -1.3775
  182SOPE   C3520840   3.380   3.263   7.041 -0.3234  1.0833 -0.8181
  182SOPE   H5X20841   3.323   3.357   7.057  0.0490  1.1326  0.3313
  182SOPE   H5Y20842   3.485   3.296   7.056 -0.5777  0.3252  4.3347
  182SOPE   C3620843   3.358   3.178   7.164 -0.8928 -0.4214 -0.0201
  182SOPE   H6X20844   3.426   3.092   7.176  0.3452  0.6474  0.9597
  182SOPE   H6Y20845   3.253   3.143   7.152 -0.1632 -2.2495 -1.6181
  182SOPE   C3720846   3.378   3.253   7.300 -0.0667  1.1683 -0.3169
  182SOPE   H7X20847   3.336   3.355   7.298 -0.1630  1.1163 -1.4813
  182SOPE   H7Y20848   3.488   3.257   7.318 -0.1786  0.1658  0.7239
  182SOPE   C3820849   3.325   3.178   7.424  0.6595 -0.0314 -0.3666
  182SOPE   H8X20850   3.387   3.092   7.457 -0.9582 -0.2976  2.2702
  182SOPE   H8Y20851   3.218   3.153   7.404  0.4641  1.0685 -0.7777
  182SOPE   C3920852   3.316   3.267   7.545 -0.5970  0.4310  0.0853
  182SOPE   H9X20853   3.267   3.364   7.523  0.6115  0.8978 -0.6897
  182SOPE   H9Y20854   3.422   3.284   7.576 -0.6384  2.1343 -0.5910
  182SOPE  C31020855   3.252   3.193   7.666 -0.1704 -0.7189  0.7914
  182SOPE  H10X20856   3.305   3.096   7.678  0.2455 -0.7463 -0.9730
  182SOPE  H10Y20857   3.145   3.177   7.639 -0.5973  1.0096  1.3008
  182SOPE  C31120858   3.273   3.268   7.793  0.4817  0.2851 -0.5136
  182SOPE  H11X20859   3.240   3.374   7.801  0.4057  0.2017  0.4168
  182SOPE  H11Y20860   3.383   3.279   7.786  0.6643 -1.4244 -0.7192
  182SOPE  C31220861   3.226   3.198   7.924  0.6038 -0.0280 -1.0205
  182SOPE  H12X20862   3.223   3.089   7.908  0.2440 -0.5138  1.7724
  182SOPE  H12Y20863   3.128   3.234   7.963  1.5745  1.1946  0.3998
  182SOPE  C31320864   3.319   3.215   8.050  0.3795  0.4855  0.4746
  182SOPE  H13X20865   3.268   3.166   8.136  0.1433 -1.1720 -0.5487
  182SOPE  H13Y20866   3.322   3.324   8.069  3.3264  0.7532 -1.0380
  182SOPE  C31420867   3.463   3.161   8.028  0.2914 -0.1227 -0.5483
  182SOPE  H14X20868   3.515   3.163   8.127 -2.9558  4.1526  1.3912
  182SOPE  H14Y20869   3.511   3.229   7.955 -1.3089  0.8295 -0.7521
  182SOPE  C31520870   3.465   3.012   7.980 -0.1452 -0.5697  0.3483
  182SOPE  H15X20871   3.412   2.998   7.883  2.3219  0.7562 -1.3085
  182SOPE  H15Y20872   3.424   2.953   8.064 -1.7030  1.8069  1.3704
  182SOPE  C31620873   3.618   2.972   7.963 -0.0680 -0.6242  0.2062
  182SOPE  H16X20874   3.668   3.019   8.050  0.6728 -0.1126 -0.4843
  182SOPE  H16Y20875   3.658   3.019   7.870  0.0317 -1.1586 -0.0262
  182SOPE  C31720876   3.636   2.826   7.970  0.0696  0.0732  0.0149
  182SOPE  H17X20877   3.579   2.774   7.890 -0.4408  0.5899  0.0419
  182SOPE  H17Y20878   3.587   2.798   8.065  0.4602 -0.0550  0.1773
  182SOPE  C31820879   3.781   2.782   7.945  0.2793 -0.4804 -0.1939
  182SOPE  H18X20880   3.814   2.828   7.850  0.5391  0.3396  0.2790
  182SOPE  H18Y20881   3.783   2.672   7.959  0.6763 -0.3443  0.9520
  182SOPE  H18Z20882   3.842   2.814   8.033 -0.1160  0.8064 -0.3655
  183SOPE     N20883   6.537   1.107   6.273  0.6416 -0.3539 -0.4846
  183SOPE   HN120884   6.550   1.184   6.342  0.5098  1.6898 -2.6189
  183SOPE   HN220885   6.433   1.107   6.270  0.6245 -1.0886 -0.0725
  183SOPE   HN320886   6.569   1.017   6.314  1.4092 -0.8057 -2.0073
  183SOPE   C1220887   6.594   1.136   6.133 -0.1146 -0.3698  0.1798
  183SOPE  H12A20888   6.535   1.077   6.060  0.3234 -0.3793 -0.1723
  183SOPE  H12B20889   6.701   1.106   6.128  0.0078  0.2736 -3.6788
  183SOPE   C1120890   6.595   1.287   6.107 -0.2488  0.3483 -0.2045
  183SOPE  H11A20891   6.618   1.307   6.000  0.5768 -2.7037 -0.6807
  183SOPE  H11B20892   6.681   1.325   6.166  0.3425 -1.4275  0.1142
  183SOPE     P20893   6.464   1.506   6.119  0.1604  0.2632  0.0708
  183SOPE   O1320894   6.333   1.563   6.117  0.5238  0.2943  0.9418
  183SOPE   O1420895   6.570   1.558   6.026  0.6297  0.1595  0.4221
  183SOPE   O1220896   6.467   1.351   6.141  0.2092  1.0425  0.8845
  183SOPE   O1120897   6.517   1.549   6.258  0.1279  0.2290  0.2713
  183SOPE    C120898   6.476   1.496   6.385 -0.5181  0.2958  0.2489
  183SOPE    HA20899   6.554   1.496   6.465 -0.8836  0.3246  0.6048
  183SOPE    HB20900   6.461   1.387   6.376 -0.8180  0.2488  1.2163
  183SOPE    C220901   6.344   1.568   6.425  0.7094  0.2304 -0.6678
  183SOPE    HS20902   6.274   1.532   6.346 -1.1437  2.1924 -0.0143
  183SOPE   O2120903   6.345   1.713   6.418 -0.4233 -0.1958 -0.3258
  183SOPE   C2120904   6.224   1.768   6.438 -0.6497  0.6210  0.0408
  183SOPE   O2220905   6.116   1.710   6.430 -0.4955 -0.1325 -0.3016
  183SOPE   C2220906   6.246   1.918   6.442 -0.3324 -0.9575 -0.0964
  183SOPE   H2R20907   6.249   1.964   6.341 -2.4392 -0.2500  0.1081
  183SOPE   H2S20908   6.342   1.943   6.494 -0.7083 -1.6641  0.9756
  183SOPE    C320909   6.293   1.515   6.565 -0.1180  0.3884 -0.1802
  183SOPE    HX20910   6.276   1.407   6.546  0.1411  0.2729  0.2327
  183SOPE    HY20911   6.191   1.547   6.596 -0.6670 -2.0067  0.6435
  183SOPE   O3120912   6.394   1.514   6.669  0.2188  0.0775 -0.1549
  183SOPE   C3120913   6.388   1.617   6.748  0.5523  0.3536 -0.0641
  183SOPE   O3220914   6.304   1.704   6.746  0.4909  0.4384  0.0816
  183SOPE   C3220915   6.491   1.605   6.852  0.0734  0.2672 -0.0145
  183SOPE   H2X20916   6.527   1.707   6.879 -1.8700  0.4749  2.1673
  183SOPE   H2Y20917   6.572   1.538   6.816  0.1367  0.7652 -0.8326
  183SOPE   C2320918   6.125   1.999   6.510 -0.4933 -0.3358  0.0672
  183SOPE   H3R20919   6.030   1.988   6.455 -0.0600 -2.0625 -0.3868
  183SOPE   H3S20920   6.166   2.103   6.506  0.2557 -0.5527  1.4015
  183SOPE   C2420921   6.098   1.966   6.656  0.0558  0.1021 -0.2609
  183SOPE   H4R20922   6.049   1.866   6.661  1.1037 -0.5464 -1.9665
  183SOPE   H4S20923   6.187   1.960   6.721  1.1530 -1.2298 -1.8048
  183SOPE   C2520924   6.004   2.066   6.725 -0.2158 -0.4890 -0.3027
  183SOPE   H5R20925   5.929   2.094   6.648 -0.8946  2.6656  1.3622
  183SOPE   H5S20926   5.945   2.005   6.797  0.6322 -0.1729  0.6920
  183SOPE   C2620927   6.070   2.184   6.792 -0.2142  0.4401 -0.4658
  183SOPE   H6R20928   6.145   2.147   6.865 -0.7010 -1.5123 -0.9121
  183SOPE   H6S20929   6.127   2.245   6.719 -0.4585 -0.1175 -1.1288
  183SOPE   C2720930   5.965   2.269   6.872  0.1352  0.2927 -0.1436
  183SOPE   H7R20931   5.917   2.333   6.795  2.0071  2.3133  0.2535
  183SOPE   H7S20932   5.893   2.207   6.928 -0.3411  0.6089 -0.4035
  183SOPE   C2820933   6.036   2.362   6.974 -0.7707 -0.6949 -0.1832
  183SOPE   H8R20934   6.071   2.288   7.050  0.3188  0.5098  0.5200
  183SOPE   H8S20935   6.128   2.401   6.925 -0.7822  0.4154  0.6627
  183SOPE   C2920936   5.963   2.477   7.030  0.4424 -0.9302 -0.2131
  183SOPE   H9120937   5.951   2.557   6.955  2.2188 -1.9923 -1.7258
  183SOPE  C21020938   5.916   2.485   7.158 -1.0838 -0.4719 -0.0116
  183SOPE  H10120939   5.871   2.578   7.195  3.4760  0.8358  3.0559
  183SOPE  C21120940   5.931   2.386   7.270 -0.3434  0.7302 -0.0788
  183SOPE  H11R20941   5.999   2.416   7.353 -0.0646 -0.8267  0.2739
  183SOPE  H11S20942   5.967   2.286   7.239 -0.7973 -0.0465  1.7350
  183SOPE  C21220943   5.793   2.346   7.322  0.5327  0.5091 -0.3487
  183SOPE  H12R20944   5.737   2.277   7.255 -0.5027  1.1738 -0.1937
  183SOPE  H12S20945   5.737   2.442   7.327 -1.5216 -0.5940 -1.0062
  183SOPE  C21320946   5.794   2.267   7.453 -0.3056  0.0293  0.5194
  183SOPE  H13R20947   5.863   2.180   7.451 -1.2713 -0.9118  3.3571
  183SOPE  H13S20948   5.693   2.227   7.474 -1.1348  1.9212  0.3409
  183SOPE  C21420949   5.837   2.353   7.584  0.4670 -0.0286  0.4002
  183SOPE  H14R20950   5.761   2.433   7.595  0.5698  0.1642 -0.2316
  183SOPE  H14S20951   5.933   2.405   7.559 -0.1796  0.5122 -1.0952
  183SOPE  C21520952   5.836   2.259   7.708 -0.3429  0.2748 -0.5166
  183SOPE  H15R20953   5.933   2.219   7.745 -0.5291 -2.3106 -2.5262
  183SOPE  H15S20954   5.779   2.166   7.689 -1.3294  0.4474  1.3594
  183SOPE  C21620955   5.782   2.331   7.837  0.0330  0.1543 -0.0423
  183SOPE  H16R20956   5.695   2.390   7.801  0.4859  0.6620 -0.3091
  183SOPE  H16S20957   5.862   2.376   7.900 -1.5626 -1.4955  3.4489
  183SOPE  C21720958   5.722   2.230   7.933  0.6012 -0.1027 -0.4448
  183SOPE  H17R20959   5.791   2.145   7.948 -0.5655 -0.8469  1.0136
  183SOPE  H17S20960   5.625   2.194   7.893  0.6210 -0.3200 -0.2989
  183SOPE  C21820961   5.682   2.291   8.069  1.0692  0.0086  0.7273
  183SOPE  H18R20962   5.612   2.377   8.067  0.1521 -0.6147  2.8179
  183SOPE  H18S20963   5.769   2.319   8.133  0.6962 -2.6527  2.5835
  183SOPE  H18T20964   5.637   2.210   8.131  1.3817 -0.9773 -0.3137
  183SOPE   C3320965   6.441   1.529   6.978 -0.0813 -0.0483  0.2088
  183SOPE   H3X20966   6.420   1.421   6.965 -0.0489 -0.2756  1.7998
  183SOPE   H3Y20967   6.348   1.582   7.008 -0.9418 -2.1705  1.5201
  183SOPE   C3420968   6.526   1.557   7.099 -1.2468 -0.2743  0.7887
  183SOPE   H4X20969   6.514   1.657   7.147  0.9713  0.5549 -0.2597
  183SOPE   H4Y20970   6.635   1.553   7.081 -0.9357  0.4714  2.2907
  183SOPE   C3520971   6.488   1.467   7.225  0.1523  0.1173  0.4587
  183SOPE   H5X20972   6.535   1.366   7.225  0.5575  0.2090  3.6477
  183SOPE   H5Y20973   6.378   1.455   7.227 -0.0764 -0.6571 -4.3450
  183SOPE   C3620974   6.542   1.526   7.358  0.2356  0.7013  0.1497
  183SOPE   H6X20975   6.620   1.600   7.329 -0.3376  2.1962  2.1830
  183SOPE   H6Y20976   6.583   1.440   7.416 -3.1746 -0.2758  1.3327
  183SOPE   C3720977   6.437   1.604   7.436 -0.1965 -0.0777 -0.0048
  183SOPE   H7X20978   6.338   1.553   7.429 -0.3134  0.3959 -3.5781
  183SOPE   H7Y20979   6.416   1.706   7.399 -2.1872 -0.4608 -0.0322
  183SOPE   C3820980   6.481   1.617   7.587  0.0490  0.3941 -0.6538
  183SOPE   H8X20981   6.577   1.673   7.584  0.3873 -0.1086  0.3406
  183SOPE   H8Y20982   6.509   1.512   7.609  0.8329  0.7427  0.0831
  183SOPE   C3920983   6.384   1.680   7.688 -0.1558 -0.4829  0.8898
  183SOPE   H9X20984   6.283   1.634   7.688 -0.4737  0.0317 -2.0064
  183SOPE   H9Y20985   6.365   1.783   7.651 -0.1100 -0.3365  1.2684
  183SOPE  C31020986   6.437   1.697   7.831  0.0241  0.8997  0.4737
  183SOPE  H10X20987   6.387   1.779   7.886  2.7199  2.2470  1.0721
  183SOPE  H10Y20988   6.544   1.728   7.826  0.0297  1.1098  1.7049
  183SOPE  C31120989   6.425   1.564   7.914 -0.2948 -0.1141 -0.2003
  183SOPE  H11X20990   6.442   1.476   7.849  0.9320 -0.5483  0.6919
  183SOPE  H11Y20991   6.317   1.557   7.940 -0.2848 -3.5140 -0.7113
  183SOPE  C31220992   6.513   1.563   8.041  0.2132  0.6718  0.1051
  183SOPE  H12X20993   6.472   1.637   8.112  0.1167  0.1799  0.5660
  183SOPE  H12Y20994   6.617   1.595   8.021  0.2163  0.0629 -0.9644
  183SOPE  C31320995   6.516   1.430   8.107  0.3647  0.4805 -0.0589
  183SOPE  H13X20996   6.566   1.351   8.048  1.5415 -0.1914  1.7758
  183SOPE  H13Y20997   6.412   1.395   8.128  0.1908  0.6955 -0.5291
  183SOPE  C31420998   6.585   1.430   8.245  0.5702  0.1467  0.2998
  183SOPE  H14X20999   6.676   1.492   8.258  0.2478  0.8855 -0.8592
  183SOPE  H14Y21000   6.615   1.326   8.270 -0.7599  0.2187  2.5364
  183SOPE  C31521001   6.490   1.471   8.362 -0.8586  0.0653 -0.4301
  183SOPE  H15X21002   6.392   1.425   8.338 -1.3590  1.3705 -0.9648
  183SOPE  H15Y21003   6.474   1.581   8.358 -0.3930  0.1003 -2.3544
  183SOPE  C31621004   6.537   1.433   8.508 -0.6484 -0.4390  0.3901
  183SOPE  H16X21005   6.644   1.460   8.519 -0.6387 -0.7781  1.1205
  183SOPE  H16Y21006   6.521   1.323   8.510  0.5753 -0.6453 -0.2638
  183SOPE  C31721007   6.457   1.498   8.618 -0.0403 -0.2047 -0.4680
  183SOPE  H17X21008   6.474   1.441   8.712  3.0484 -1.3111 -1.5757
  183SOPE  H17Y21009   6.348   1.502   8.594  0.1976 -0.1853 -1.5877
  183SOPE  C31821010   6.499   1.641   8.654 -0.3422 -0.5710 -0.5231
  183SOPE  H18X21011   6.411   1.686   8.706 -1.7284  1.1426 -4.0008
  183SOPE  H18Y21012   6.514   1.707   8.566 -0.4720  1.8265  1.1450
  183SOPE  H18Z21013   6.591   1.651   8.717 -0.1665 -1.4100 -0.6358
  184SOPE     N21014   5.619   1.372   5.591 -0.6839 -0.0414  0.2619
  184SOPE   HN121015   5.654   1.341   5.498  2.8247  1.2501  1.0026
  184SOPE   HN221016   5.539   1.434   5.568 -0.4982  0.2259  0.3261
  184SOPE   HN321017   5.685   1.440   5.635 -0.3545  0.0167 -0.3127
  184SOPE   C1221018   5.587   1.263   5.691 -0.5939  0.2442 -0.1979
  184SOPE  H12A21019   5.680   1.233   5.743 -1.9890 -0.9683  1.7759
  184SOPE  H12B21020   5.547   1.178   5.630  0.2228  1.2755 -2.2641
  184SOPE   C1121021   5.484   1.303   5.800  0.5968 -0.3763 -0.7537
  184SOPE  H11A21022   5.459   1.220   5.870  0.8195  0.8427  0.8448
  184SOPE  H11B21023   5.393   1.330   5.742 -0.8823  0.4337  1.7760
  184SOPE     P21024   5.428   1.493   5.973  0.4209 -0.3197  0.1888
  184SOPE   O1321025   5.288   1.459   5.932  0.5811 -0.6677  0.2854
  184SOPE   O1421026   5.470   1.633   5.998 -0.0809 -0.1370  0.4126
  184SOPE   O1221027   5.529   1.418   5.873  0.1542  0.2880 -0.2848
  184SOPE   O1121028   5.455   1.420   6.104  0.3535 -0.0418 -0.3016
  184SOPE    C121029   5.583   1.405   6.154  0.8509 -0.3615 -0.6141
  184SOPE    HA21030   5.661   1.444   6.085  1.4113  0.7982  0.6199
  184SOPE    HB21031   5.589   1.296   6.174 -1.6555 -0.2673  1.1571
  184SOPE    C221032   5.607   1.477   6.294 -0.0386  0.2572 -0.0023
  184SOPE    HS21033   5.714   1.461   6.320  0.4024  2.8552 -0.0008
  184SOPE   O2121034   5.522   1.412   6.397 -0.0348  0.1458 -0.1299
  184SOPE   C2121035   5.557   1.292   6.435 -0.2499  0.0864  0.0499
  184SOPE   O2221036   5.663   1.236   6.408 -0.3815  0.7316 -0.1493
  184SOPE   C2221037   5.445   1.238   6.520 -0.6183  0.2985  0.8294
  184SOPE   H2R21038   5.463   1.128   6.523  0.9512  0.3719 -2.0279
  184SOPE   H2S21039   5.350   1.248   6.463 -1.3458 -1.3520  1.6749
  184SOPE    C321040   5.586   1.633   6.282 -0.2977  0.2740  0.3188
  184SOPE    HX21041   5.476   1.648   6.268  0.0783  1.9054 -1.2346
  184SOPE    HY21042   5.632   1.670   6.188  0.7671 -1.5249  0.0945
  184SOPE   O3121043   5.626   1.701   6.402  0.1912  0.0265  0.3903
  184SOPE   C3121044   5.754   1.706   6.420  0.5531 -0.2823 -0.5214
  184SOPE   O3221045   5.838   1.686   6.335  0.5321  0.0586 -0.5563
  184SOPE   C3221046   5.790   1.753   6.567  0.0056 -0.1305 -0.2562
  184SOPE   H2X21047   5.791   1.864   6.564  0.5234 -0.1431 -2.3828
  184SOPE   H2Y21048   5.890   1.708   6.585  0.5642  0.9033 -0.6974
  184SOPE   C2321049   5.430   1.314   6.648  0.3158  0.2715  0.9099
  184SOPE   H3R21050   5.319   1.323   6.653  0.1492  0.8746 -1.9127
  184SOPE   H3S21051   5.473   1.416   6.639 -0.9998  0.7166 -1.1609
  184SOPE   C2421052   5.485   1.256   6.775  0.1369  0.8420 -0.2398
  184SOPE   H4R21053   5.455   1.153   6.803 -0.5706  0.9186 -0.6711
  184SOPE   H4S21054   5.594   1.250   6.758  0.2740  0.1223  0.8389
  184SOPE   C2521055   5.447   1.352   6.891  0.1543 -0.5887 -0.1031
  184SOPE   H5R21056   5.455   1.458   6.859  0.8638 -1.4068 -2.9443
  184SOPE   H5S21057   5.337   1.340   6.907  0.4340 -1.2674  1.5107
  184SOPE   C2621058   5.520   1.306   7.021 -0.8185  0.9048 -0.5135
  184SOPE   H6R21059   5.514   1.196   7.032  3.1373  0.5025 -0.7928
  184SOPE   H6S21060   5.628   1.320   6.997 -0.3543  1.3760  1.6416
  184SOPE   C2721061   5.475   1.380   7.141  0.1969  0.2591 -0.4209
  184SOPE   H7R21062   5.486   1.487   7.112  2.0080 -0.4333 -2.5496
  184SOPE   H7S21063   5.367   1.359   7.152  0.5514 -2.2848 -1.3313
  184SOPE   C2821064   5.548   1.348   7.276 -0.0393 -0.2847  0.2128
  184SOPE   H8R21065   5.477   1.383   7.353  0.2779 -1.0072  0.8384
  184SOPE   H8S21066   5.558   1.238   7.283  2.0940 -0.3402 -2.1421
  184SOPE   C2921067   5.689   1.403   7.269 -0.2393  0.3784  0.2809
  184SOPE   H9121068   5.740   1.439   7.179  1.5474 -2.7420 -0.0693
  184SOPE  C21021069   5.761   1.386   7.381 -0.1501 -0.3278 -0.7015
  184SOPE  H10121070   5.854   1.442   7.395 -0.5545  0.2406 -0.2566
  184SOPE  C21121071   5.714   1.327   7.508  0.6412 -0.0896 -0.2727
  184SOPE  H11R21072   5.745   1.222   7.524  1.7210  0.5427  2.3687
  184SOPE  H11S21073   5.604   1.340   7.517  0.6535 -0.1014 -0.1094
  184SOPE  C21221074   5.759   1.397   7.638 -0.6000 -0.1302 -0.4232
  184SOPE  H12R21075   5.750   1.507   7.626  1.9416  0.0179 -1.5931
  184SOPE  H12S21076   5.867   1.378   7.656 -0.7280  0.9110  1.8191
  184SOPE  C21321077   5.697   1.345   7.771  0.5531 -0.4353  0.6214
  184SOPE  H13R21078   5.755   1.384   7.857  0.8908 -0.4169  0.3861
  184SOPE  H13S21079   5.709   1.235   7.783 -2.2630 -0.8873  0.0336
  184SOPE  C21421080   5.551   1.383   7.791  0.3564  0.3201 -0.8642
  184SOPE  H14R21081   5.496   1.325   7.714 -0.3057 -0.9861  0.5486
  184SOPE  H14S21082   5.536   1.493   7.781  1.7547  0.9689  2.7454
  184SOPE  C21521083   5.501   1.341   7.932  0.5180  0.0411  0.3118
  184SOPE  H15R21084   5.573   1.380   8.007  0.9468  1.3850 -0.7638
  184SOPE  H15S21085   5.505   1.230   7.940  1.2142  0.1649  2.4078
  184SOPE  C21621086   5.356   1.391   7.965  0.4582  0.7503  0.3303
  184SOPE  H16R21087   5.342   1.371   8.073 -3.7620 -0.4864 -0.2931
  184SOPE  H16S21088   5.275   1.330   7.921  0.5592  0.2799  0.7846
  184SOPE  C21721089   5.325   1.540   7.956  0.1184  0.3661 -0.5328
  184SOPE  H17R21090   5.309   1.573   7.851 -0.1298 -0.9027 -0.9106
  184SOPE  H17S21091   5.418   1.586   7.994  0.9378 -1.0608 -0.7713
  184SOPE  C21821092   5.206   1.600   8.040 -0.1150 -0.8559 -0.2569
  184SOPE  H18R21093   5.108   1.567   8.000 -1.3257  2.6741 -0.5855
  184SOPE  H18S21094   5.186   1.706   8.012 -0.6828 -0.8861  0.0432
  184SOPE  H18T21095   5.215   1.588   8.150  3.0276  0.0581 -0.2949
  184SOPE   C3321096   5.677   1.707   6.676  0.2453 -0.5258  0.4109
  184SOPE   H3X21097   5.671   1.596   6.672 -2.3702 -0.4337 -0.2949
  184SOPE   H3Y21098   5.577   1.748   6.651  0.5631  0.6094  0.9504
  184SOPE   C3421099   5.713   1.752   6.815 -0.5743  0.4950 -0.4294
  184SOPE   H4X21100   5.747   1.858   6.807  0.7788  0.2570  1.5780
  184SOPE   H4Y21101   5.792   1.690   6.862 -3.1325 -3.2667 -0.6876
  184SOPE   C3521102   5.592   1.756   6.917  0.2441 -0.3426 -0.2755
  184SOPE   H5X21103   5.562   1.653   6.946  0.6155 -0.4414 -0.2492
  184SOPE   H5Y21104   5.510   1.811   6.865  0.5684  1.2806  0.8480
  184SOPE   C3621105   5.625   1.835   7.043  1.3845 -0.4482 -0.5538
  184SOPE   H6X21106   5.662   1.938   7.028  2.3197 -0.7735 -0.5339
  184SOPE   H6Y21107   5.688   1.771   7.108 -1.0496 -2.8154 -0.3253
  184SOPE   C3721108   5.499   1.850   7.134  0.9022 -0.3744  0.6549
  184SOPE   H7X21109   5.488   1.752   7.186  1.8351 -1.1081 -0.4638
  184SOPE   H7Y21110   5.408   1.864   7.071  0.1985 -0.3320  1.6522
  184SOPE   C3821111   5.502   1.950   7.245 -1.0154 -0.5292 -0.2725
  184SOPE   H8X21112   5.397   1.987   7.254 -1.2271 -0.5715 -2.1141
  184SOPE   H8Y21113   5.579   2.026   7.221 -1.2005 -0.8943 -2.1827
  184SOPE   C3921114   5.527   1.877   7.371 -0.4674 -0.2467 -0.3331
  184SOPE   H9X21115   5.620   1.819   7.352  0.6033  0.8976  1.2017
  184SOPE   H9Y21116   5.456   1.792   7.378  2.1723 -2.5255  0.5233
  184SOPE  C31021117   5.529   1.960   7.500  0.1638 -0.0452 -0.2071
  184SOPE  H10X21118   5.449   2.037   7.506  0.2412 -0.0398  1.1547
  184SOPE  H10Y21119   5.617   2.027   7.514  0.1707 -0.4633  2.3123
  184SOPE  C31121120   5.530   1.864   7.628  0.8273  0.0518  0.6798
  184SOPE  H11X21121   5.624   1.805   7.632  1.9458  1.6241 -1.0669
  184SOPE  H11Y21122   5.440   1.799   7.631 -0.0168  1.2127  2.8631
  184SOPE  C31221123   5.522   1.932   7.764 -0.7840  0.2139 -0.1997
  184SOPE  H12X21124   5.445   2.012   7.759  0.1330  1.1024 -0.4894
  184SOPE  H12Y21125   5.618   1.986   7.786 -1.1721  0.6052  0.5983
  184SOPE  C31321126   5.493   1.844   7.879 -0.3710  0.1517  0.0178
  184SOPE  H13X21127   5.554   1.751   7.883  0.9862  1.0131  0.2893
  184SOPE  H13Y21128   5.387   1.813   7.867 -0.6873  1.0641  0.3578
  184SOPE  C31421129   5.493   1.902   8.022 -0.0519  0.4117  0.2895
  184SOPE  H14X21130   5.594   1.909   8.068 -0.4538 -1.2453  1.5239
  184SOPE  H14Y21131   5.439   1.824   8.079 -1.8731  1.6281  0.2984
  184SOPE  C31521132   5.416   2.028   8.041  0.1428  0.5794 -0.0465
  184SOPE  H15X21133   5.448   2.110   7.974 -0.6052 -0.2688 -1.4695
  184SOPE  H15Y21134   5.414   2.057   8.149 -1.0857 -0.3990  0.2181
  184SOPE  C31621135   5.266   2.012   8.001 -0.5257 -0.2232  0.2678
  184SOPE  H16X21136   5.219   1.936   8.068 -3.0850  0.8173 -0.2528
  184SOPE  H16Y21137   5.260   1.973   7.897 -0.5656  0.0801  0.1568
  184SOPE  C31721138   5.187   2.150   8.007 -0.4150 -0.6493 -0.1327
  184SOPE  H17X21139   5.238   2.219   7.936  1.1394 -0.9273  0.6757
  184SOPE  H17Y21140   5.201   2.196   8.107 -0.2931 -0.0290 -0.4333
  184SOPE  C31821141   5.037   2.145   7.971 -0.5373 -0.0266  0.4170
  184SOPE  H18X21142   5.015   2.105   7.870  0.4943  0.9313 -0.2042
  184SOPE  H18Y21143   4.991   2.246   7.971  0.3351  0.3768  0.6974
  184SOPE  H18Z21144   4.980   2.075   8.036 -0.6606 -0.1858  0.1392
  185SAPI   C1221145   2.435   6.424  11.117 -0.4244 -0.4119 -0.1979
  185SAPI    H221146   2.375   6.453  11.028 -0.0585 -2.2532 -1.1169
  185SAPI    O221147   2.417   6.511  11.229  0.0928 -0.3546 -0.1332
  185SAPI   HO221148   2.327   6.506  11.264  1.6598 -0.5938  4.5763
  185SAPI   C1321149   2.391   6.280  11.143 -0.3400 -0.3877 -1.0779
  185SAPI    H321150   2.406   6.212  11.057 -1.5931  0.6850 -2.1899
  185SAPI    O321151   2.250   6.277  11.162 -0.4796  0.1563  0.7721
  185SAPI   HO321152   2.208   6.236  11.087  1.5198  1.7330 -1.3723
  185SAPI   C1421153   2.475   6.218  11.261 -0.6494 -0.6236 -0.2674
  185SAPI    H421154   2.467   6.281  11.352 -1.6745  0.0435 -0.7896
  185SAPI    O421155   2.430   6.087  11.300  0.1459  0.5138  0.3237
  185SAPI   HO421156   2.480   6.065  11.379  1.2971 -1.6510 -0.9169
  185SAPI   C1521157   2.624   6.221  11.227  0.3005 -0.7720  0.3123
  185SAPI    H521158   2.636   6.148  11.144 -1.9444 -1.3127  0.3976
  185SAPI    O521159   2.699   6.174  11.338 -0.2022 -0.2437 -0.4290
  185SAPI   HO521160   2.770   6.127  11.292  1.6071  1.0845  0.8507
  185SAPI   C1621161   2.662   6.367  11.181 -0.3104 -0.9119  0.0308
  185SAPI    H621162   2.657   6.427  11.274  0.2345 -1.2788  0.2980
  185SAPI    O621163   2.797   6.374  11.130  0.1194 -0.4605 -0.7925
  185SAPI   HO621164   2.826   6.462  11.155 -0.8887 -0.2626 -0.2725
  185SAPI   C1121165   2.579   6.422  11.068 -0.8033  0.5006  0.4047
  185SAPI    H121166   2.591   6.356  10.979 -0.3325  2.7882 -1.3031
  185SAPI     P21167   2.613   6.611  10.875 -0.3109 -0.4396  0.0055
  185SAPI   O1321168   2.602   6.761  10.883 -0.3513  0.4849 -0.1108
  185SAPI   O1421169   2.522   6.542  10.785 -0.0072 -0.0382  0.4176
  185SAPI   O1221170   2.604   6.555  11.030  0.6272 -0.1696  0.3902
  185SAPI   O1121171   2.761   6.573  10.836 -0.3608  0.3573  0.5596
  185SAPI    C121172   2.886   6.616  10.896  0.4220 -0.0195  0.3219
  185SAPI    HA21173   2.872   6.707  10.958 -0.4365 -0.6299  1.0618
  185SAPI    HB21174   2.920   6.532  10.960 -2.4073 -0.9758  0.7165
  185SAPI    C221175   2.995   6.644  10.798 -0.3677 -0.0280 -0.4875
  185SAPI    HS21176   3.072   6.705  10.850 -0.1546  1.7529 -2.7192
  185SAPI   O2121177   2.949   6.704  10.681  0.1696  0.0730 -0.6859
  185SAPI   C2121178   2.914   6.831  10.692 -0.7473 -0.5063 -0.0524
  185SAPI   O2221179   2.931   6.905  10.790 -0.1936 -0.2920  0.2312
  185SAPI   C2221180   2.835   6.878  10.566 -0.1196  0.4282  0.0841
  185SAPI   H2R21181   2.845   6.989  10.561 -0.2321  0.3906 -2.8536
  185SAPI   H2S21182   2.875   6.845  10.468 -1.3486  0.1132 -0.3217
  185SAPI    C321183   3.079   6.521  10.766  0.0306 -0.5031  0.0428
  185SAPI    HX21184   3.008   6.452  10.717 -0.3155  0.2550 -0.5517
  185SAPI    HY21185   3.105   6.477  10.864  0.2321 -1.2059 -0.3217
  185SAPI   O3121186   3.203   6.558  10.699 -0.0559  0.2825  0.3743
  185SAPI   C3121187   3.286   6.460  10.679 -0.2278 -0.0048  0.4904
  185SAPI   O3221188   3.268   6.340  10.699  0.2958  0.4150 -0.0441
  185SAPI   C3221189   3.418   6.508  10.615  0.0384  0.6026  0.2398
  185SAPI   H2X21190   3.484   6.530  10.701  2.6552 -3.6170 -0.3847
  185SAPI   H2Y21191   3.385   6.589  10.546 -0.3666 -1.5734 -2.3017
  185SAPI   C2321192   2.689   6.837  10.566  0.1420  0.5604  0.0009
  185SAPI   H3R21193   2.628   6.883  10.647  1.6767  0.9719  0.9581
  185SAPI   H3S21194   2.675   6.728  10.581 -0.9297  0.9945  2.7530
  185SAPI   C2421195   2.618   6.883  10.428  0.1242  0.6075 -0.6857
  185SAPI   H4R21196   2.700   6.868  10.355 -0.5290  2.3765 -1.8336
  185SAPI   H4S21197   2.578   6.986  10.435 -2.3444 -0.3544  0.4961
  185SAPI   C2521198   2.502   6.800  10.385  0.7162 -0.0603  0.1811
  185SAPI   H5R21199   2.407   6.845  10.416  0.0648 -1.0228 -0.3484
  185SAPI   C2621200   2.507   6.674  10.330  0.3663 -0.6011  0.0686
  185SAPI   H6R21201   2.412   6.620  10.316 -0.0873  0.1923  0.0494
  185SAPI   C2721202   2.626   6.590  10.290 -0.1675  0.3219  0.0562
  185SAPI   H7R21203   2.618   6.488  10.332  1.2492 -0.1379 -0.6980
  185SAPI   H7S21204   2.715   6.629  10.344  0.1879 -2.3406  1.5702
  185SAPI   C2821205   2.650   6.603  10.138  0.4245 -0.5694  0.1845
  185SAPI   H8R21206   2.641   6.705  10.097 -2.0652 -0.8539 -0.1408
  185SAPI   C2921207   2.675   6.500  10.048 -0.1648 -0.1955  0.1434
  185SAPI   H9R21208   2.701   6.528   9.945 -1.0714 -0.1238 -0.0692
  185SAPI  C21021209   2.662   6.348  10.081  1.5059 -0.7988  0.1601
  185SAPI  H10R21210   2.554   6.320  10.079  1.2197  0.1390  1.3784
  185SAPI  H10S21211   2.683   6.332  10.188  2.9192 -2.0605 -0.2801
  185SAPI  C21121212   2.743   6.252   9.997  0.1473  0.4488 -0.1740
  185SAPI  H11R21213   2.819   6.197  10.055  0.0791  0.3303 -0.1961
  185SAPI  C21221214   2.731   6.232   9.863  0.1648  0.4492  0.5206
  185SAPI  H12R21215   2.796   6.162   9.809 -2.9575 -0.1788 -2.7981
  185SAPI  C21321216   2.640   6.305   9.768  0.7330  0.1887  0.3720
  185SAPI  H13R21217   2.632   6.410   9.804  3.4995  0.5390  0.1981
  185SAPI  H13S21218   2.540   6.257   9.761  1.1527 -0.8089  0.8929
  185SAPI  C21421219   2.699   6.318   9.633 -1.2019  0.4443  0.6299
  185SAPI  H14R21220   2.809   6.310   9.625 -1.0524 -0.9233  3.1528
  185SAPI  C21521221   2.634   6.333   9.519  0.7739 -0.3748 -0.2794
  185SAPI  H15R21222   2.693   6.354   9.428 -1.8664  1.0216 -1.7860
  185SAPI  C21621223   2.490   6.330   9.490  0.2418 -0.3306 -0.3576
  185SAPI  H16R21224   2.459   6.437   9.491 -1.8913 -0.8915 -0.3040
  185SAPI  H16S21225   2.428   6.289   9.574 -1.9844  0.1851 -1.6640
  185SAPI  C21721226   2.430   6.242   9.379 -0.4273  0.3545  0.6508
  185SAPI  H17R21227   2.325   6.276   9.371 -0.7736 -0.9133 -0.4770
  185SAPI  H17S21228   2.431   6.133   9.402  0.5725 -0.3358 -2.2373
  185SAPI  C21821229   2.503   6.250   9.245 -0.3245  0.2776  0.0105
  185SAPI  H18R21230   2.438   6.197   9.173 -0.5285  2.5431 -1.6014
  185SAPI  H18S21231   2.601   6.197   9.250 -0.8421 -0.6173  0.9049
  185SAPI  C21921232   2.521   6.396   9.192 -1.0815 -0.1089 -0.1208
  185SAPI  H19R21233   2.592   6.455   9.254 -1.4659 -0.3152  0.5366
  185SAPI  H19S21234   2.426   6.452   9.203 -1.0348 -0.3879  2.3811
  185SAPI  C22021235   2.558   6.395   9.043  0.1977  0.3503 -0.0056
  185SAPI  H20R21236   2.475   6.360   8.978  1.0825  0.5863 -1.3261
  185SAPI  H20S21237   2.653   6.337   9.032 -0.3858 -0.9403  1.4482
  185SAPI  H20T21238   2.585   6.496   9.006 -0.2694  0.3510 -0.3453
  185SAPI   C3321239   3.488   6.396  10.537  0.0378 -0.1916  0.2759
  185SAPI   H3X21240   3.411   6.352  10.469  0.9925  0.4155 -1.2596
  185SAPI   H3Y21241   3.523   6.324  10.614  2.8725  2.6244  1.8474
  185SAPI   C3421242   3.610   6.450  10.466  0.1740  0.0805  0.2701
  185SAPI   H4X21243   3.681   6.476  10.547  0.7077  0.7321 -0.3918
  185SAPI   H4Y21244   3.583   6.547  10.419 -0.5981 -0.0845  0.3513
  185SAPI   C3521245   3.686   6.359  10.366  0.4391  0.0876  0.0790
  185SAPI   H5X21246   3.707   6.258  10.406 -0.1848  0.5256  1.5828
  185SAPI   H5Y21247   3.785   6.405  10.345  0.0424  0.9080 -0.0539
  185SAPI   C3621248   3.608   6.323  10.239  0.2198 -0.1298  0.5082
  185SAPI   H6X21249   3.595   6.416  10.179  0.4384 -2.1630 -2.9767
  185SAPI   H6Y21250   3.510   6.276  10.259  0.1389  0.1094  0.6701
  185SAPI   C3721251   3.684   6.222  10.147 -0.3818  0.1426  0.9535
  185SAPI   H7X21252   3.710   6.132  10.206  2.2309  1.0152  1.2518
  185SAPI   H7Y21253   3.779   6.262  10.104  0.9811 -4.0749 -0.4270
  185SAPI   C3821254   3.588   6.183  10.026  0.6273  0.1953  0.9881
  185SAPI   H8X21255   3.500   6.119  10.046  0.2188  0.2868 -0.3840
  185SAPI   H8Y21256   3.663   6.135   9.959  0.2736 -0.4444  1.0470
  185SAPI   C3921257   3.539   6.308   9.944 -0.4225  0.0163 -0.2280
  185SAPI   H9X21258   3.621   6.376   9.912 -0.1408 -0.7097 -1.0970
  185SAPI   H9Y21259   3.470   6.355  10.017 -3.0246 -0.8764 -1.9600
  185SAPI  C31021260   3.472   6.258   9.812  0.4149 -0.2353 -0.3163
  185SAPI  H10X21261   3.421   6.351   9.781 -0.0311 -0.8261 -1.3960
  185SAPI  H10Y21262   3.400   6.180   9.844 -0.1451  0.0228 -0.9279
  185SAPI  C31121263   3.564   6.222   9.699 -0.2220 -0.7710  0.4944
  185SAPI  H11X21264   3.617   6.129   9.726  3.6986  1.3419  0.7690
  185SAPI  H11Y21265   3.646   6.297   9.697 -0.1566 -0.8181  1.3414
  185SAPI  C31221266   3.494   6.219   9.562  0.6732 -0.5345  0.5849
  185SAPI  H12X21267   3.463   6.324   9.542 -0.2429 -0.8499  0.3422
  185SAPI  H12Y21268   3.408   6.150   9.551 -0.4326  1.1201 -2.5835
  185SAPI  C31321269   3.597   6.176   9.459 -0.0653 -0.0016 -0.0487
  185SAPI  H13X21270   3.631   6.070   9.469  0.1072  0.1396  0.9194
  185SAPI  H13Y21271   3.689   6.233   9.482  0.3470 -0.9602  0.8038
  185SAPI  C31421272   3.557   6.214   9.316 -0.0753 -0.0754  0.0902
  185SAPI  H14X21273   3.523   6.320   9.305  0.3094 -0.1588 -2.5243
  185SAPI  H14Y21274   3.465   6.159   9.286  0.5978 -1.5641  0.6773
  185SAPI  C31521275   3.675   6.196   9.223  0.4286 -0.5142 -0.2662
  185SAPI  H15X21276   3.708   6.090   9.225  0.0697 -0.6417 -1.0135
  185SAPI  H15Y21277   3.754   6.267   9.258  0.3057 -1.3885  1.9829
  185SAPI  C31621278   3.635   6.232   9.075 -0.2329  0.5764 -0.1415
  185SAPI  H16X21279   3.597   6.336   9.083 -1.0079  0.2809  0.1419
  185SAPI  H16Y21280   3.542   6.174   9.055  0.2167 -0.3775  0.4463
  185SAPI  C31721281   3.738   6.209   8.961  0.5670 -0.4074  0.4753
  185SAPI  H17X21282   3.813   6.288   8.984  0.3099  0.3449 -1.1469
  185SAPI  H17Y21283   3.704   6.233   8.858 -0.1366 -2.5823  0.1607
  185SAPI  C31821284   3.805   6.073   8.967 -0.0655  0.3167 -0.7927
  185SAPI  H18X21285   3.723   6.000   8.983 -1.0523  1.4038 -0.7756
  185SAPI  H18Y21286   3.883   6.079   9.047  2.1915  4.3022 -2.9891
  185SAPI  H18Z21287   3.861   6.049   8.874 -1.8862 -1.7609 -1.4251
  186SAPI   C1221288   3.759   4.659  10.970 -0.1235 -0.0758  0.5723
  186SAPI    H221289   3.818   4.565  10.968  0.7801  0.4695 -1.1782
  186SAPI    O221290   3.659   4.636  11.073 -0.6730 -0.6768  0.3205
  186SAPI   HO221291   3.618   4.549  11.063 -0.8372 -0.5961  0.2834
  186SAPI   C1321292   3.851   4.774  11.006  0.6564  0.4851 -0.5260
  186SAPI    H321293   3.927   4.780  10.926  2.2101  0.7721  0.9122
  186SAPI    O321294   3.922   4.745  11.123 -0.3012  0.1490 -0.4852
  186SAPI   HO321295   3.858   4.735  11.194 -0.0262 -0.0910 -0.2685
  186SAPI   C1421296   3.779   4.908  11.019 -0.2450 -0.4421  0.0748
  186SAPI    H421297   3.702   4.900  11.099  0.9277 -0.1972  1.2813
  186SAPI    O421298   3.871   5.014  11.051 -0.1350 -0.1378 -0.3575
  186SAPI   HO421299   3.814   5.092  11.054 -0.2652 -0.2527  0.6049
  186SAPI   C1521300   3.709   4.939  10.883 -0.0892  0.0815 -0.0220
  186SAPI    H521301   3.795   4.958  10.815 -0.0578  2.5129  0.6273
  186SAPI    O521302   3.640   5.063  10.896 -0.3998 -0.6017  0.5478
  186SAPI   HO521303   3.552   5.045  10.930 -0.5542 -0.6788  0.1106
  186SAPI   C1621304   3.625   4.820  10.837  0.0462 -0.4582  0.6984
  186SAPI    H621305   3.539   4.812  10.907  0.9571 -0.9142  1.8016
  186SAPI    O621306   3.571   4.850  10.708 -0.2080 -0.0535  0.6738
  186SAPI   HO621307   3.516   4.776  10.682 -0.2928 -0.0053  0.7182
  186SAPI   C1121308   3.699   4.691  10.836  0.6837 -0.6082  0.9405
  186SAPI    H121309   3.776   4.699  10.757 -1.5981 -1.5947 -1.5490
  186SAPI     P21310   3.642   4.445  10.737 -0.2949 -0.4642 -0.0134
  186SAPI   O1321311   3.521   4.361  10.721  0.4246  0.0998  0.4476
  186SAPI   O1421312   3.758   4.386  10.799  0.4299  0.2342 -0.0690
  186SAPI   O1221313   3.603   4.587  10.808 -0.1835  0.5368 -0.6070
  186SAPI   O1121314   3.683   4.507  10.595 -0.6726  0.4401 -1.1245
  186SAPI    C121315   3.579   4.530  10.499 -0.8073  0.7006 -0.0742
  186SAPI    HA21316   3.536   4.430  10.478 -0.3901  0.7839 -1.4288
  186SAPI    HB21317   3.506   4.597  10.549  1.0261  0.8297  2.6461
  186SAPI    C221318   3.643   4.581  10.367  0.2415 -0.2651  0.1655
  186SAPI    HS21319   3.727   4.515  10.338 -1.4098 -1.7505 -1.5376
  186SAPI   O2121320   3.695   4.712  10.402 -0.1159 -0.2841 -0.5225
  186SAPI   C2121321   3.814   4.726  10.458  0.3984  0.2736 -0.8481
  186SAPI   O2221322   3.896   4.636  10.482  0.7526  0.3363 -0.2085
  186SAPI   C2221323   3.833   4.874  10.487  0.2522  0.3887 -0.3455
  186SAPI   H2R21324   3.733   4.923  10.490  0.0030 -0.1209 -0.2102
  186SAPI   H2S21325   3.882   4.871  10.587  1.2564 -1.2072 -0.8370
  186SAPI    C321326   3.540   4.587  10.245  0.1119 -0.9629  0.1654
  186SAPI    HX21327   3.458   4.655  10.276 -0.0987 -2.1064  2.3013
  186SAPI    HY21328   3.503   4.483  10.230 -0.3788 -0.6645 -0.7728
  186SAPI   O3121329   3.609   4.638  10.133 -0.1625 -0.3026  0.9278
  186SAPI   C3121330   3.558   4.603  10.015  0.7278  0.0474  0.4686
  186SAPI   O3221331   3.479   4.511   9.999  0.1220  0.4515  0.2339
  186SAPI   C3221332   3.630   4.688   9.911 -0.1745  0.2407  0.4154
  186SAPI   H2X21333   3.727   4.720   9.954 -0.2158 -2.5248  2.8660
  186SAPI   H2Y21334   3.561   4.773   9.889 -0.3615  0.2097  0.8740
  186SAPI   C2321335   3.916   4.926  10.369 -0.4818  0.7584 -0.7142
  186SAPI   H3R21336   4.019   4.885  10.378 -0.4708  1.0875  1.0525
  186SAPI   H3S21337   3.933   5.036  10.371  1.1527  0.5245  1.1852
  186SAPI   C2421338   3.843   4.919  10.227  0.0607  0.1696 -0.4563
  186SAPI   H4R21339   3.768   5.001  10.229  0.5441  0.6483 -1.2893
  186SAPI   H4S21340   3.788   4.824  10.216 -1.6858  0.9399  1.1700
  186SAPI   C2521341   3.938   4.937  10.110  0.5497 -0.1681 -0.5696
  186SAPI   H5R21342   4.045   4.927  10.131  0.7150  0.4063 -1.1304
  186SAPI   C2621343   3.910   4.987   9.988 -0.1569 -0.2472 -0.2710
  186SAPI   H6R21344   3.989   4.981   9.913 -1.5006 -1.0208 -1.6888
  186SAPI   C2721345   3.778   5.027   9.921  0.9084  0.3027  0.1982
  186SAPI   H7R21346   3.696   5.011   9.994 -0.8385  0.8950 -1.5541
  186SAPI   H7S21347   3.761   4.958   9.835  0.0184  1.4640 -0.5947
  186SAPI   C2821348   3.766   5.171   9.868  0.0058 -0.7298 -1.1183
  186SAPI   H8R21349   3.822   5.234   9.938 -1.5550 -1.6145  1.0440
  186SAPI   C2921350   3.709   5.220   9.756 -0.2850 -0.4571 -0.3529
  186SAPI   H9R21351   3.714   5.328   9.736 -0.6730 -0.1032  1.3084
  186SAPI  C21021352   3.623   5.141   9.658 -0.3387 -0.8668  0.2126
  186SAPI  H10R21353   3.550   5.216   9.618 -1.7858 -2.1798  0.3013
  186SAPI  H10S21354   3.560   5.069   9.715  0.5004 -0.9212  1.0801
  186SAPI  C21121355   3.699   5.078   9.540  0.2296 -0.1654 -0.8672
  186SAPI  H11R21356   3.793   5.032   9.574 -0.4516 -0.5103  0.5889
  186SAPI  C21221357   3.671   5.088   9.408 -0.3376 -0.0136 -1.0084
  186SAPI  H12R21358   3.752   5.047   9.345  3.5960  0.5995  3.1639
  186SAPI  C21321359   3.553   5.158   9.340  0.0970  0.2404  0.4907
  186SAPI  H13R21360   3.462   5.179   9.399 -1.6999 -0.2698 -1.9488
  186SAPI  H13S21361   3.518   5.096   9.254 -0.8532 -0.9087  1.6723
  186SAPI  C21421362   3.606   5.281   9.276  0.3205 -0.2365 -0.0854
  186SAPI  H14R21363   3.658   5.340   9.353 -2.1048 -1.4401  2.6700
  186SAPI  C21521364   3.606   5.325   9.150  0.7459 -0.0450  0.4014
  186SAPI  H15R21365   3.652   5.423   9.131 -0.8324  0.6190 -0.2029
  186SAPI  C21621366   3.547   5.256   9.031 -0.1087  0.3670  0.0959
  186SAPI  H16R21367   3.513   5.332   8.958  0.2273 -0.8135 -1.3271
  186SAPI  H16S21368   3.467   5.185   9.060  0.8374 -1.4344 -1.5556
  186SAPI  C21721369   3.656   5.175   8.974 -0.6057  0.2280  0.3595
  186SAPI  H17R21370   3.614   5.107   8.897 -2.0868  2.2034 -0.6766
  186SAPI  H17S21371   3.700   5.106   9.049 -1.3110  2.2838  2.7622
  186SAPI  C21821372   3.764   5.251   8.891 -0.0023  0.1197  0.0019
  186SAPI  H18R21373   3.853   5.185   8.892  0.1139  0.2826  0.6574
  186SAPI  H18S21374   3.780   5.342   8.953  0.4749 -0.5112  0.8286
  186SAPI  C21921375   3.716   5.284   8.748  0.0929  0.1711 -0.0724
  186SAPI  H19R21376   3.632   5.357   8.744  1.1074  1.7245  3.1888
  186SAPI  H19S21377   3.690   5.188   8.699  0.0789  1.4918 -2.8457
  186SAPI  C22021378   3.817   5.335   8.647  0.6365 -0.0266 -0.3282
  186SAPI  H20R21379   3.842   5.438   8.682 -0.0372  0.7884 -2.1362
  186SAPI  H20S21380   3.765   5.347   8.550 -1.3017  0.4543  0.7081
  186SAPI  H20T21381   3.911   5.276   8.647  1.6056  1.2866  2.8912
  186SAPI   C3321382   3.653   4.605   9.783 -0.8704 -0.4343 -0.3701
  186SAPI   H3X21383   3.554   4.568   9.748 -0.2756 -1.7772 -0.6944
  186SAPI   H3Y21384   3.707   4.509   9.800  0.1602  0.2621  0.4579
  186SAPI   C3421385   3.710   4.695   9.674 -0.2455  0.0864  0.3928
  186SAPI   H4X21386   3.804   4.749   9.699  0.2276  0.7873 -2.5085
  186SAPI   H4Y21387   3.635   4.776   9.662  0.8549  0.9277 -1.2124
  186SAPI   C3521388   3.721   4.631   9.536  0.5365  0.4200  0.0788
  186SAPI   H5X21389   3.633   4.572   9.503  1.8409 -1.9684  0.6603
  186SAPI   H5Y21390   3.798   4.552   9.546 -0.1517 -0.1549  1.0802
  186SAPI   C3621391   3.757   4.717   9.420  0.6341  0.2547 -0.7469
  186SAPI   H6X21392   3.835   4.788   9.455 -2.3412  2.9526  0.9961
  186SAPI   H6Y21393   3.675   4.785   9.391 -0.6278 -0.9719 -0.1935
  186SAPI   C3721394   3.817   4.634   9.303  0.8123 -0.0134 -0.4393
  186SAPI   H7X21395   3.741   4.566   9.258  0.4559 -0.2843  0.5470
  186SAPI   H7Y21396   3.882   4.558   9.351  3.0468  3.1968  2.0349
  186SAPI   C3821397   3.898   4.718   9.206 -0.3324 -0.7480 -0.7075
  186SAPI   H8X21398   3.959   4.640   9.156  1.8188  0.1700  0.3714
  186SAPI   H8Y21399   3.965   4.787   9.261 -1.2825  0.9607 -1.5794
  186SAPI   C3921400   3.818   4.806   9.104  0.5652  0.1049 -0.8101
  186SAPI   H9X21401   3.898   4.842   9.035  0.3370 -0.7445 -1.5417
  186SAPI   H9Y21402   3.767   4.892   9.151  1.5601 -1.1891  2.9882
  186SAPI  C31021403   3.720   4.724   9.029 -0.1601  0.2252 -0.1012
  186SAPI  H10X21404   3.667   4.787   8.954 -1.8990 -1.4279 -0.3475
  186SAPI  H10Y21405   3.640   4.700   9.102 -0.6465  2.4752  0.1681
  186SAPI  C31121406   3.780   4.599   8.967 -0.0872  0.3016  0.5243
  186SAPI  H11X21407   3.788   4.531   9.055 -3.1804  0.3510  0.9618
  186SAPI  H11Y21408   3.880   4.625   8.927 -0.0196 -0.8808 -0.1148
  186SAPI  C31221409   3.714   4.519   8.856  0.2267  0.6892  0.6270
  186SAPI  H12X21410   3.679   4.582   8.771  1.6242  1.5730  0.6646
  186SAPI  H12Y21411   3.625   4.465   8.892 -0.4801  1.3911 -0.0351
  186SAPI  C31321412   3.803   4.411   8.796 -0.7411  0.5213 -0.0695
  186SAPI  H13X21413   3.821   4.333   8.873  0.7329 -0.0645 -0.9698
  186SAPI  H13Y21414   3.900   4.461   8.777 -0.2376 -0.4382 -0.0751
  186SAPI  C31421415   3.746   4.333   8.670 -0.9902 -0.2442 -0.2153
  186SAPI  H14X21416   3.819   4.255   8.638 -0.3795  0.5306 -0.7551
  186SAPI  H14Y21417   3.735   4.415   8.597 -0.9267  1.2312  1.3724
  186SAPI  C31521418   3.614   4.271   8.704  0.8713  0.5822 -0.4011
  186SAPI  H15X21419   3.535   4.341   8.668  0.5604 -0.7337 -2.3784
  186SAPI  H15Y21420   3.606   4.243   8.811 -0.1419  1.5442 -0.2100
  186SAPI  C31621421   3.596   4.136   8.628 -0.0185 -0.7692 -0.2607
  186SAPI  H16X21422   3.515   4.086   8.686 -0.2390  0.6580  0.7136
  186SAPI  H16Y21423   3.696   4.092   8.650  1.4178  2.6735  0.7055
  186SAPI  C31721424   3.578   4.171   8.483 -0.5933  0.3892 -0.4693
  186SAPI  H17X21425   3.671   4.222   8.451 -0.7466 -0.1148 -1.7923
  186SAPI  H17Y21426   3.499   4.249   8.476 -0.3057  0.6189 -1.2685
  186SAPI  C31821427   3.553   4.048   8.398 -0.3353 -0.9068 -0.1635
  186SAPI  H18X21428   3.643   3.984   8.387 -1.4287 -2.6657  0.6004
  186SAPI  H18Y21429   3.521   4.083   8.297  0.2278 -0.0644 -0.0560
  186SAPI  H18Z21430   3.472   3.985   8.440 -1.6173 -0.2585 -1.5501
  187SAPI   C1221431   5.644   5.067   6.495 -0.0539 -0.0650  0.3345
  187SAPI    H221432   5.611   4.965   6.526 -1.2489  0.1034 -0.3527
  187SAPI    O221433   5.645   5.149   6.609  0.0744  0.1705  0.2910
  187SAPI   HO221434   5.555   5.181   6.612 -0.1016 -0.2410 -0.2949
  187SAPI   C1321435   5.787   5.068   6.432  0.7791 -0.1771 -0.3967
  187SAPI    H321436   5.779   4.992   6.351  1.0993 -0.5574 -0.0771
  187SAPI    O321437   5.884   5.015   6.527 -0.9269  0.3052  0.7711
  187SAPI   HO321438   5.842   5.008   6.613 -0.7260  1.5827  0.9954
  187SAPI   C1421439   5.832   5.202   6.369 -0.7296  0.7897  0.1557
  187SAPI    H421440   5.815   5.269   6.455  0.0640  0.4197  0.6077
  187SAPI    O421441   5.972   5.212   6.340  0.5670  0.5247  0.3006
  187SAPI   HO421442   6.021   5.279   6.388  1.0691  0.6356 -0.3537
  187SAPI   C1521443   5.728   5.241   6.263  0.7175  0.0479  0.3531
  187SAPI    H521444   5.718   5.168   6.180 -1.8514  2.7042 -1.9105
  187SAPI    O521445   5.773   5.361   6.203 -0.1401  0.5042 -0.0209
  187SAPI   HO521446   5.777   5.330   6.112  4.1202 -1.2645  0.4959
  187SAPI   C1621447   5.592   5.260   6.335 -0.4606  0.5305  0.1412
  187SAPI    H621448   5.610   5.335   6.416 -1.1493 -0.3481  1.1347
  187SAPI    O621449   5.491   5.297   6.244 -0.1904 -1.1258 -0.3630
  187SAPI   HO621450   5.413   5.288   6.298 -0.6026 -1.9297 -1.0602
  187SAPI   C1121451   5.549   5.121   6.399  1.4651 -0.4439  0.8870
  187SAPI    H121452   5.560   5.055   6.310  1.6450  0.7066  0.0408
  187SAPI     P21453   5.293   5.035   6.428  0.1381 -0.2446 -0.1343
  187SAPI   O1321454   5.334   4.906   6.360 -0.2032  0.1162 -0.5296
  187SAPI   O1421455   5.191   5.111   6.352  0.3025  0.6584 -0.1552
  187SAPI   O1221456   5.419   5.130   6.462 -0.2771  0.1973 -0.1302
  187SAPI   O1121457   5.241   5.007   6.575 -0.2821 -0.0356  0.4382
  187SAPI    C121458   5.312   4.924   6.675  0.0603 -0.4467  0.3979
  187SAPI    HA21459   5.363   4.832   6.638 -1.8726 -0.8909 -1.3934
  187SAPI    HB21460   5.386   4.984   6.732  1.4796  0.3535 -2.1326
  187SAPI    C221461   5.208   4.888   6.787 -0.0048 -0.3202  0.1745
  187SAPI    HS21462   5.112   4.850   6.744 -0.0540  0.1650 -0.1511
  187SAPI   O2121463   5.171   5.008   6.874 -0.0688 -0.1119 -0.4017
  187SAPI   C2121464   5.060   4.990   6.950 -0.1956  0.4893  0.1721
  187SAPI   O2221465   4.986   4.896   6.944  0.2518 -0.4078 -0.3163
  187SAPI   C2221466   5.065   5.108   7.045 -0.4470 -0.3677 -0.5228
  187SAPI   H2R21467   5.158   5.096   7.105  0.2537 -0.7937 -1.6736
  187SAPI   H2S21468   5.077   5.200   6.984 -0.1878  0.3704  0.6105
  187SAPI    C321469   5.260   4.773   6.875  0.2646 -0.7891 -0.4689
  187SAPI    HX21470   5.283   4.690   6.804  0.1392 -1.9572  0.8035
  187SAPI    HY21471   5.184   4.742   6.951 -1.3222  4.5690  0.5033
  187SAPI   O3121472   5.392   4.799   6.927 -0.7753 -0.4163 -0.1433
  187SAPI   C3121473   5.407   4.857   7.042 -0.1129  0.7074 -0.1774
  187SAPI   O3221474   5.326   4.918   7.107  0.0414  0.5011  0.8400
  187SAPI   C3221475   5.550   4.830   7.084  0.5516 -1.0484  0.4881
  187SAPI   H2X21476   5.615   4.876   7.006 -1.1823 -0.2740 -0.5705
  187SAPI   H2Y21477   5.581   4.724   7.077  2.2203 -0.5358 -0.6854
  187SAPI   C2321478   4.960   5.122   7.151 -0.2608 -0.1982  0.0961
  187SAPI   H3R21479   4.949   5.033   7.217 -2.3806  0.7171  1.0940
  187SAPI   H3S21480   4.859   5.125   7.104  0.7422  1.2480 -2.1057
  187SAPI   C2421481   4.974   5.263   7.218  0.2791  0.1855  0.3220
  187SAPI   H4R21482   5.003   5.334   7.138 -0.9520  1.6159  1.0697
  187SAPI   H4S21483   5.063   5.254   7.283  1.2714 -0.6619 -1.1086
  187SAPI   C2521484   4.858   5.331   7.292  0.3901  0.0378  0.2222
  187SAPI   H5R21485   4.760   5.335   7.241 -0.1790 -0.9311  1.1807
  187SAPI   C2621486   4.876   5.389   7.410  0.0838  0.5600  0.1103
  187SAPI   H6R21487   4.788   5.446   7.443 -0.2984  2.1367 -3.2043
  187SAPI   C2721488   4.996   5.409   7.505  0.1538  0.0620 -0.0934
  187SAPI   H7R21489   5.006   5.517   7.527  1.5496 -0.5558  2.8831
  187SAPI   H7S21490   5.100   5.383   7.474  0.0945 -0.3173  0.0124
  187SAPI   C2821491   4.968   5.337   7.634  0.0890  0.1287 -0.6501
  187SAPI   H8R21492   4.950   5.229   7.623 -0.3515  0.1505 -0.1849
  187SAPI   C2921493   4.989   5.382   7.762  0.8693 -0.1016  0.0135
  187SAPI   H9R21494   4.971   5.322   7.853 -2.0410 -0.9663 -1.0448
  187SAPI  C21021495   5.043   5.517   7.805  0.1113 -0.1409  0.1069
  187SAPI  H10R21496   5.056   5.588   7.720 -0.4987  0.0473  0.1686
  187SAPI  H10S21497   5.143   5.499   7.851  1.7271 -1.9586 -3.6604
  187SAPI  C21121498   4.937   5.587   7.889  0.8337  0.0527  0.1927
  187SAPI  H11R21499   4.845   5.614   7.835 -0.2411 -0.5871  1.6111
  187SAPI  C21221500   4.950   5.615   8.019  0.6605  0.8628  0.3453
  187SAPI  H12R21501   4.867   5.669   8.066 -0.6634 -0.6681 -0.1566
  187SAPI  C21321502   5.065   5.580   8.105 -0.6919  0.1237 -0.2331
  187SAPI  H13R21503   5.096   5.665   8.169 -1.8250 -0.9404  1.8300
  187SAPI  H13S21504   5.159   5.543   8.057 -0.7023  0.6937 -0.7057
  187SAPI  C21421505   5.013   5.481   8.201 -0.4122  0.0823 -0.1851
  187SAPI  H14R21506   5.021   5.374   8.176 -1.8296 -0.5259  1.7553
  187SAPI  C21521507   4.952   5.499   8.322  1.0235  0.1190  0.3759
  187SAPI  H15R21508   4.917   5.415   8.384  0.3880  0.2935  0.2576
  187SAPI  C21621509   4.927   5.636   8.389 -0.1646 -0.0373 -0.0710
  187SAPI  H16R21510   4.968   5.720   8.328 -0.3286 -1.1408 -1.7745
  187SAPI  H16S21511   4.975   5.635   8.489 -1.4553  0.9522  0.5783
  187SAPI  C21721512   4.777   5.662   8.416  0.9506  0.7996  0.1129
  187SAPI  H17R21513   4.714   5.606   8.343 -0.3665  2.5725 -0.1739
  187SAPI  H17S21514   4.752   5.770   8.406 -1.3791  0.1638 -2.4052
  187SAPI  C21821515   4.732   5.614   8.557 -0.4940 -0.5083 -0.1440
  187SAPI  H18R21516   4.807   5.536   8.585  2.9771  1.6784 -2.5467
  187SAPI  H18S21517   4.629   5.573   8.559 -0.5760 -0.3246 -0.4473
  187SAPI  C21921518   4.742   5.727   8.668 -0.5581 -0.5165  0.0490
  187SAPI  H19R21519   4.673   5.812   8.651 -0.1297 -0.3876 -1.1665
  187SAPI  H19S21520   4.846   5.766   8.669 -0.5935 -0.4239  0.0763
  187SAPI  C22021521   4.730   5.678   8.815 -0.1857 -0.8354 -0.2741
  187SAPI  H20R21522   4.791   5.585   8.821  2.0189  0.4821 -1.3445
  187SAPI  H20S21523   4.621   5.659   8.828 -1.0326  1.1591 -3.4382
  187SAPI  H20T21524   4.758   5.758   8.887  0.0341 -2.7559  1.9289
  187SAPI   C3321525   5.586   4.886   7.224 -0.2366  0.6338 -0.1605
  187SAPI   H3X21526   5.502   4.866   7.293  1.1276 -1.0400  1.0875
  187SAPI   H3Y21527   5.592   4.997   7.226  0.6880  0.6205 -1.0632
  187SAPI   C3421528   5.696   4.808   7.290  0.4832  0.0620 -0.6427
  187SAPI   H4X21529   5.790   4.814   7.232  0.1630 -0.1866 -1.1924
  187SAPI   H4Y21530   5.662   4.702   7.292  0.9064 -0.0780  1.2066
  187SAPI   C3521531   5.711   4.842   7.436 -0.3843 -0.1165 -0.5452
  187SAPI   H5X21532   5.614   4.841   7.491  0.1675  0.6209  0.4800
  187SAPI   H5Y21533   5.752   4.943   7.455  0.7894 -0.8225  0.7978
  187SAPI   C3621534   5.804   4.745   7.508 -0.2854  0.5665  0.8204
  187SAPI   H6X21535   5.890   4.709   7.449 -1.0132 -0.3091  0.2741
  187SAPI   H6Y21536   5.744   4.657   7.540 -1.3946  0.8448 -0.3851
  187SAPI   C3721537   5.865   4.814   7.633 -0.5126  0.6844 -0.3336
  187SAPI   H7X21538   5.779   4.866   7.681 -0.2304  0.4470  0.4327
  187SAPI   H7Y21539   5.956   4.873   7.610  0.7210 -1.5124 -1.3456
  187SAPI   C3821540   5.920   4.713   7.737  0.3213 -0.1800  0.7863
  187SAPI   H8X21541   6.016   4.672   7.698  1.6222 -1.0935  4.5702
  187SAPI   H8Y21542   5.855   4.623   7.744 -0.5796  0.2344 -1.3223
  187SAPI   C3921543   5.931   4.775   7.876 -0.8961 -0.7861 -0.0402
  187SAPI   H9X21544   5.835   4.797   7.927 -0.6698 -0.4532  0.2450
  187SAPI   H9Y21545   5.987   4.870   7.866 -1.3295 -0.4080  1.0316
  187SAPI  C31021546   6.003   4.684   7.971 -0.2271  0.2912  0.5428
  187SAPI  H10X21547   6.107   4.675   7.934  0.1144  2.8754  0.6419
  187SAPI  H10Y21548   5.946   4.589   7.976  0.2293  0.0121  0.5281
  187SAPI  C31121549   6.011   4.749   8.111  0.3129 -0.5084 -0.2808
  187SAPI  H11X21550   5.912   4.750   8.162  0.4904 -0.7147  0.0683
  187SAPI  H11Y21551   6.062   4.847   8.099 -1.2923  0.2067 -1.8621
  187SAPI  C31221552   6.092   4.657   8.208 -0.2838 -0.0077 -0.3874
  187SAPI  H12X21553   6.034   4.563   8.222  0.5820 -0.4356  0.4820
  187SAPI  H12Y21554   6.105   4.687   8.314 -0.4196 -3.5660  0.8001
  187SAPI  C31321555   6.235   4.635   8.163 -0.6645 -0.3484  0.3349
  187SAPI  H13X21556   6.282   4.734   8.147 -1.0204 -0.5240 -2.3433
  187SAPI  H13Y21557   6.236   4.594   8.060 -1.5895  1.0265 -0.2514
  187SAPI  C31421558   6.314   4.552   8.267 -0.3501 -0.3315 -0.2215
  187SAPI  H14X21559   6.317   4.612   8.361 -0.5623 -0.9276  0.1781
  187SAPI  H14Y21560   6.420   4.529   8.247 -0.2482 -0.2828  0.2516
  187SAPI  C31521561   6.250   4.412   8.289  0.9547 -0.3427  0.1918
  187SAPI  H15X21562   6.226   4.363   8.192 -1.8742  0.8972  0.1792
  187SAPI  H15Y21563   6.151   4.432   8.335  0.6756  1.0927 -0.9390
  187SAPI  C31621564   6.322   4.320   8.385 -0.0591 -0.0944 -0.4804
  187SAPI  H16X21565   6.342   4.380   8.476  2.1774 -0.6363 -0.5720
  187SAPI  H16Y21566   6.425   4.303   8.347  1.5001  0.6456  3.0391
  187SAPI  C31721567   6.251   4.182   8.404 -0.2867  0.1008 -0.2204
  187SAPI  H17X21568   6.234   4.128   8.308 -0.2731  0.1346 -0.2431
  187SAPI  H17Y21569   6.152   4.216   8.439 -0.2787  1.1071 -1.1165
  187SAPI  C31821570   6.311   4.094   8.508  0.4928  0.3614 -0.8393
  187SAPI  H18X21571   6.294   4.134   8.610  1.2469 -1.4616  0.0480
  187SAPI  H18Y21572   6.415   4.064   8.482 -0.0022 -0.8922 -1.4790
  187SAPI  H18Z21573   6.256   3.998   8.516  1.4099 -0.0428  1.3415
  188SAPI   C1221574   0.094   0.604   6.110  0.8108 -0.1379 -0.6730
  188SAPI    H221575   0.181   0.538   6.131  1.0418  0.0545 -1.0143
  188SAPI    O221576   0.135   0.701   6.013  0.0522  0.0069 -0.9758
  188SAPI   HO221577   0.205   0.666   5.957  0.2085  0.1721 -0.8829
  188SAPI   C1321578  -0.014   0.515   6.045  0.4967 -0.0817 -0.4776
  188SAPI    H321579  -0.030   0.438   6.123  0.2555 -0.7424 -1.1681
  188SAPI    O321580   0.037   0.444   5.934 -0.1196  0.8330 -0.2146
  188SAPI   HO321581  -0.033   0.381   5.915 -0.5885  0.4392  2.4668
  188SAPI   C1421582  -0.138   0.595   6.012 -0.0992 -0.4881  0.2580
  188SAPI    H421583  -0.116   0.659   5.925  0.4471 -0.9038  0.0830
  188SAPI    O421584  -0.248   0.509   5.969 -0.2209 -0.6571 -0.2037
  188SAPI   HO421585  -0.290   0.549   5.893  0.5125 -0.6635 -0.6192
  188SAPI   C1521586  -0.179   0.681   6.134  0.0865  0.0268  0.8821
  188SAPI    H521587  -0.220   0.603   6.201 -0.1754 -0.5821  0.0342
  188SAPI    O521588  -0.280   0.773   6.103 -0.3067 -0.2631 -0.1056
  188SAPI   HO521589  -0.347   0.774   6.171 -1.1224 -1.2062 -0.8583
  188SAPI   C1621590  -0.075   0.762   6.204 -0.4852  0.9399 -0.0084
  188SAPI    H621591  -0.033   0.841   6.138  2.0838 -0.4564 -0.1582
  188SAPI    O621592  -0.123   0.807   6.332  0.5498  0.0280  0.1175
  188SAPI   HO621593  -0.112   0.734   6.393 -0.6882  0.5651  1.0227
  188SAPI   C1121594   0.043   0.664   6.238  0.5702 -0.7118 -0.6694
  188SAPI    H121595   0.010   0.585   6.310  2.0096 -0.3852  0.3959
  188SAPI     P21596   0.261   0.648   6.401 -0.2152  0.6439 -0.1212
  188SAPI   O1321597   0.397   0.688   6.351  0.3600  0.2688  0.5132
  188SAPI   O1421598   0.223   0.506   6.410 -0.1949  0.4840 -0.1952
  188SAPI   O1221599   0.158   0.725   6.298  0.0277 -0.3989 -0.1167
  188SAPI   O1121600   0.236   0.722   6.538 -0.0633  0.1391 -0.0956
  188SAPI    C121601   0.104   0.746   6.590  0.8144  0.1955  0.4111
  188SAPI    HA21602   0.042   0.823   6.539  2.4050 -0.9649 -3.6044
  188SAPI    HB21603   0.039   0.656   6.591  1.4449 -0.2853 -0.6404
  188SAPI    C221604   0.107   0.796   6.740  0.7923 -0.6992  0.2671
  188SAPI    HS21605   0.161   0.893   6.748  0.0968 -0.4230  2.1291
  188SAPI   O2121606   0.156   0.689   6.821  0.2984 -0.5173 -0.6264
  188SAPI   C2121607   0.285   0.702   6.850 -0.5382 -0.6446 -0.3614
  188SAPI   O2221608   0.360   0.785   6.799  0.0315  0.1460 -0.0226
  188SAPI   C2221609   0.331   0.591   6.947 -0.5220 -0.5917  0.2062
  188SAPI   H2R21610   0.256   0.578   7.028 -1.3770 -0.1994 -0.5005
  188SAPI   H2S21611   0.354   0.495   6.897  1.0048 -0.7558  1.1452
  188SAPI    C321612  -0.039   0.822   6.787 -0.4676  0.5017 -0.6117
  188SAPI    HX21613  -0.087   0.728   6.750  1.3442 -0.1895 -1.3384
  188SAPI    HY21614  -0.087   0.905   6.730 -3.3641 -0.5103  0.1645
  188SAPI   O3121615  -0.051   0.838   6.932 -0.0009  0.2062 -0.4991
  188SAPI   C3121616  -0.057   0.957   6.988 -0.1954 -0.4390 -0.7951
  188SAPI   O3221617  -0.043   1.062   6.932 -0.1309 -0.0269  0.8492
  188SAPI   C3221618  -0.073   0.943   7.137  0.5992  0.0672  0.2908
  188SAPI   H2X21619   0.027   0.966   7.179  1.4436  1.1280 -2.1467
  188SAPI   H2Y21620  -0.090   0.840   7.175 -0.5379  0.0842 -0.1212
  188SAPI   C2321621   0.467   0.621   7.016 -0.1082 -0.1777  0.2648
  188SAPI   H3R21622   0.468   0.727   7.050  1.7511  0.8189 -2.5324
  188SAPI   H3S21623   0.544   0.607   6.937 -1.9961 -0.7131 -1.5483
  188SAPI   C2421624   0.489   0.536   7.146  1.0294 -0.0568 -0.2668
  188SAPI   H4R21625   0.460   0.432   7.121  0.1340  0.1017  0.0827
  188SAPI   H4S21626   0.424   0.567   7.230  0.3866 -0.8869 -0.4483
  188SAPI   C2521627   0.630   0.523   7.192 -0.0094 -0.0832 -0.3569
  188SAPI   H5R21628   0.702   0.520   7.109 -0.4118 -0.2970 -0.6982
  188SAPI   C2621629   0.689   0.524   7.318 -0.4178 -0.9546  0.5575
  188SAPI   H6R21630   0.796   0.499   7.323  0.3831  1.9880  0.1930
  188SAPI   C2721631   0.618   0.538   7.447  0.3578  0.4823 -0.6444
  188SAPI   H7R21632   0.511   0.512   7.433  0.7431 -1.1511 -0.7821
  188SAPI   H7S21633   0.617   0.643   7.483  1.9168  1.4156 -3.0244
  188SAPI   C2821634   0.674   0.446   7.556  0.2874 -0.2975  0.5782
  188SAPI   H8R21635   0.646   0.344   7.526  1.7990  0.1747 -2.8710
  188SAPI   C2921636   0.721   0.478   7.679  0.2302 -0.2678 -0.1774
  188SAPI   H9R21637   0.755   0.393   7.740  0.7620  1.9686  2.8926
  188SAPI  C21021638   0.739   0.619   7.732  0.2962 -0.3315  0.1230
  188SAPI  H10R21639   0.639   0.654   7.766  0.2398  0.9046 -1.2157
  188SAPI  H10S21640   0.760   0.691   7.649 -1.6190 -0.2694 -0.3558
  188SAPI  C21121641   0.839   0.635   7.842 -0.2344  0.2140 -0.5145
  188SAPI  H11R21642   0.935   0.683   7.818  0.1686 -0.4055 -0.1587
  188SAPI  C21221643   0.827   0.603   7.971  0.0107 -0.0829  0.3386
  188SAPI  H12R21644   0.911   0.628   8.039  0.2517 -0.4753  0.1948
  188SAPI  C21321645   0.717   0.521   8.032  0.5083  0.1344  0.8556
  188SAPI  H13R21646   0.627   0.520   7.967  1.7381 -0.8115 -0.9204
  188SAPI  H13S21647   0.692   0.582   8.121 -1.9235 -0.5164  0.7100
  188SAPI  C21421648   0.739   0.378   8.055 -0.5898  0.3356  0.0113
  188SAPI  H14R21649   0.734   0.307   7.971  3.0594 -0.6186  0.4192
  188SAPI  C21521650   0.777   0.324   8.177  0.3146  0.7094  0.1483
  188SAPI  H15R21651   0.781   0.214   8.181  1.0846  0.7524  0.6145
  188SAPI  C21621652   0.808   0.394   8.305  0.7325  0.5967 -0.5439
  188SAPI  H16R21653   0.826   0.502   8.284 -0.3174  0.4975 -2.1808
  188SAPI  H16S21654   0.891   0.339   8.353  2.1137  0.0552 -3.3164
  188SAPI  C21721655   0.682   0.387   8.396 -0.2230 -0.4798 -0.4813
  188SAPI  H17R21656   0.625   0.293   8.386 -0.6848 -0.4770  1.6588
  188SAPI  H17S21657   0.617   0.468   8.357 -1.9739 -1.7834 -0.3525
  188SAPI  C21821658   0.706   0.402   8.546 -0.3100  0.4820  0.4361
  188SAPI  H18R21659   0.757   0.500   8.550 -1.0225  1.1112 -2.7279
  188SAPI  H18S21660   0.770   0.321   8.588  0.6824  0.2780 -1.3566
  188SAPI  C21921661   0.577   0.407   8.632  0.1178 -1.1128 -0.4151
  188SAPI  H19R21662   0.601   0.386   8.739 -1.7480 -1.7549 -0.0713
  188SAPI  H19S21663   0.508   0.329   8.592 -0.8808 -0.4503 -0.0240
  188SAPI  C22021664   0.504   0.545   8.628 -0.0439 -0.5109 -0.0230
  188SAPI  H20R21665   0.402   0.530   8.668 -1.1426  1.0027 -2.0943
  188SAPI  H20S21666   0.496   0.592   8.528 -1.0412  1.3972  0.8930
  188SAPI  H20T21667   0.557   0.620   8.691 -0.4758 -0.3929  0.2041
  188SAPI   C3321668  -0.178   1.036   7.207 -0.0982 -0.5572 -0.3875
  188SAPI   H3X21669  -0.275   0.987   7.183  0.1376 -1.5130  0.5220
  188SAPI   H3Y21670  -0.187   1.136   7.161  1.7089  0.1538  0.7095
  188SAPI   C3421671  -0.164   1.061   7.360 -0.7242  0.1584 -0.2254
  188SAPI   H4X21672  -0.086   1.139   7.374 -2.1914  1.3718  1.6084
  188SAPI   H4Y21673  -0.132   0.966   7.409 -2.0858  0.6102  1.6771
  188SAPI   C3521674  -0.289   1.109   7.432 -0.2513 -0.4735  0.7351
  188SAPI   H5X21675  -0.369   1.032   7.430 -0.6964 -0.0293 -1.8001
  188SAPI   H5Y21676  -0.318   1.197   7.372 -0.1494  0.7433  2.3848
  188SAPI   C3621677  -0.265   1.161   7.572  0.2819  0.4150 -0.2450
  188SAPI   H6X21678  -0.363   1.192   7.614 -0.4699 -1.6853 -0.3723
  188SAPI   H6Y21679  -0.196   1.249   7.568  1.5939 -0.4864  1.2199
  188SAPI   C3721680  -0.214   1.051   7.665  0.1208  0.6996  0.2044
  188SAPI   H7X21681  -0.125   0.994   7.631 -1.5595 -1.1854 -1.2929
  188SAPI   H7Y21682  -0.283   0.964   7.657  1.4241 -0.2425 -1.5251
  188SAPI   C3821683  -0.205   1.085   7.813 -0.6330  0.8397 -0.6715
  188SAPI   H8X21684  -0.311   1.102   7.841 -1.1127 -0.6247 -1.5149
  188SAPI   H8Y21685  -0.154   1.180   7.841  1.0801 -0.6657  1.6085
  188SAPI   C3921686  -0.148   0.961   7.882  0.2103  0.2373  0.3367
  188SAPI   H9X21687  -0.048   0.933   7.844  0.6588  1.7662  0.3139
  188SAPI   H9Y21688  -0.222   0.880   7.861 -1.2579  1.7126 -0.4081
  188SAPI  C31021689  -0.143   0.968   8.035 -0.4360  0.0593 -0.3513
  188SAPI  H10X21690  -0.042   1.003   8.065  0.2292 -1.3711 -0.8577
  188SAPI  H10Y21691  -0.126   0.862   8.063  4.1737  0.6303 -0.2696
  188SAPI  C31121692  -0.252   1.047   8.101 -0.2609  0.5405  0.1303
  188SAPI  H11X21693  -0.348   0.993   8.090 -0.7748  0.8918  2.4984
  188SAPI  H11Y21694  -0.245   1.150   8.059  0.9816  1.0975  1.5866
  188SAPI  C31221695  -0.235   1.060   8.257  0.4968  0.1464  0.3853
  188SAPI  H12X21696  -0.312   1.129   8.297 -2.0523 -2.7178  0.8321
  188SAPI  H12Y21697  -0.140   1.114   8.276  0.5895  0.0048  0.3287
  188SAPI  C31321698  -0.230   0.926   8.333 -0.3270 -0.1648 -0.0600
  188SAPI  H13X21699  -0.152   0.858   8.293 -1.6099 -1.6193 -0.1968
  188SAPI  H13Y21700  -0.319   0.860   8.322  1.4357 -2.7368 -0.0264
  188SAPI  C31421701  -0.202   0.937   8.479  0.8341  0.3567 -0.2982
  188SAPI  H14X21702  -0.284   0.984   8.537  1.0206 -1.2724  1.3616
  188SAPI  H14Y21703  -0.128   1.018   8.501 -0.7284  1.4142  1.2958
  188SAPI  C31521704  -0.149   0.814   8.547 -0.1464 -0.3422  0.4876
  188SAPI  H15X21705  -0.060   0.771   8.496 -0.5336  1.0623 -1.4778
  188SAPI  H15Y21706  -0.221   0.729   8.536 -1.2722  0.5247  0.9200
  188SAPI  C31621707  -0.110   0.832   8.688  0.1145 -0.4096  0.0784
  188SAPI  H16X21708  -0.179   0.896   8.745  0.1586 -1.1861  1.0229
  188SAPI  H16Y21709  -0.006   0.861   8.717  0.2763 -0.0908 -0.7840
  188SAPI  C31721710  -0.115   0.697   8.763 -0.3848 -0.1564  0.2287
  188SAPI  H17X21711  -0.217   0.654   8.752 -0.6715  0.1117  1.6933
  188SAPI  H17Y21712  -0.110   0.718   8.871 -0.0111 -1.3574  0.4543
  188SAPI  C31821713  -0.018   0.585   8.723 -0.1333  0.3597  0.9769
  188SAPI  H18X21714  -0.024   0.497   8.790  0.2882 -0.3035  0.1743
  188SAPI  H18Y21715   0.087   0.619   8.734 -0.0402  0.8429 -1.0296
  188SAPI  H18Z21716  -0.032   0.562   8.615  1.8616  0.6193  0.6229
  189POPC     N21717   3.056   3.659  11.054  0.2573  0.3180  0.7876
  189POPC   C1221718   3.009   3.569  10.944 -0.8324 -0.1756  0.3920
  189POPC  H12A21719   2.963   3.484  10.991 -0.2536 -1.7169 -1.6861
  189POPC  H12B21720   3.094   3.520  10.900 -1.1428 -3.3353  2.9653
  189POPC   C1321721   2.938   3.693  11.139  0.4396  0.1863 -0.2285
  189POPC  H13A21722   2.853   3.726  11.081  1.1950  3.5289  0.3941
  189POPC  H13B21723   2.901   3.600  11.180  0.4951 -0.2191 -1.0696
  189POPC  H13C21724   2.967   3.758  11.220  1.4078  1.8233 -1.8290
  189POPC   C1421725   3.168   3.586  11.122 -0.0148 -0.1220  0.5209
  189POPC  H14A21726   3.243   3.564  11.048 -0.0794 -0.1061  0.4505
  189POPC  H14B21727   3.210   3.650  11.198  0.7105 -0.3552  0.3217
  189POPC  H14C21728   3.136   3.497  11.173 -1.1012  1.1258  2.1152
  189POPC   C1521729   3.114   3.780  10.997 -0.0523 -0.0710 -0.2486
  189POPC  H15A21730   3.206   3.755  10.946 -0.2558 -0.8317 -0.2473
  189POPC  H15B21731   3.131   3.841  11.085 -3.2937 -1.7746  1.7410
  189POPC  H15C21732   3.039   3.828  10.935  0.5235  0.3011 -0.6681
  189POPC   C1121733   2.901   3.622  10.848  0.0292  0.0271  0.9529
  189POPC  H11A21734   2.877   3.545  10.772 -0.0258 -0.7626  1.7550
  189POPC  H11B21735   2.948   3.701  10.785 -1.0212  1.5972  2.0623
  189POPC     P21736   2.686   3.784  10.829  0.5457  0.2714  0.0404
  189POPC   O1321737   2.756   3.912  10.807 -0.3453  0.3012 -0.7560
  189POPC   O1421738   2.558   3.800  10.895 -0.5540  0.0272 -0.4771
  189POPC   O1221739   2.781   3.678  10.905  0.0899 -0.4356 -0.1558
  189POPC   O1121740   2.671   3.719  10.694  0.1957  0.2441  1.4510
  189POPC    C121741   2.602   3.585  10.682  0.8090  0.1945 -0.3836
  189POPC    HA21742   2.510   3.579  10.744  0.0860 -0.1539 -1.4617
  189POPC    HB21743   2.667   3.510  10.732  0.3861  0.6157  0.8394
  189POPC    C221744   2.573   3.541  10.539  0.8696 -0.0950  0.5111
  189POPC    HS21745   2.527   3.440  10.542 -0.4327  0.4554  0.0782
  189POPC   O2121746   2.681   3.543  10.452  0.4734  0.2311  0.3323
  189POPC   C2121747   2.766   3.447  10.469 -1.0393  0.2043 -0.6510
  189POPC   O2221748   2.751   3.352  10.552 -0.2936  0.1371 -0.5632
  189POPC   C2221749   2.885   3.459  10.369  0.0438 -0.0044  1.0289
  189POPC   H2R21750   2.968   3.477  10.440  0.4520  1.5094  0.2075
  189POPC   H2S21751   2.861   3.548  10.307 -1.6484  1.6694  3.9037
  189POPC    C321752   2.463   3.642  10.490  0.8981  0.0993 -0.5073
  189POPC    HX21753   2.511   3.739  10.516  1.8890 -0.4513 -0.2440
  189POPC    HY21754   2.375   3.632  10.556 -0.7420 -0.1035 -2.6081
  189POPC   O3121755   2.427   3.638  10.351 -0.0986  0.3262 -0.0322
  189POPC   C3121756   2.495   3.705  10.270  1.2752  0.2234  0.2798
  189POPC   O3221757   2.584   3.787  10.293 -0.4194 -0.0442  0.5428
  189POPC   C3221758   2.462   3.654  10.129 -0.0400  0.0328  0.2489
  189POPC   H2X21759   2.390   3.723  10.080  1.0304  0.6303 -0.4952
  189POPC   H2Y21760   2.398   3.564  10.148 -1.4442  0.7497 -0.8498
  189POPC   C2321761   2.910   3.329  10.290 -1.2138 -0.5028  0.3038
  189POPC   H3R21762   2.927   3.248  10.365  1.5632  1.2151  1.7010
  189POPC   H3S21763   3.003   3.328  10.229 -1.6278  0.1557 -0.3508
  189POPC   C2421764   2.791   3.296  10.200  0.2862  0.3526  0.3374
  189POPC   H4R21765   2.765   3.379  10.131  0.6790  2.1344  2.2435
  189POPC   H4S21766   2.694   3.275  10.251 -1.0575 -0.0842 -2.2482
  189POPC   C2521767   2.816   3.165  10.114  0.4094  0.3246  0.6172
  189POPC   H5R21768   2.787   3.077  10.175  1.3834 -0.0051  0.6158
  189POPC   H5S21769   2.923   3.159  10.087  0.3506  1.0489  0.1989
  189POPC   C2621770   2.743   3.167   9.979  0.2559  0.3171 -0.7185
  189POPC   H6R21771   2.771   3.258   9.921  2.4332  0.3750  0.3295
  189POPC   H6S21772   2.637   3.153  10.009  0.5759  0.6621  0.6512
  189POPC   C2721773   2.794   3.053   9.895 -0.1702 -0.2514 -0.1458
  189POPC   H7R21774   2.779   2.956   9.946 -0.4252 -0.1675 -0.0577
  189POPC   H7S21775   2.903   3.066   9.874  0.0464 -2.8836 -0.9447
  189POPC   C2821776   2.723   3.049   9.760 -0.8180 -0.8389 -0.2112
  189POPC   H8R21777   2.780   2.988   9.687 -1.3679  1.1095 -2.4030
  189POPC   H8S21778   2.720   3.155   9.726  0.7250 -0.6178  0.2470
  189POPC   C2921779   2.578   3.007   9.786 -0.2964 -0.8677  1.0203
  189POPC   H9121780   2.532   3.034   9.881 -0.1899  1.0072  0.5734
  189POPC  C21021781   2.512   2.934   9.700  0.0751 -0.7389  0.4886
  189POPC  H10121782   2.406   2.913   9.722 -0.7720 -0.3602 -2.7623
  189POPC  C21121783   2.555   2.882   9.563 -0.1966  0.1793 -0.8996
  189POPC  H11R21784   2.549   2.771   9.569  1.3115  0.1335  0.7525
  189POPC  H11S21785   2.662   2.905   9.547  0.8480 -0.5806  3.5435
  189POPC  C21221786   2.460   2.922   9.455  0.1176  0.0722  0.0227
  189POPC  H12R21787   2.486   3.026   9.427  1.1345 -0.3765 -0.7638
  189POPC  H12S21788   2.351   2.924   9.476  0.3022  0.8683  0.9496
  189POPC  C21321789   2.469   2.825   9.328  0.2763 -0.3474 -0.7852
  189POPC  H13R21790   2.415   2.729   9.343 -1.7848  0.9184  0.3949
  189POPC  H13S21791   2.572   2.792   9.302 -0.2766 -2.5537 -0.3472
  189POPC  C21421792   2.399   2.896   9.213 -0.0326 -0.0103  0.1643
  189POPC  H14R21793   2.431   2.994   9.172 -2.0163  1.0281  0.9261
  189POPC  H14S21794   2.298   2.927   9.248 -0.5042 -0.2484 -0.9521
  189POPC  C21521795   2.378   2.796   9.098 -0.3271 -0.2351  0.4460
  189POPC  H15R21796   2.296   2.725   9.124 -1.3154  1.1318  1.1467
  189POPC  H15S21797   2.471   2.741   9.073  1.4715  1.5501  2.7461
  189POPC  C21621798   2.338   2.877   8.967  0.0813  0.3108 -0.0405
  189POPC  H16R21799   2.425   2.945   8.959 -0.6716  1.5012  1.3657
  189POPC  H16S21800   2.243   2.933   8.983  0.4584  0.9441  0.0142
  189POPC  C21721801   2.350   2.803   8.840 -0.0680 -0.2096 -0.0214
  189POPC  H17R21802   2.288   2.711   8.843  0.6440 -0.7269  3.7201
  189POPC  H17S21803   2.457   2.777   8.835 -0.1243 -0.8825  1.5889
  189POPC  C21821804   2.325   2.876   8.711 -0.0366  0.5480 -0.1771
  189POPC  H18R21805   2.233   2.938   8.706 -0.8638 -0.7362 -1.9651
  189POPC  H18S21806   2.324   2.798   8.632  0.0372  1.7139 -1.3431
  189POPC  H18T21807   2.411   2.943   8.692  0.5997  0.0238  0.7319
  189POPC   C3321808   2.579   3.631  10.038 -0.5951 -0.0943 -0.1421
  189POPC   H3X21809   2.667   3.583  10.085  1.1223  0.7054 -2.3747
  189POPC   H3Y21810   2.620   3.727   9.999 -1.3263  1.0776  1.8029
  189POPC   C3421811   2.539   3.545   9.911 -0.4606 -0.1603 -0.2043
  189POPC   H4X21812   2.462   3.598   9.850 -1.4457 -0.9708  0.3025
  189POPC   H4Y21813   2.501   3.449   9.951  0.0096 -0.9099 -1.5012
  189POPC   C3521814   2.661   3.518   9.827  0.6036  0.3527 -0.0681
  189POPC   H5X21815   2.733   3.467   9.894  1.3141  2.2007  0.6285
  189POPC   H5Y21816   2.722   3.607   9.802  1.0272  0.1672  0.2845
  189POPC   C3621817   2.637   3.443   9.703  0.2818  0.5613 -0.2883
  189POPC   H6X21818   2.560   3.366   9.725 -0.1314  0.4470 -1.9590
  189POPC   H6Y21819   2.734   3.397   9.674  0.5169  1.5353 -1.1392
  189POPC   C3721820   2.582   3.525   9.591  0.2697 -0.4989  0.5226
  189POPC   H7X21821   2.649   3.608   9.560 -0.0476 -0.2805  0.4082
  189POPC   H7Y21822   2.491   3.572   9.635  1.2662  0.8746  1.2077
  189POPC   C3821823   2.547   3.441   9.466  0.0065  0.3642  0.0030
  189POPC   H8X21824   2.469   3.371   9.502  0.2441 -0.2381 -0.6230
  189POPC   H8Y21825   2.634   3.375   9.443  2.0971  2.6668  0.8735
  189POPC   C3921826   2.492   3.514   9.345  0.4428 -1.4161  0.2094
  189POPC   H9X21827   2.585   3.562   9.309 -1.8719  1.8281 -1.9775
  189POPC   H9Y21828   2.432   3.602   9.376  1.0180  0.0824 -2.6065
  189POPC  C31021829   2.422   3.436   9.227 -0.4836  0.8767 -0.1104
  189POPC  H10X21830   2.379   3.501   9.149  1.2244 -0.2622 -2.1006
  189POPC  H10Y21831   2.348   3.370   9.276  0.4297 -0.6558 -0.7383
  189POPC  C31121832   2.519   3.344   9.150  1.0690 -0.3625 -0.1168
  189POPC  H11X21833   2.512   3.249   9.207 -0.6484 -0.2507 -0.1043
  189POPC  H11Y21834   2.616   3.398   9.149  0.4702  0.7851  1.1745
  189POPC  C31221835   2.474   3.331   9.007 -0.1370 -0.2204 -0.8755
  189POPC  H12X21836   2.477   3.431   8.959  1.1761  0.4144  0.4663
  189POPC  H12Y21837   2.368   3.299   9.013 -0.3619  0.0012 -2.8744
  189POPC  C31321838   2.555   3.221   8.939 -0.0600 -0.3008  0.1064
  189POPC  H13X21839   2.543   3.117   8.977 -0.3439 -0.9927 -1.8092
  189POPC  H13Y21840   2.665   3.240   8.937 -0.2242  0.5946 -1.6496
  189POPC  C31421841   2.504   3.210   8.789  0.2112 -0.7982  0.0179
  189POPC  H14X21842   2.394   3.191   8.787  0.0332  0.2044 -0.6170
  189POPC  H14Y21843   2.551   3.121   8.743 -0.6075 -1.6137  0.7140
  189POPC  C31521844   2.519   3.331   8.701  0.5787 -1.0792 -0.6973
  189POPC  H15X21845   2.626   3.356   8.688 -0.0295  2.3974  0.1412
  189POPC  H15Y21846   2.475   3.417   8.755 -1.2295 -2.4897  0.2173
  189POPC  C31621847   2.456   3.322   8.568  0.1475 -0.6302  0.3030
  189POPC  H16X21848   2.440   3.418   8.513 -2.2895 -1.7476 -1.0924
  189POPC  H16Y21849   2.348   3.297   8.576 -0.5892  1.1183 -2.6543
  189POPC  H16Z21850   2.504   3.255   8.494 -1.0996 -1.1415 -0.0648
  190POPC     N21851   4.164   0.749  10.924 -0.5342 -0.3702  0.1126
  190POPC   C1221852   4.121   0.613  10.887  0.6954 -0.2812  0.5884
  190POPC  H12A21853   4.170   0.577  10.798  1.3033 -1.6751  1.4510
  190POPC  H12B21854   4.015   0.619  10.869  0.6969  0.1231  0.6909
  190POPC   C1321855   4.315   0.759  10.919  0.2648  0.5556  0.5431
  190POPC  H13A21856   4.356   0.705  10.835 -0.0968 -0.1427  0.8074
  190POPC  H13B21857   4.356   0.859  10.928 -0.0240  0.4830  3.4977
  190POPC  H13C21858   4.352   0.697  11.000 -0.9639  0.3073  0.9296
  190POPC   C1421859   4.122   0.846  10.813  0.0030 -0.2487  0.0453
  190POPC  H14A21860   4.015   0.854  10.813 -0.0482 -0.7250 -1.0790
  190POPC  H14B21861   4.179   0.936  10.826 -1.8936  0.7107  2.3418
  190POPC  H14C21862   4.165   0.829  10.715  1.4049  1.4138  0.3157
  190POPC   C1521863   4.112   0.804  11.053 -0.2336  0.2788 -0.4071
  190POPC  H15A21864   4.006   0.821  11.042 -0.5935 -1.9787 -0.9614
  190POPC  H15B21865   4.170   0.892  11.077  1.6280 -0.4320 -2.0193
  190POPC  H15C21866   4.130   0.727  11.127 -0.5802  2.0038  1.5561
  190POPC   C1121867   4.141   0.508  10.994  0.1662  0.4292  0.0210
  190POPC  H11A21868   4.249   0.502  11.021 -0.1824 -1.1045  1.2147
  190POPC  H11B21869   4.128   0.412  10.940  1.7764  0.9323 -1.3872
  190POPC     P21870   3.905   0.491  11.113  0.3115 -0.2183 -0.5147
  190POPC   O1321871   3.840   0.597  11.194 -0.2556 -0.1552  0.3148
  190POPC   O1421872   3.874   0.358  11.159 -0.3163  0.4097  0.3812
  190POPC   O1221873   4.057   0.516  11.106 -0.2289  0.1421 -0.3563
  190POPC   O1121874   3.865   0.498  10.964 -0.4635  0.0817  0.2799
  190POPC    C121875   3.789   0.619  10.931 -0.2585  0.1790  0.0913
  190POPC    HA21876   3.844   0.714  10.949  1.1251 -0.9703  2.3564
  190POPC    HB21877   3.694   0.610  10.988 -0.6857 -0.1202 -0.6488
  190POPC    C221878   3.744   0.621  10.782 -0.2442  1.0558  0.3421
  190POPC    HS21879   3.676   0.533  10.783  0.5348  0.4211  1.8171
  190POPC   O2121880   3.865   0.608  10.706  0.3214  0.4668  0.0138
  190POPC   C2121881   3.847   0.518  10.601 -0.9136 -0.6229 -0.0368
  190POPC   O2221882   3.744   0.461  10.576  0.1127  0.1116  0.3553
  190POPC   C2221883   3.970   0.520  10.511  0.3236 -0.8238 -0.0825
  190POPC   H2R21884   4.056   0.504  10.579  2.0489  0.8392 -1.7701
  190POPC   H2S21885   3.978   0.616  10.456  0.8329 -1.3818 -1.0165
  190POPC    C321886   3.668   0.751  10.735 -0.2555 -0.3610 -1.1401
  190POPC    HX21887   3.747   0.829  10.746  1.0788 -1.6726 -1.0364
  190POPC    HY21888   3.589   0.769  10.810 -0.9674  1.0553 -2.1991
  190POPC   O3121889   3.619   0.751  10.602  0.6045  0.1044  0.1165
  190POPC   C3121890   3.491   0.696  10.583  0.5243 -0.3119 -0.1488
  190POPC   O3221891   3.420   0.648  10.670  0.3567  0.9282  0.7976
  190POPC   C3221892   3.452   0.704  10.437 -0.7361 -0.4238  0.4861
  190POPC   H2X21893   3.519   0.764  10.372 -1.4932  0.2923  0.3418
  190POPC   H2Y21894   3.351   0.749  10.439 -0.2840  0.6050  1.6984
  190POPC   C2321895   3.967   0.403  10.410 -0.8146  0.3902 -1.0175
  190POPC   H3R21896   3.941   0.300  10.442 -1.4264  0.4802 -1.2086
  190POPC   H3S21897   4.071   0.398  10.371  0.7721  0.1311  2.8436
  190POPC   C2421898   3.878   0.441  10.297  0.0370  0.2435 -0.6312
  190POPC   H4R21899   3.909   0.537  10.249  0.1648  0.7081  0.3589
  190POPC   H4S21900   3.773   0.455  10.331  0.6845 -0.7701  2.0187
  190POPC   C2521901   3.881   0.348  10.168  0.1992  0.0395  0.0377
  190POPC   H5R21902   3.859   0.242  10.190  1.4572 -0.6237 -1.6775
  190POPC   H5S21903   3.985   0.353  10.128  1.9140  0.9328  4.1364
  190POPC   C2621904   3.766   0.376  10.067 -0.0049 -0.2562 -0.3837
  190POPC   H6R21905   3.767   0.480  10.027  2.1161 -0.5243 -1.1575
  190POPC   H6S21906   3.671   0.364  10.123 -0.5531 -0.2057 -1.2987
  190POPC   C2721907   3.778   0.282   9.958 -0.1482 -0.2898  0.4949
  190POPC   H7R21908   3.763   0.176   9.991 -0.4582 -0.3920  0.0335
  190POPC   H7S21909   3.882   0.286   9.920 -1.0825  1.4386 -2.1069
  190POPC   C2821910   3.680   0.308   9.845 -0.3121  0.3115  0.0265
  190POPC   H8R21911   3.576   0.304   9.884 -0.0110  2.5956  1.2585
  190POPC   H8S21912   3.693   0.221   9.778  4.1572  0.6541  0.1474
  190POPC   C2921913   3.696   0.437   9.770  0.0224 -0.0363 -0.2367
  190POPC   H9121914   3.725   0.526   9.828  1.0924 -0.0415 -0.7429
  190POPC  C21021915   3.662   0.459   9.643 -0.9632  0.5148  0.7465
  190POPC  H10121916   3.684   0.560   9.605  1.4741  0.5032  1.9646
  190POPC  C21121917   3.615   0.357   9.537 -0.0092 -1.0162  0.6417
  190POPC  H11R21918   3.550   0.281   9.585  0.8757 -0.8538  2.1868
  190POPC  H11S21919   3.710   0.305   9.511  0.3796  0.9319 -2.3863
  190POPC  C21221920   3.548   0.431   9.421 -0.2654 -0.3930 -0.4863
  190POPC  H12R21921   3.622   0.505   9.383  0.1240 -0.6010 -0.1407
  190POPC  H12S21922   3.466   0.487   9.472  1.3767  0.7377  1.0293
  190POPC  C21321923   3.512   0.340   9.303 -0.4716 -0.4821 -0.2481
  190POPC  H13R21924   3.407   0.351   9.269  0.0953  0.5063 -1.8258
  190POPC  H13S21925   3.540   0.236   9.333  1.8204  0.0452 -0.3218
  190POPC  C21421926   3.591   0.382   9.181 -0.6693 -0.1254 -0.6066
  190POPC  H14R21927   3.575   0.490   9.161  0.3910  0.3199  0.7919
  190POPC  H14S21928   3.537   0.335   9.097 -2.1304  0.0333  0.2160
  190POPC  C21521929   3.744   0.338   9.166  0.1383 -0.5939  0.5697
  190POPC  H15R21930   3.737   0.227   9.163  0.2668 -0.5836 -0.2327
  190POPC  H15S21931   3.803   0.357   9.258 -0.4863 -0.6541  0.9890
  190POPC  C21621932   3.799   0.406   9.042  0.2645 -0.1514 -0.0570
  190POPC  H16R21933   3.910   0.419   9.045  0.0893  1.4395  0.1100
  190POPC  H16S21934   3.756   0.507   9.055  0.6188  0.0672 -0.5560
  190POPC  C21721935   3.755   0.362   8.901 -0.1565  0.9879  0.2632
  190POPC  H17R21936   3.646   0.383   8.892 -0.2998 -0.1925 -1.2593
  190POPC  H17S21937   3.761   0.251   8.900  1.3034  1.0245 -1.5657
  190POPC  C21821938   3.827   0.420   8.780 -0.7888 -0.6932 -0.2975
  190POPC  H18R21939   3.771   0.421   8.684 -1.9746  2.3680  0.3185
  190POPC  H18S21940   3.903   0.344   8.751  0.4803 -0.9833  3.3470
  190POPC  H18T21941   3.884   0.514   8.794  0.5315 -0.7670 -3.9324
  190POPC   C3321942   3.450   0.561  10.378  0.2749 -0.8351  0.3182
  190POPC   H3X21943   3.395   0.493  10.447 -3.3771  0.3215 -1.2357
  190POPC   H3Y21944   3.557   0.530  10.378  0.9760  1.3438  1.7956
  190POPC   C3421945   3.389   0.555  10.236 -0.2888  0.1109 -0.9963
  190POPC   H4X21946   3.283   0.584  10.246 -0.1475  0.2196  0.4992
  190POPC   H4Y21947   3.394   0.451  10.198  3.1584 -0.9031  1.6930
  190POPC   C3521948   3.458   0.649  10.132  0.5916  0.6423  0.5731
  190POPC   H5X21949   3.561   0.671  10.167  0.0093  0.7213  2.3769
  190POPC   H5Y21950   3.415   0.751  10.128  2.1811  1.3006 -0.4576
  190POPC   C3621951   3.453   0.579   9.994  0.0226  0.3326  0.2668
  190POPC   H6X21952   3.512   0.485  10.002 -0.9947 -0.1939  2.2250
  190POPC   H6Y21953   3.505   0.645   9.921 -0.3192  0.4171  0.0994
  190POPC   C3721954   3.315   0.550   9.933 -0.0110  1.1041  0.4044
  190POPC   H7X21955   3.255   0.642   9.920 -0.8230  0.6310  0.6835
  190POPC   H7Y21956   3.260   0.472   9.991  1.5736  0.7099  1.4228
  190POPC   C3821957   3.326   0.497   9.788 -0.3322  0.1401  0.4916
  190POPC   H8X21958   3.368   0.395   9.799 -0.7452 -0.1240 -0.3105
  190POPC   H8Y21959   3.396   0.552   9.722  1.8654 -2.6775  0.2709
  190POPC   C3921960   3.193   0.491   9.723 -0.3500 -0.4560  0.4375
  190POPC   H9X21961   3.147   0.589   9.700  1.4213  0.6147  1.1844
  190POPC   H9Y21962   3.115   0.443   9.786  1.1149 -1.0172  1.8971
  190POPC  C31021963   3.197   0.423   9.582  0.3909  0.2442 -0.6569
  190POPC  H10X21964   3.251   0.326   9.581  1.2374  0.6202  1.6912
  190POPC  H10Y21965   3.245   0.491   9.508 -0.3232  0.0498 -1.3088
  190POPC  C31121966   3.053   0.402   9.530 -0.2372 -0.0289  0.0362
  190POPC  H11X21967   3.004   0.502   9.528  0.3762  0.2631 -1.6638
  190POPC  H11Y21968   2.991   0.348   9.605 -0.2759 -1.9111 -1.3042
  190POPC  C31221969   3.048   0.365   9.379  1.3614 -0.7888  0.5230
  190POPC  H12X21970   2.946   0.325   9.358  0.9192 -0.1022  1.3129
  190POPC  H12Y21971   3.111   0.277   9.355  0.2462 -1.3177 -0.6413
  190POPC  C31321972   3.087   0.479   9.286 -0.4793 -0.3778  0.0785
  190POPC  H13X21973   3.196   0.489   9.299 -0.6118  0.9943  0.2960
  190POPC  H13Y21974   3.035   0.571   9.321 -1.0054 -0.4310 -0.5270
  190POPC  C31421975   3.073   0.464   9.137  0.2796  0.0208 -0.1536
  190POPC  H14X21976   3.107   0.556   9.085 -0.8057  0.5807  0.0912
  190POPC  H14Y21977   2.968   0.445   9.104  0.8382 -0.7189 -1.5994
  190POPC  C31521978   3.155   0.340   9.084 -0.5075 -0.3300 -0.0377
  190POPC  H15X21979   3.091   0.249   9.079 -0.6673 -0.2004 -0.4003
  190POPC  H15Y21980   3.243   0.314   9.146 -0.9560  0.5985  1.0186
  190POPC  C31621981   3.195   0.359   8.939  0.0697  0.2542 -0.0566
  190POPC  H16X21982   3.222   0.266   8.884  0.0092  0.6577 -0.7942
  190POPC  H16Y21983   3.277   0.433   8.923 -1.6587  2.0562 -1.1329
  190POPC  H16Z21984   3.102   0.395   8.890  1.2404  0.1563 -2.5304
  191POPC     N21985   3.393   6.146   6.075  0.5272  0.1017 -0.4835
  191POPC   C1221986   3.342   6.189   6.221  0.3761 -0.3621 -0.2753
  191POPC  H12A21987   3.421   6.157   6.286 -0.4231 -0.2655  0.7726
  191POPC  H12B21988   3.250   6.139   6.249 -1.5931  3.4910  0.8169
  191POPC   C1321989   3.422   6.002   6.073 -0.1604 -0.0562 -0.2734
  191POPC  H13A21990   3.341   5.944   6.116  0.0776  0.4451  0.8965
  191POPC  H13B21991   3.439   5.968   5.972 -1.0403  0.2213 -0.5264
  191POPC  H13C21992   3.511   5.970   6.126 -0.6577 -0.5251  0.2981
  191POPC   C1421993   3.277   6.163   5.976  0.2070 -0.0964 -0.4121
  191POPC  H14A21994   3.256   6.266   5.954  1.2278  0.4536  1.0416
  191POPC  H14B21995   3.300   6.108   5.886 -0.1404  0.3842 -0.7980
  191POPC  H14C21996   3.187   6.116   6.012 -0.7671  0.5352 -1.9502
  191POPC   C1521997   3.510   6.217   6.029  0.6170 -0.0702 -0.3335
  191POPC  H15A21998   3.602   6.188   6.079  0.0803  0.0006  0.7244
  191POPC  H15B21999   3.503   6.325   6.029 -0.3053 -0.1218 -0.0376
  191POPC  H15C22000   3.526   6.185   5.927  3.1291 -0.8209  0.2087
  191POPC   C1122001   3.320   6.333   6.248 -0.0242 -0.5073  0.4717
  191POPC  H11A22002   3.277   6.354   6.348  1.3154 -0.3096  1.0356
  191POPC  H11B22003   3.256   6.370   6.164  1.2510 -1.3353 -0.9116
  191POPC     P22004   3.557   6.377   6.350 -0.6458  0.1678 -0.1176
  191POPC   O1322005   3.676   6.453   6.307  0.2727 -0.4278  0.5442
  191POPC   O1422006   3.581   6.234   6.378  0.6676  0.1044  0.4998
  191POPC   O1222007   3.443   6.404   6.240  0.2999 -0.4284 -0.2467
  191POPC   O1122008   3.516   6.442   6.484 -0.4445 -0.2874  0.1968
  191POPC    C122009   3.416   6.391   6.566  0.9084  0.5591  0.1918
  191POPC    HA22010   3.382   6.288   6.542 -0.3459  0.7988  0.8852
  191POPC    HB22011   3.327   6.456   6.563  0.6935  0.4417  2.2744
  191POPC    C222012   3.462   6.373   6.713  0.6579  0.3882 -0.0490
  191POPC    HS22013   3.384   6.327   6.778 -0.3948  1.9884 -0.1485
  191POPC   O2122014   3.522   6.491   6.767 -0.5613 -0.0506  0.4183
  191POPC   C2122015   3.436   6.581   6.804 -0.5688  0.2433  0.2274
  191POPC   O2222016   3.313   6.575   6.778 -0.0502  0.8539 -0.0907
  191POPC   C2222017   3.499   6.702   6.875  0.1494 -0.4250 -0.0681
  191POPC   H2R22018   3.528   6.777   6.799  0.0213 -0.1940  0.1098
  191POPC   H2S22019   3.598   6.670   6.916  0.1959 -0.8823 -0.5323
  191POPC    C322020   3.585   6.272   6.706 -0.2282  0.0185  0.6894
  191POPC    HX22021   3.672   6.329   6.668 -0.2902 -1.3143 -1.6661
  191POPC    HY22022   3.578   6.185   6.637  0.7719  1.9099 -1.9505
  191POPC   O3122023   3.600   6.218   6.839  0.3026 -0.1915 -0.2448
  191POPC   C3122024   3.715   6.256   6.905  0.7684  0.0379 -0.6857
  191POPC   O3222025   3.821   6.270   6.852 -0.5911  0.2881 -0.6680
  191POPC   C3222026   3.678   6.278   7.047  1.3774  0.0448 -0.8165
  191POPC   H2X22027   3.620   6.188   7.077  2.9012 -0.5393  0.5580
  191POPC   H2Y22028   3.619   6.372   7.054  0.7198 -0.3872 -0.3422
  191POPC   C2322029   3.421   6.777   6.987  0.6139  0.3273 -0.0595
  191POPC   H3R22030   3.322   6.807   6.945 -0.2403 -2.4871 -0.2932
  191POPC   H3S22031   3.471   6.868   7.025 -1.0166  0.3728  2.1717
  191POPC   C2422032   3.400   6.686   7.118 -0.3911 -0.1211  0.0477
  191POPC   H4R22033   3.368   6.584   7.087  2.3729 -1.1241  0.2623
  191POPC   H4S22034   3.325   6.741   7.179  0.7716  0.5022  0.9480
  191POPC   C2522035   3.529   6.691   7.201 -0.1446 -0.5145  0.5463
  191POPC   H5R22036   3.553   6.799   7.210 -1.7600 -0.1601  0.9015
  191POPC   H5S22037   3.610   6.643   7.143 -2.9278 -3.3971 -1.3329
  191POPC   C2622038   3.521   6.609   7.333 -0.4112  0.4826  0.7464
  191POPC   H6R22039   3.620   6.572   7.366 -0.4480  0.3039  0.6564
  191POPC   H6S22040   3.455   6.520   7.331  0.0346  0.1374 -1.4700
  191POPC   C2722041   3.461   6.702   7.437 -0.1116 -0.2231  0.1181
  191POPC   H7R22042   3.352   6.709   7.420 -0.8802 -3.2494  2.7276
  191POPC   H7S22043   3.508   6.802   7.425 -3.6210  1.5069 -0.2577
  191POPC   C2822044   3.485   6.668   7.587 -0.4467  0.3574  0.3236
  191POPC   H8R22045   3.583   6.619   7.604 -0.9692 -0.1188  2.1342
  191POPC   H8S22046   3.415   6.591   7.625  1.1732  0.0272  2.8696
  191POPC   C2922047   3.450   6.788   7.680 -0.8286  0.4086 -1.8209
  191POPC   H9122048   3.379   6.860   7.638 -0.7480  0.7074 -1.4417
  191POPC  C21022049   3.502   6.807   7.803 -0.7316 -0.5808  0.3695
  191POPC  H10122050   3.464   6.894   7.859  3.2681  1.5193  0.1865
  191POPC  C21122051   3.598   6.706   7.872  0.2083  0.6976  0.5826
  191POPC  H11R22052   3.675   6.763   7.929 -0.9832  1.9811  0.9561
  191POPC  H11S22053   3.663   6.654   7.799  1.8852  1.9578  1.1014
  191POPC  C21222054   3.530   6.613   7.969 -0.0736  0.1698  0.8096
  191POPC  H12R22055   3.604   6.550   8.023 -2.2334 -1.5769  1.9585
  191POPC  H12S22056   3.464   6.541   7.916 -0.3031 -0.5423  2.0229
  191POPC  C21322057   3.452   6.670   8.090  0.3947  0.7808  0.3163
  191POPC  H13R22058   3.410   6.593   8.158 -0.1719  2.8088  2.3574
  191POPC  H13S22059   3.367   6.729   8.052  1.0499 -0.5064 -3.6461
  191POPC  C21422060   3.542   6.763   8.176 -0.4275 -0.0835  0.2565
  191POPC  H14R22061   3.574   6.850   8.114  0.4591 -1.9398 -2.0237
  191POPC  H14S22062   3.638   6.713   8.200  0.0885  0.4481 -0.6290
  191POPC  C21522063   3.485   6.818   8.307 -0.4182  0.8093  0.3164
  191POPC  H15R22064   3.571   6.853   8.368 -0.6444  1.0032  0.5281
  191POPC  H15S22065   3.430   6.736   8.358 -1.1677  1.4703  0.5920
  191POPC  C21622066   3.369   6.924   8.291  0.7811 -0.1130  0.6031
  191POPC  H16R22067   3.279   6.895   8.233 -1.1787  2.8122  1.9391
  191POPC  H16S22068   3.408   7.017   8.245 -3.1369  1.8164  0.8156
  191POPC  C21722069   3.305   6.981   8.424  0.3095 -0.2847  0.3646
  191POPC  H17R22070   3.272   6.898   8.489  0.6519 -0.4708  0.3020
  191POPC  H17S22071   3.211   7.031   8.390 -0.1883 -1.5148 -0.1327
  191POPC  C21822072   3.387   7.071   8.509  0.7691 -0.2371 -0.2014
  191POPC  H18R22073   3.481   7.021   8.542  0.5271  0.5673  1.8884
  191POPC  H18S22074   3.323   7.105   8.593  0.9466 -1.6217  0.5361
  191POPC  H18T22075   3.415   7.163   8.454  1.5622 -1.8541 -2.6716
  191POPC   C3322076   3.802   6.294   7.131 -0.5094  0.0989 -0.0687
  191POPC   H3X22077   3.872   6.372   7.093 -0.4237  0.0921  0.0770
  191POPC   H3Y22078   3.861   6.201   7.144  1.3790  1.4750  1.8018
  191POPC   C3422079   3.791   6.337   7.283  0.1841 -0.7556  0.3324
  191POPC   H4X22080   3.743   6.437   7.284 -0.8263 -1.2189  1.6660
  191POPC   H4Y22081   3.896   6.335   7.320  0.0888 -3.2890  0.6907
  191POPC   C3522082   3.696   6.247   7.362 -0.1512  0.2177 -0.9082
  191POPC   H5X22083   3.730   6.143   7.347 -0.7288 -0.1918  0.5336
  191POPC   H5Y22084   3.592   6.244   7.320 -0.5746  1.2159  0.0148
  191POPC   C3622085   3.698   6.297   7.501 -0.1263 -0.3469  0.3189
  191POPC   H6X22086   3.661   6.401   7.494 -1.6067 -0.7948  1.1610
  191POPC   H6Y22087   3.803   6.297   7.537 -0.3482 -2.9847  1.2490
  191POPC   C3722088   3.611   6.204   7.591 -0.0174  0.3622  0.1384
  191POPC   H7X22089   3.647   6.099   7.594 -1.9960 -0.3432  0.9993
  191POPC   H7Y22090   3.504   6.197   7.561  0.3206 -2.5792 -0.6413
  191POPC   C3822091   3.610   6.249   7.745 -0.6607  0.1142  0.2127
  191POPC   H8X22092   3.569   6.352   7.757  0.9272  0.8442 -0.3127
  191POPC   H8Y22093   3.713   6.266   7.783 -1.4372  2.1887  1.5330
  191POPC   C3922094   3.542   6.154   7.838  0.5267  0.2649  0.6295
  191POPC   H9X22095   3.584   6.052   7.830 -1.9312 -0.7119 -1.0026
  191POPC   H9Y22096   3.437   6.137   7.806  1.2597 -3.7747 -0.0771
  191POPC  C31022097   3.544   6.201   7.984  0.2326 -0.4324  0.0041
  191POPC  H10X22098   3.501   6.303   7.999 -0.6517 -0.8072  0.1147
  191POPC  H10Y22099   3.647   6.199   8.024  0.1087  1.9924  0.6187
  191POPC  C31122100   3.456   6.106   8.063 -0.2170 -0.6161 -0.2839
  191POPC  H11X22101   3.448   6.016   7.999 -0.3887 -2.0362  1.6472
  191POPC  H11Y22102   3.361   6.162   8.081 -0.7145 -2.1049  2.1338
  191POPC  C31222103   3.506   6.043   8.191 -0.3404  0.3457  0.3812
  191POPC  H12X22104   3.590   5.972   8.179  0.0110  0.8273  0.0019
  191POPC  H12Y22105   3.432   5.974   8.238  0.7294 -2.8472 -2.2349
  191POPC  C31322106   3.535   6.148   8.305  0.2004  1.2358 -0.8731
  191POPC  H13X22107   3.616   6.219   8.277 -0.4663  2.8606  1.0678
  191POPC  H13Y22108   3.581   6.098   8.393 -0.2103  1.2644 -0.6439
  191POPC  C31422109   3.413   6.226   8.353  0.0286  0.4244 -0.0043
  191POPC  H14X22110   3.337   6.151   8.384  0.2228 -1.0075 -2.6927
  191POPC  H14Y22111   3.381   6.280   8.262  0.5488 -0.6437 -0.8526
  191POPC  C31522112   3.431   6.318   8.466 -0.5539 -0.4860  0.2919
  191POPC  H15X22113   3.350   6.394   8.468  1.1521  1.3789  1.0649
  191POPC  H15Y22114   3.514   6.391   8.461 -2.6662  2.1930  1.4563
  191POPC  C31622115   3.445   6.244   8.597 -0.4864  0.6780  0.2785
  191POPC  H16X22116   3.342   6.203   8.605 -0.6700  0.9948 -0.3880
  191POPC  H16Y22117   3.451   6.307   8.689 -1.2120 -1.5225  1.9158
  191POPC  H16Z22118   3.509   6.154   8.601  0.8337  1.6265  2.0685
  192POPC     N22119   2.146   2.005   5.843  0.5606 -0.1169 -0.1200
  192POPC   C1222120   2.295   2.010   5.850 -0.2451 -0.0576 -0.7050
  192POPC  H12A22121   2.338   2.106   5.821 -0.8835  0.5317  0.2675
  192POPC  H12B22122   2.347   1.942   5.784  3.9183  1.7329  0.3919
  192POPC   C1322123   2.088   2.124   5.914  0.5012  0.4941 -0.0938
  192POPC  H13A22124   2.106   2.109   6.020 -1.4685  0.4809  0.2760
  192POPC  H13B22125   2.150   2.210   5.896  2.4542 -0.9141 -0.3518
  192POPC  H13C22126   1.983   2.140   5.893 -0.1178  0.1866  2.4025
  192POPC   C1422127   2.099   2.012   5.702 -0.2175  0.1045 -0.2473
  192POPC  H14A22128   2.149   1.931   5.651 -0.5047  1.4675 -2.8648
  192POPC  H14B22129   1.991   2.008   5.692 -0.2787 -1.6965  0.6303
  192POPC  H14C22130   2.137   2.096   5.647 -0.7881 -0.0197 -0.8467
  192POPC   C1522131   2.098   1.878   5.916 -0.1786 -0.0678 -0.0385
  192POPC  H15A22132   2.160   1.793   5.891 -0.4800 -0.6341  1.0437
  192POPC  H15B22133   1.994   1.869   5.887 -0.8710  0.4726  2.0659
  192POPC  H15C22134   2.098   1.886   6.024 -0.4332  1.5037 -0.1243
  192POPC   C1122135   2.374   1.977   5.980 -0.0130 -0.3555  0.0087
  192POPC  H11A22136   2.482   1.959   5.962  0.0541  1.5484 -1.8231
  192POPC  H11B22137   2.339   1.882   6.026  0.3186 -0.7233 -0.4952
  192POPC     P22138   2.426   2.215   6.084  0.0363  0.1524  0.0790
  192POPC   O1322139   2.329   2.318   6.038  0.0829  0.5433  0.8702
  192POPC   O1422140   2.549   2.200   6.006 -0.8783 -0.2936  0.2757
  192POPC   O1222141   2.355   2.078   6.088  0.0527 -0.5868 -0.4857
  192POPC   O1122142   2.464   2.232   6.240 -0.2099  0.3207 -0.1673
  192POPC    C122143   2.374   2.246   6.345  0.0035 -0.5030 -0.0235
  192POPC    HA22144   2.412   2.197   6.437  1.5973  0.4270 -0.1613
  192POPC    HB22145   2.274   2.204   6.318  1.0140 -2.6097 -0.7112
  192POPC    C222146   2.368   2.394   6.385  0.2640 -0.1298  0.2003
  192POPC    HS22147   2.377   2.459   6.295 -1.9558  0.2950  0.2364
  192POPC   O2122148   2.480   2.427   6.470  0.1912 -0.6206  0.1515
  192POPC   C2122149   2.524   2.547   6.459 -0.5731  0.3444 -0.1119
  192POPC   O2222150   2.475   2.647   6.412 -0.2938 -0.2242 -0.2022
  192POPC   C2222151   2.667   2.545   6.517 -0.6360  0.5633 -0.0515
  192POPC   H2R22152   2.725   2.459   6.479 -2.9522 -0.6864 -0.9711
  192POPC   H2S22153   2.649   2.533   6.626  0.2108  0.3289  0.0718
  192POPC    C322154   2.233   2.422   6.464  0.4798 -0.2584  0.0131
  192POPC    HX22155   2.153   2.392   6.392  1.3396 -3.0979  0.1006
  192POPC    HY22156   2.230   2.532   6.478 -0.1701 -0.0109 -1.7276
  192POPC   O3122157   2.219   2.347   6.586  0.1170  0.0105 -0.6317
  192POPC   C3122158   2.257   2.409   6.697 -0.4338  0.2477  0.0770
  192POPC   O3222159   2.286   2.527   6.709  0.5034  0.2972  0.2715
  192POPC   C3222160   2.255   2.317   6.820 -0.1128  0.2134  0.2246
  192POPC   H2X22161   2.327   2.233   6.822 -0.4247 -0.0751 -0.3722
  192POPC   H2Y22162   2.153   2.274   6.814 -1.4272  3.1261  0.0317
  192POPC   C2322163   2.742   2.674   6.489 -0.4555  0.2512 -0.2539
  192POPC   H3R22164   2.712   2.707   6.387 -3.7064 -2.4959 -0.3926
  192POPC   H3S22165   2.852   2.660   6.493 -0.4427  0.5891  2.3842
  192POPC   C2422166   2.722   2.790   6.590  0.2867 -0.1631 -0.2725
  192POPC   H4R22167   2.625   2.840   6.568 -0.0749 -0.4615  0.6141
  192POPC   H4S22168   2.796   2.873   6.584 -0.1457  0.2521  0.0460
  192POPC   C2522169   2.728   2.744   6.738  0.1250 -0.3054  0.2012
  192POPC   H5R22170   2.824   2.693   6.761 -0.5523 -1.0459  1.4995
  192POPC   H5S22171   2.645   2.672   6.757  1.3148 -2.4635 -2.0698
  192POPC   C2622172   2.724   2.855   6.850  0.5611 -0.7301  0.6090
  192POPC   H6R22173   2.642   2.923   6.820  1.9497  0.6626 -0.1640
  192POPC   H6S22174   2.817   2.914   6.840  1.1667 -1.9838 -2.5903
  192POPC   C2722175   2.687   2.802   6.988 -0.2167 -0.2173 -0.6824
  192POPC   H7R22176   2.596   2.739   6.970 -0.7018  0.3865 -0.3710
  192POPC   H7S22177   2.657   2.889   7.050  1.9483 -0.0404  0.1777
  192POPC   C2822178   2.800   2.730   7.058  0.9488 -0.2496  0.3542
  192POPC   H8R22179   2.894   2.787   7.049  0.3040  0.6053 -1.5107
  192POPC   H8S22180   2.824   2.632   7.011  0.1056  0.0339 -0.7210
  192POPC   C2922181   2.770   2.689   7.202 -0.3780 -0.2433 -0.3901
  192POPC   H9122182   2.717   2.593   7.212  2.6836 -1.9127  1.1975
  192POPC  C21022183   2.803   2.766   7.308 -0.8394 -0.3990 -0.4617
  192POPC  H10122184   2.788   2.723   7.408  1.0958  0.1891  0.1294
  192POPC  C21122185   2.877   2.890   7.304  0.0354  0.5727 -0.3509
  192POPC  H11R22186   2.846   2.973   7.372  0.9347  0.5693  0.0807
  192POPC  H11S22187   2.869   2.941   7.205 -0.4521 -0.2907 -0.7572
  192POPC  C21222188   3.024   2.856   7.326  0.5197 -0.0200 -0.8551
  192POPC  H12R22189   3.086   2.948   7.330  0.2378  0.1628 -0.6851
  192POPC  H12S22190   3.069   2.789   7.249 -1.5786 -1.6817 -0.7433
  192POPC  C21322191   3.055   2.796   7.470  0.0403 -0.1415  0.3425
  192POPC  H13R22192   3.017   2.692   7.475  0.1057 -0.1386  1.0842
  192POPC  H13S22193   3.012   2.858   7.551  1.8274  0.7183  0.6994
  192POPC  C21422194   3.205   2.805   7.503 -0.3064  0.7339 -0.0094
  192POPC  H14R22195   3.231   2.908   7.535 -3.1123  1.8016 -0.9006
  192POPC  H14S22196   3.273   2.768   7.423 -0.4531  0.5737 -0.0603
  192POPC  C21522197   3.253   2.704   7.613  0.4958  0.3055 -0.4480
  192POPC  H15R22198   3.361   2.720   7.630 -0.0399  3.0268  0.8147
  192POPC  H15S22199   3.233   2.603   7.570 -1.2804  1.2321 -1.9745
  192POPC  C21622200   3.189   2.739   7.752  0.0691  0.5347  0.3384
  192POPC  H16R22201   3.078   2.733   7.740  0.2592 -1.7702 -0.9489
  192POPC  H16S22202   3.205   2.848   7.768  0.1330  0.9231 -1.9891
  192POPC  C21722203   3.245   2.656   7.863 -0.0764  0.3503  0.6421
  192POPC  H17R22204   3.355   2.673   7.861  0.0437 -0.4189  0.0670
  192POPC  H17S22205   3.234   2.547   7.842  1.1234  0.5947 -1.5881
  192POPC  C21822206   3.187   2.679   8.010  0.0915 -0.1010 -0.2416
  192POPC  H18R22207   3.213   2.786   8.025  1.9393 -0.8076  2.3036
  192POPC  H18S22208   3.247   2.623   8.085  0.7649  1.8515  0.7441
  192POPC  H18T22209   3.077   2.674   8.019  0.2322  0.3860  2.2148
  192POPC   C3322210   2.258   2.406   6.946 -0.2882  0.2175  0.1278
  192POPC   H3X22211   2.177   2.482   6.935 -0.4196 -0.1196 -1.4615
  192POPC   H3Y22212   2.347   2.473   6.952  0.4746 -0.8618  1.5141
  192POPC   C3422213   2.258   2.325   7.073  0.1741 -0.0619 -0.0770
  192POPC   H4X22214   2.358   2.281   7.094  0.0167  0.7173  2.8398
  192POPC   H4Y22215   2.194   2.235   7.061  0.1989  0.0400 -1.0025
  192POPC   C3522216   2.215   2.408   7.195  0.7698  0.1697  1.1329
  192POPC   H5X22217   2.116   2.457   7.181  0.2378 -1.6350 -2.6173
  192POPC   H5Y22218   2.273   2.502   7.206 -2.9826  2.6409  2.1657
  192POPC   C3622219   2.228   2.317   7.320  0.0408 -0.3613 -0.2780
  192POPC   H6X22220   2.317   2.251   7.317  1.6830  1.7144 -4.0816
  192POPC   H6Y22221   2.130   2.265   7.336  0.4097 -0.9199  0.2149
  192POPC   C3722222   2.242   2.401   7.450  0.1226  0.2768  0.1430
  192POPC   H7X22223   2.186   2.497   7.443 -2.6707 -1.3465 -1.5791
  192POPC   H7Y22224   2.349   2.429   7.448  0.0424  0.8820  2.2203
  192POPC   C3822225   2.216   2.333   7.584 -0.0639 -0.2090 -0.2167
  192POPC   H8X22226   2.292   2.252   7.583 -0.2741 -0.4023 -0.5577
  192POPC   H8Y22227   2.115   2.287   7.580 -0.4285  0.5597 -0.0877
  192POPC   C3922228   2.245   2.423   7.708  0.3415  0.3549 -0.3106
  192POPC   H9X22229   2.176   2.510   7.712  1.2139  1.0692 -0.4167
  192POPC   H9Y22230   2.350   2.459   7.712  1.2455 -2.2083  0.5294
  192POPC  C31022231   2.224   2.354   7.847 -0.8063  0.0536  0.7539
  192POPC  H10X22232   2.297   2.270   7.844 -1.5764 -0.6710  1.5084
  192POPC  H10Y22233   2.118   2.325   7.863 -1.2047  0.9627 -0.1691
  192POPC  C31122234   2.267   2.434   7.969 -0.2803  0.5788  0.3988
  192POPC  H11X22235   2.213   2.532   7.969  1.9019  1.8530  0.0146
  192POPC  H11Y22236   2.367   2.479   7.953 -1.0448  1.5572 -2.1523
  192POPC  C31222237   2.240   2.359   8.100  0.3555 -0.2671 -0.1395
  192POPC  H12X22238   2.331   2.297   8.113  0.5383 -1.0924 -4.1800
  192POPC  H12Y22239   2.159   2.285   8.083 -1.1896  1.5303 -0.9195
  192POPC  C31322240   2.200   2.446   8.219 -0.4222  0.4607 -0.1729
  192POPC  H13X22241   2.094   2.469   8.197 -0.8422 -0.7842  0.4528
  192POPC  H13Y22242   2.255   2.543   8.219  0.8297 -0.2376 -0.0916
  192POPC  C31422243   2.214   2.384   8.357  0.1993 -0.5573 -0.0352
  192POPC  H14X22244   2.147   2.295   8.363 -1.3589  0.5637 -0.0014
  192POPC  H14Y22245   2.178   2.448   8.441 -0.0981 -2.9285  1.7662
  192POPC  C31522246   2.359   2.346   8.393  0.5564  0.0068 -0.5568
  192POPC  H15X22247   2.386   2.246   8.353  2.0697 -0.5978  1.8051
  192POPC  H15Y22248   2.348   2.333   8.502 -0.1679 -3.5780 -0.9060
  192POPC  C31622249   2.469   2.440   8.361  0.3843 -0.1630 -0.6790
  192POPC  H16X22250   2.481   2.469   8.255  1.0169  2.1604 -0.0456
  192POPC  H16Y22251   2.561   2.383   8.384 -0.2108 -0.8453  0.0695
  192POPC  H16Z22252   2.463   2.530   8.427  0.3560 -0.7097  0.0768
  193SOD    SOD22253   4.482   0.806   1.122  0.7791  0.6487 -0.2792
  194SOD    SOD22254   2.359   5.042  12.765  0.0779  0.2019 -0.4320
  195SOD    SOD22255   0.654   5.863  10.604 -0.4916 -0.0437  0.1596
  196SOD    SOD22256   2.291   6.761  13.679 -0.0912  0.0149  0.2994
  197SOD    SOD22257   1.937   2.469  11.247  0.6113  0.2692  0.2144
  198SOD    SOD22258   6.021   3.369  13.074 -0.4582 -0.4491  0.1246
  199SOD    SOD22259   1.128   2.188  12.692 -0.3283 -0.3006  0.2047
  200SOD    SOD22260   3.979   4.282  13.476  0.4642  0.4674 -0.2030
  201SOD    SOD22261   1.691   6.271   3.547  0.5660 -0.2247  0.1725
  202SOD    SOD22262   1.349   1.821   3.119 -0.0258 -0.2367 -0.0787
  203SOD    SOD22263   5.064   0.780  15.571 -0.1917  0.8143  0.1667
  204SOD    SOD22264   4.776   1.178   0.410 -0.3393  0.5125  0.2479
  205SOD    SOD22265   3.657   5.165   6.443 -0.4760 -0.7007  0.1759
  206SOD    SOD22266   0.613   0.138   3.349  0.5368 -0.0419 -0.2581
  207SOD    SOD22267   0.967   0.452  16.423 -0.0524 -0.4097 -0.1392
  208SOD    SOD22268   4.810   5.344   2.962  0.2103  0.3208  0.4149
  209SOD    SOD22269   0.044   0.351   4.275  0.1926  0.0838  0.2318
  210SOD    SOD22270   5.981   2.977  10.470 -0.5968  0.2118 -0.1253
  211SOD    SOD22271   0.187   5.491  15.794  0.5604  0.2552 -0.1399
  212SOD    SOD22272   5.627   1.068  13.703  0.3773 -0.1188 -0.0814
  213SOD    SOD22273   5.139   5.846  11.252 -0.0664 -0.0209 -0.2446
  214SOD    SOD22274   3.288   2.764  15.682 -0.2282 -0.4573 -0.6137
  215SOD    SOD22275   5.681   0.353  15.283  0.1177  0.1892  0.3810
  216SOD    SOD22276   0.289   4.946  15.362  0.6316  0.3237 -0.2952
  217SOD    SOD22277   1.163   6.160   0.683 -0.4334 -0.3495 -0.2514
  218SOD    SOD22278   0.983   1.657  10.863 -0.0551  1.1199  0.3756
  219SOD    SOD22279   3.489   0.471  11.528 -0.5707 -0.2519  0.0560
  220SOD    SOD22280   5.136   2.429   5.966 -0.5212  0.7261  0.4300
  221SOD    SOD22281   6.346   6.327   1.438 -0.1635 -0.3015  0.3353
  222SOD    SOD22282   1.586   5.412  14.196 -0.1965 -0.5724 -0.1636
  223SOD    SOD22283   3.385   6.794   1.842 -0.5685 -0.1444 -0.1559
  224SOD    SOD22284   6.536   5.264  10.993  0.0762  0.0527  0.5550
  225SOD    SOD22285   6.790   3.530   0.521 -0.4490  0.2101 -0.7082
  226SOD    SOD22286   6.081   0.970   4.872 -0.2319  0.2885  0.0627
  227SOD    SOD22287   5.052   5.128   4.362  0.1467  0.4341 -0.1948
  228SOD    SOD22288   5.181   0.780   5.611 -0.0437 -0.0036 -0.6663
  229SOD    SOD22289   5.332   0.849  10.751 -0.3715 -0.4417  0.0042
  230SOD    SOD22290   5.391   6.419   5.241  0.1606  0.4067 -0.1247
  231SOD    SOD22291   5.071   1.478  14.243  0.2333 -0.0211  0.4603
  232SOD    SOD22292   6.265   5.722  12.003 -0.0075  0.0913  0.2905
  233SOD    SOD22293   0.024   4.980   3.546 -0.2549  0.1465  0.0235
  234SOD    SOD22294   3.895   6.252  12.443  0.1637 -0.1470 -0.0305
  235SOD    SOD22295   0.334   1.097   6.123  0.0261  0.4508 -0.3239
  236SOD    SOD22296   3.031   6.775  16.846  0.4616 -0.1862 -0.1412
  237SOD    SOD22297   3.557   0.401   5.216 -0.1352  0.1500  0.0991
  238SOD    SOD22298   4.403   1.896  13.104  0.6415  0.0535 -0.1081
  239SOD    SOD22299   5.227   2.818   2.013 -0.3369  0.2248  0.5555
  240SOD    SOD22300   4.206   4.044  10.985 -0.4925  0.1097  0.6976
  241SOD    SOD22301   0.333   4.262  13.006 -0.3693  0.0097  0.3505
  242SOD    SOD22302   5.620   3.626   0.169  0.0541  0.3781  0.0535
  243SOD    SOD22303   4.708   2.491  14.967 -0.3312 -0.2723  0.3988
  244SOD    SOD22304   1.213   2.959  14.683  0.2654 -0.3539  0.0482
  245SOD    SOD22305   0.210   5.097   4.455  0.0659  0.0731  0.0235
  246SOD    SOD22306   5.021   5.346  16.650  0.2560  0.2073 -0.6212
  247SOD    SOD22307   1.922   6.534  11.971 -0.4789  0.3423  0.3065
  248SOD    SOD22308   3.618   6.515   3.835 -0.2851  0.1529 -0.4698
  249SOD    SOD22309   2.332   2.906   2.199 -0.2837  0.1288  0.1126
  250SOD    SOD22310   0.618   0.142  12.409  0.4797  0.4409  0.4192
  251SOD    SOD22311   6.097   5.028   6.418  0.1152  0.0175  0.0311
  252SOD    SOD22312   3.503   0.589   6.524  0.4316  0.0467 -0.1860
  253SOD    SOD22313   2.048   0.493  15.054 -0.3576 -0.1687 -0.0147
  254SOD    SOD22314   4.476   3.662   0.718  0.1940  0.1612  0.2559
  255SOD    SOD22315   4.237   2.521   1.336 -0.2255  0.2080  0.2309
  256SOD    SOD22316   2.198   2.021  13.579  0.1109  0.2746 -0.2788
  257SOD    SOD22317   2.165   4.020  12.737 -0.5094  0.0150 -0.1028
  258SOD    SOD22318   2.112   0.729  15.697 -0.0604  0.0471  0.1560
  259SOD    SOD22319   2.387   5.254   6.134 -0.2968  0.2506  0.0372
  260SOD    SOD22320   6.526   0.144   5.905 -0.0406 -0.3768  0.2811
  261SOD    SOD22321   2.140   2.040  12.416 -0.3643  0.0015  0.1123
  262SOD    SOD22322   1.830   0.369  16.498 -0.0266 -1.0008  0.0015
  263SOD    SOD22323   1.451   6.656   6.143  0.4101 -0.0280  0.2297
  264SOD    SOD22324   3.717   0.048   6.446  0.0799 -0.2092 -0.1528
  265SOD    SOD22325   4.683   2.188   2.630  0.3931 -0.3872  0.1368
  266SOD    SOD22326   2.103   1.076   1.730  0.1483 -0.1791  0.5822
  267SOD    SOD22327   3.384   2.563   5.803 -0.0218  0.0754 -0.0024
  268SOD    SOD22328   1.275   2.496  10.567 -0.5452  0.4026  0.2816
  269SOD    SOD22329   2.985   0.961  11.425 -0.3864  0.4868  0.0390
  270CLA    CLA22330   5.611   2.935  15.832 -0.1326  0.1411  0.5218
  271CLA    CLA22331   3.013   6.156  16.513  0.0507  0.0418 -0.5856
  272CLA    CLA22332   0.355   2.734   2.433 -0.2162  0.4627 -0.1232
  273CLA    CLA22333   0.204   0.280  16.454  0.0910  0.4489  0.0374
  274CLA    CLA22334   6.606   6.383  16.324 -0.0716 -0.4679 -0.0037
  275CLA    CLA22335   4.123   0.477  16.312 -0.6284 -0.2229 -0.4258
  276CLA    CLA22336   3.410   3.052  14.571 -0.2443  0.0209  0.0011
  277CLA    CLA22337   3.674   1.410  13.325 -0.0415 -0.3512  0.0048
  278CLA    CLA22338   3.697   5.376   0.771 -0.5839 -0.4335 -0.0387
  279CLA    CLA22339   2.171   0.700   1.510  0.2258  0.0099 -0.0912
  280CLA    CLA22340   5.670   0.877   4.594 -0.0534 -0.2951 -0.2046
  281CLA    CLA22341   3.848   0.022   4.572  0.1527 -0.2054  0.0751
  282CLA    CLA22342   3.816   2.661   1.465  0.2077 -0.0940 -0.0910
  283CLA    CLA22343   5.415   2.798  14.720  0.2037 -0.3368  0.0338
  284CLA    CLA22344   6.508   5.127   0.441  0.2388 -0.2200 -0.2396
  285CLA    CLA22345   4.867   4.284   3.055 -0.1493 -0.0334 -0.0074
  286CLA    CLA22346   3.879   6.429  16.156 -0.2711  0.3787  0.2312
  287CLA    CLA22347   4.986   4.072  16.633 -0.1463 -0.8113  0.4500
  288CLA    CLA22348   1.507   5.290  12.867 -0.0268 -0.2086 -0.2375
  289CLA    CLA22349   3.869   4.838  12.599 -0.3253 -0.0306 -0.2763
  290CLA    CLA22350   0.786   5.769  15.204  0.4870  0.4101 -0.2801
  291CLA    CLA22351   0.336   2.095   3.018  0.2132 -0.0370  0.2890
  292CLA    CLA22352   3.836   0.269  11.837 -0.2212 -0.0564  0.1256
  293CLA    CLA22353   4.377   6.711  13.893  0.0628  0.0425  0.0675
  294CLA    CLA22354   3.803   2.675   2.916 -0.2069 -0.4041 -0.4490
  295CLA    CLA22355   0.025   1.146   3.177  0.3076  0.0869 -0.1715
  296CLA    CLA22356   2.069   1.860  12.887  0.2590  0.3031 -0.0570
  297CLA    CLA22357   2.528   0.079  13.614  0.2365  0.0315 -0.1558
  298CLA    CLA22358   3.840   3.605  16.734  0.3574 -0.0944  0.1701
  299CLA    CLA22359   4.230   3.063   1.163 -0.2053 -0.5922  0.3246
  300CLA    CLA22360   2.040   0.183  11.989  0.0141 -0.1239  0.1551
  301CLA    CLA22361   2.400   4.581   4.085  0.2118 -0.3196  0.0683
  302CLA    CLA22362   6.768   3.740   2.811  0.0346 -0.4078  0.1567
  303CLA    CLA22363   0.355   2.242  14.542  0.3178  0.1812 -0.0448
  304CLA    CLA22364   1.958   6.266  14.783  0.0510  0.0260 -0.4415
  305CLA    CLA22365   0.632   0.958  15.615  0.1168  0.1258  0.1490
  306CLA    CLA22366   2.958   1.991  16.027 -0.3034  0.0341  0.0746
  307CLA    CLA22367   3.650   5.684   2.285  0.0448 -0.0342 -0.5636
  308CLA    CLA22368   0.842   0.872   2.932  0.2523 -0.0693 -0.2938
  309CLA    CLA22369   5.646   0.812  12.073 -0.1969 -0.2517  0.4638
  310CLA    CLA22370   3.519   5.155   5.543  0.1797 -0.5116  0.1288
  311CLA    CLA22371   3.534   0.295   1.490  0.6489 -0.0957 -0.1280
  312CLA    CLA22372   1.186   6.727   2.580  0.1323 -0.0859  0.1093
  313CLA    CLA22373   0.174   1.757  12.466  0.2235  0.0083 -0.3088
  314CLA    CLA22374   2.520   4.625  15.377 -0.4159 -0.2556 -0.4203
  315CLA    CLA22375   5.912   1.312   3.960 -0.1716 -0.5909  0.0093
  316CLA    CLA22376   4.418   4.456  17.009 -0.2450 -0.0690  0.1002
  317CLA    CLA22377   4.086   5.416  14.429 -0.0423  0.0251 -0.1912
  318CLA    CLA22378   1.285   0.996  15.966  0.0980 -0.3614  0.1640
  319CLA    CLA22379   5.533   5.010  11.633 -0.1728 -0.5886  0.0338
  320CLA    CLA22380   1.667   2.050   2.522  0.3990 -0.2484  0.0182
  321CLA    CLA22381   0.213   4.704  12.559 -0.2878  0.1306  0.0288
  322CLA    CLA22382   5.608   2.627   0.697  0.1185  0.1888 -0.0159
  323TIP3   OH222383   2.506   1.466   4.628  0.5334 -0.3662  0.5055
  323TIP3    H122384   2.412   1.446   4.628  0.8281 -2.0271 -0.7293
  323TIP3    H222385   2.546   1.387   4.665  1.3977  0.8721  2.3491
  324TIP3   OH222386   0.226   6.408   0.220  0.2274 -0.1764 -0.0227
  324TIP3    H122387   0.210   6.408   0.126  0.9331  0.2802 -0.1465
  324TIP3    H222388   0.182   6.487   0.252 -0.6360 -0.7103  0.1522
  325TIP3   OH222389   3.554   5.702  11.711  0.2493 -0.1583  0.1837
  325TIP3    H122390   3.506   5.636  11.760 -2.3261  1.6720  0.3180
  325TIP3    H222391   3.499   5.722  11.635  1.4199  1.1208 -0.3935
  326TIP3   OH222392   1.520   2.583  14.741  0.5653 -0.4365 -0.4502
  326TIP3    H122393   1.597   2.591  14.797 -0.4255 -1.1012  1.0913
  326TIP3    H222394   1.555   2.571  14.653  2.2281 -1.2328  0.2715
  327TIP3   OH222395   0.785   6.454  14.109  0.3063  0.4935  0.0965
  327TIP3    H122396   0.695   6.437  14.080  0.5542  0.6701 -0.8231
  327TIP3    H222397   0.787   6.425  14.200 -0.2701 -0.9594 -0.3222
  328TIP3   OH222398   3.353   3.369   5.373  0.5351 -0.0382 -0.6087
  328TIP3    H122399   3.273   3.329   5.340  0.2423  0.4991 -0.5660
  328TIP3    H222400   3.349   3.460   5.341 -0.0821  0.6998  1.4199
  329TIP3   OH222401   5.227   2.522   3.696  0.4818 -0.5744 -0.0692
  329TIP3    H122402   5.299   2.534   3.634 -0.3193 -1.3784 -1.1865
  329TIP3    H222403   5.244   2.586   3.765  0.7844  1.1556 -1.6863
  330TIP3   OH222404   0.618   0.209   2.440 -0.7650 -0.4636  0.0512
  330TIP3    H122405   0.608   0.195   2.345 -2.3371  2.1579 -0.2569
  330TIP3    H222406   0.633   0.303   2.449  0.9226 -0.8714  2.3699
  331TIP3   OH222407   4.935   2.441   1.799 -0.0455  0.0054  0.2700
  331TIP3    H122408   4.896   2.522   1.766  0.2559 -0.0066 -0.1223
  331TIP3    H222409   4.939   2.454   1.894  0.6014  0.7231  0.1551
  332TIP3   OH222410   2.535   1.775  11.474 -0.0318  0.2957  0.1472
  332TIP3    H122411   2.507   1.760  11.565  0.9208  1.2248  0.6247
  332TIP3    H222412   2.528   1.870  11.462  0.1226  0.2106 -0.6641
  333TIP3   OH222413   3.428   6.074  13.916  0.4017  0.3423 -0.6031
  333TIP3    H122414   3.511   6.031  13.940  0.1962 -0.7286 -1.7082
  333TIP3    H222415   3.362   6.006  13.926 -0.7150  1.6925  2.1357
  334TIP3   OH222416   2.130   0.370   3.018  0.0541  0.1395  0.0285
  334TIP3    H122417   2.067   0.382   3.089  0.1499 -0.7946  0.2836
  334TIP3    H222418   2.172   0.456   3.009 -0.5429  0.4933  0.5352
  335TIP3   OH222419   4.033   1.213   5.635  0.6755  0.2297  0.1182
  335TIP3    H122420   4.013   1.157   5.560  0.0602 -1.0001  1.1605
  335TIP3    H222421   4.101   1.272   5.603  0.4054 -0.2454 -1.4078
  336TIP3   OH222422   3.848   6.447   2.625  0.1183 -0.1750 -0.0780
  336TIP3    H122423   3.817   6.518   2.682  2.4898  1.1122 -0.2449
  336TIP3    H222424   3.796   6.456   2.545 -2.2238 -1.0638  1.2515
  337TIP3   OH222425   3.093   4.343  14.556  0.0959  0.4717  0.3917
  337TIP3    H122426   3.097   4.252  14.527  0.2027  0.9040 -0.9994
  337TIP3    H222427   3.061   4.338  14.646  0.0279 -0.9342  0.3037
  338TIP3   OH222428   5.548   6.283  15.436  0.2194  0.0746 -0.2305
  338TIP3    H122429   5.476   6.220  15.433  0.7391 -0.5633  0.2934
  338TIP3    H222430   5.604   6.251  15.507  1.4706  0.0676 -1.2024
  339TIP3   OH222431   2.868   5.912  15.867 -0.7669 -0.4664 -0.1087
  339TIP3    H122432   2.781   5.886  15.896 -0.6219 -0.5129  0.2936
  339TIP3    H222433   2.901   5.967  15.937 -0.9687  0.6165 -0.8376
  340TIP3   OH222434   6.756   0.189   2.995  0.1907 -0.3716  0.4052
  340TIP3    H122435   6.807   0.191   3.076 -3.1143  0.3802  2.6990
  340TIP3    H222436   6.719   0.101   2.992  0.2519 -0.3765 -0.2627
  341TIP3   OH222437   0.873   5.632  16.629 -0.0667 -0.5403 -0.1114
  341TIP3    H122438   0.812   5.611  16.558 -0.1329 -1.9166  0.3246
  341TIP3    H222439   0.864   5.726  16.641  0.0071 -0.2593 -1.9743
  342TIP3   OH222440   2.973   5.827   2.620 -0.4222  0.1195  0.1812
  342TIP3    H122441   3.007   5.855   2.705 -1.8006 -0.5212  0.9822
  342TIP3    H222442   2.959   5.733   2.630  1.0502 -0.2947 -1.3651
  343TIP3   OH222443   2.711   4.341  16.518  0.3667 -0.0336  0.1378
  343TIP3    H122444   2.721   4.429  16.482 -0.6630  0.7221  1.6650
  343TIP3    H222445   2.617   4.326  16.522  0.5241 -1.4806 -0.6946
  344TIP3   OH222446   4.712   2.021  14.369 -0.3729 -0.0311  0.4594
  344TIP3    H122447   4.791   2.041  14.420  0.5907 -0.1075 -0.9401
  344TIP3    H222448   4.649   1.990  14.434  1.5149 -2.2687  1.3749
  345TIP3   OH222449   3.706   3.712   1.818  0.3098 -0.2085 -0.0854
  345TIP3    H122450   3.732   3.656   1.891 -1.1857 -0.4826  0.2688
  345TIP3    H222451   3.690   3.652   1.746 -0.7306 -0.2051  0.1268
  346TIP3   OH222452   5.194   0.560  16.732  0.4717 -0.1720 -0.4148
  346TIP3    H122453   5.248   0.482  16.749  1.2771  0.1789 -1.2364
  346TIP3    H222454   5.257   0.626  16.704  0.4533  2.1688  4.2114
  347TIP3   OH222455   3.300   5.859  13.534  0.7651  0.2108 -0.7481
  347TIP3    H122456   3.366   5.892  13.596  0.5569  1.4784 -1.1683
  347TIP3    H222457   3.351   5.827  13.460  0.9286  0.9980 -0.9844
  348TIP3   OH222458   3.677   2.920  12.025 -0.6151  0.2539 -0.6522
  348TIP3    H122459   3.614   2.918  12.096  0.7629  0.5140  0.6215
  348TIP3    H222460   3.736   2.993  12.046  0.8801 -0.7600 -1.1082
  349TIP3   OH222461   6.084   2.253  13.457 -0.2739  0.0527  0.4701
  349TIP3    H122462   6.021   2.218  13.394 -0.5191  1.5076 -0.1341
  349TIP3    H222463   6.108   2.339  13.422 -1.1557  1.3594  2.7831
  350TIP3   OH222464   5.652   3.823  14.300 -0.3276  0.1334  0.1678
  350TIP3    H122465   5.590   3.845  14.230  1.3671  0.1187 -1.3979
  350TIP3    H222466   5.676   3.732  14.283 -1.2279 -0.4733  1.8742
  351TIP3   OH222467   4.702   6.304   0.729 -0.1109  0.9073 -0.5295
  351TIP3    H122468   4.630   6.244   0.711 -0.4013  0.9351  0.4638
  351TIP3    H222469   4.661   6.390   0.742  0.2974  1.3299 -1.9038
  352TIP3   OH222470   6.529   1.162  11.270  0.1711  0.2292 -0.2263
  352TIP3    H122471   6.582   1.212  11.208  0.4040  1.0914  0.6406
  352TIP3    H222472   6.455   1.219  11.290 -1.4568 -1.1906 -1.8580
  353TIP3   OH222473   4.361   2.803  13.671  0.0227 -0.3731  0.0742
  353TIP3    H122474   4.312   2.730  13.709 -0.2217  0.2393  0.9462
  353TIP3    H222475   4.451   2.789  13.700 -0.1359  0.0102  0.7499
  354TIP3   OH222476   5.258   3.637   5.745 -0.6019 -0.5680  0.2889
  354TIP3    H122477   5.246   3.585   5.824  0.1978 -0.8067  0.2692
  354TIP3    H222478   5.352   3.657   5.744 -0.5795 -0.6571 -0.6528
  355TIP3   OH222479   0.295   2.635  16.535 -0.1531  0.4705  0.5807
  355TIP3    H122480   0.234   2.636  16.609 -0.5727 -0.4767  0.2641
  355TIP3    H222481   0.314   2.543  16.521 -0.3277  0.6109 -0.6927
  356TIP3   OH222482   6.659   6.666  12.042  0.6915  0.3175 -0.2898
  356TIP3    H122483   6.581   6.639  12.091  0.4510 -0.4866 -1.0800
  356TIP3    H222484   6.626   6.735  11.983  1.0651  1.5821  0.9154
  357TIP3   OH222485   2.712   1.040  15.092 -0.9389  0.3286 -0.1620
  357TIP3    H122486   2.757   1.000  15.018  0.6469  0.8125  0.4947
  357TIP3    H222487   2.676   0.967  15.141 -1.8324 -0.0062 -1.2768
  358TIP3   OH222488   5.456   0.312  13.068 -0.2959 -0.3903 -0.1094
  358TIP3    H122489   5.490   0.355  12.989  0.3745  0.4777  0.6398
  358TIP3    H222490   5.522   0.328  13.135 -2.0239  1.1147  1.3403
  359TIP3   OH222491   1.383   4.394   0.407 -0.5775  0.0723  0.4229
  359TIP3    H122492   1.352   4.304   0.417  1.1483 -0.5804  0.2394
  359TIP3    H222493   1.427   4.414   0.490  0.2761  0.2167 -0.0522
  360TIP3   OH222494   3.746   4.980  12.859 -0.6405  0.0673  0.3965
  360TIP3    H122495   3.755   4.899  12.909 -0.3581 -0.6777 -0.8034
  360TIP3    H222496   3.781   4.958  12.772 -0.8090  1.4022 -0.0327
  361TIP3   OH222497   1.595   5.707   3.902 -0.5733 -0.0345  0.6155
  361TIP3    H122498   1.669   5.657   3.936 -0.6008  1.5766  3.3773
  361TIP3    H222499   1.635   5.781   3.856 -0.5284 -0.6375 -0.3469
  362TIP3   OH222500   1.679   0.089  15.895  0.0695  0.4705  0.2320
  362TIP3    H122501   1.758   0.126  15.932  1.3080  0.1933 -1.9595
  362TIP3    H222502   1.633   0.049  15.969  1.5715  1.3277  1.6685
  363TIP3   OH222503   3.995   6.072   5.296  0.0484  0.1430 -0.1811
  363TIP3    H122504   4.053   6.117   5.359  0.8957  0.4776 -1.1795
  363TIP3    H222505   3.915   6.055   5.346  0.0955  1.8406  0.5432
  364TIP3   OH222506   0.237   6.694  14.313 -0.2925 -0.0440  0.1831
  364TIP3    H122507   0.249   6.752  14.389 -2.6911 -0.0383  0.6388
  364TIP3    H222508   0.172   6.630  14.342  0.7646 -1.7130 -1.0067
  365TIP3   OH222509   0.795   5.438  12.853  0.3854  0.1559  0.0217
  365TIP3    H122510   0.709   5.438  12.811 -0.1501 -0.4922  1.0971
  365TIP3    H222511   0.833   5.353  12.831 -0.4022 -0.7039  1.8094
  366TIP3   OH222512   1.577   1.576   1.651 -0.3594  0.3111 -0.1362
  366TIP3    H122513   1.584   1.644   1.583 -0.3757  0.5275  0.0768
  366TIP3    H222514   1.573   1.494   1.602  0.0470  0.4335 -0.3835
  367TIP3   OH222515   1.594   6.335  16.814 -0.3328  0.7218  0.3748
  367TIP3    H122516   1.640   6.252  16.830 -1.3409  0.0986  0.1275
  367TIP3    H222517   1.504   6.318  16.842 -0.6535  1.6012 -0.1027
  368TIP3   OH222518   6.106   5.269   3.137 -0.1584 -0.2721  0.0457
  368TIP3    H122519   6.073   5.183   3.109 -2.2263  1.0559 -1.9613
  368TIP3    H222520   6.196   5.271   3.105 -0.8976 -0.7595 -2.2989
  369TIP3   OH222521   3.971   3.470  14.994 -0.6418 -0.2017  0.4598
  369TIP3    H122522   3.877   3.450  14.996 -0.8001  0.3778 -0.4810
  369TIP3    H222523   3.976   3.555  14.949  0.3084 -0.0513  0.8334
  370TIP3   OH222524   3.573   3.396   1.665 -0.7875  0.2883 -0.0067
  370TIP3    H122525   3.656   3.442   1.655 -1.4836  1.9790  1.4183
  370TIP3    H222526   3.597   3.306   1.684  0.7559  0.8978  1.1029
  371TIP3   OH222527   1.814   5.895   5.142  0.4482  0.3878  0.2847
  371TIP3    H122528   1.858   5.886   5.058 -2.8533 -0.1943 -1.5309
  371TIP3    H222529   1.844   5.820   5.193  0.4366 -0.8318 -1.4368
  372TIP3   OH222530   6.286   3.148  12.722 -0.1958  0.2747  0.1730
  372TIP3    H122531   6.218   3.145  12.654  0.2231 -0.8927 -0.2167
  372TIP3    H222532   6.245   3.109  12.799 -0.0288 -0.2903 -0.0183
  373TIP3   OH222533   1.266   6.374   1.257 -0.2466 -0.1649 -0.7253
  373TIP3    H122534   1.355   6.381   1.294 -0.2716  0.2085 -0.7327
  373TIP3    H222535   1.249   6.280   1.255  0.0713 -0.2310 -0.5316
  374TIP3   OH222536   3.384   1.406  16.187 -0.1431 -0.3680  0.2132
  374TIP3    H122537   3.343   1.378  16.269 -1.7686  1.3304  0.0351
  374TIP3    H222538   3.365   1.499  16.181 -0.7076 -0.5987 -2.4692
  375TIP3   OH222539   1.097   4.420   6.036  0.1088 -0.7038 -0.2418
  375TIP3    H122540   1.145   4.494   5.997 -0.3035 -0.3153 -0.0149
  375TIP3    H222541   1.068   4.452   6.121 -1.2667 -0.6465 -0.7118
  376TIP3   OH222542   4.632   2.543  12.473  0.7662 -0.1785  0.0142
  376TIP3    H122543   4.607   2.576  12.386 -0.4789 -2.6483 -0.6490
  376TIP3    H222544   4.716   2.585  12.491  1.9146 -0.8115 -3.1336
  377TIP3   OH222545   4.152   4.421  14.006 -0.5160  0.2638  0.4290
  377TIP3    H122546   4.196   4.504  13.989  1.3005 -0.5365  0.9270
  377TIP3    H222547   4.165   4.407  14.100  1.9194 -1.9642 -0.1178
  378TIP3   OH222548   5.072   3.842   3.990  0.1232  0.2665 -0.1311
  378TIP3    H122549   5.095   3.749   3.987 -1.0973 -0.2043  2.3424
  378TIP3    H222550   5.012   3.854   3.916  0.5563 -0.8173 -0.6885
  379TIP3   OH222551   3.655   0.873  11.727  0.1869  0.0388  0.3531
  379TIP3    H122552   3.719   0.845  11.661 -0.5500 -2.8691  0.7061
  379TIP3    H222553   3.690   0.841  11.810 -0.3702  0.9229  0.9481
  380TIP3   OH222554   6.150   3.724  16.469 -0.2442  0.3951  0.1886
  380TIP3    H122555   6.069   3.775  16.466 -0.1773  0.4766 -1.3440
  380TIP3    H222556   6.120   3.633  16.473 -0.4096  0.4501  0.2192
  381TIP3   OH222557   4.988   5.678  15.379 -0.0694 -0.1057 -0.5653
  381TIP3    H122558   4.946   5.624  15.312  0.5796 -1.1603 -0.1493
  381TIP3    H222559   4.916   5.705  15.436 -0.3001 -1.2505 -0.2932
  382TIP3   OH222560   4.667   1.990  13.455  0.1226 -0.1808 -0.2184
  382TIP3    H122561   4.705   1.917  13.406  1.5613  1.4670 -1.6932
  382TIP3    H222562   4.727   2.002  13.529 -0.9048 -1.3444  0.8475
  383TIP3   OH222563   4.024   3.112  13.100  0.6063 -0.1426  0.1752
  383TIP3    H122564   3.997   3.077  13.186 -0.7230 -1.4627 -0.7314
  383TIP3    H222565   4.049   3.202  13.118 -1.0641  0.0789  1.7337
  384TIP3   OH222566   3.170   1.497   4.723  0.4216  0.1253  0.2165
  384TIP3    H122567   3.088   1.528   4.685  1.3372  2.6697  0.1458
  384TIP3    H222568   3.197   1.426   4.666 -0.3233  1.1142 -1.4433
  385TIP3   OH222569   4.346   3.907   0.382  0.3653 -0.1069 -0.0856
  385TIP3    H122570   4.392   3.843   0.327  0.4172 -0.3656  0.2549
  385TIP3    H222571   4.261   3.866   0.399  0.4099 -0.0996  0.1574
  386TIP3   OH222572   5.156   0.170  13.449  0.3046 -0.1931  0.0751
  386TIP3    H122573   5.206   0.249  13.427  0.2075 -0.5101 -1.3745
  386TIP3    H222574   5.110   0.193  13.530  0.5105  1.1281 -0.1624
  387TIP3   OH222575   5.293   2.774   0.643  0.2093 -0.1684 -1.4283
  387TIP3    H122576   5.382   2.747   0.664  0.1211  0.5073 -0.1537
  387TIP3    H222577   5.262   2.707   0.582  0.8668 -1.5661 -0.2724
  388TIP3   OH222578   5.840   1.491  11.306 -0.1849 -0.0200  0.3056
  388TIP3    H122579   5.847   1.522  11.216 -1.3454 -0.3837  0.0779
  388TIP3    H222580   5.807   1.566  11.355 -1.3674 -0.3527  0.0619
  389TIP3   OH222581   2.527   1.665  14.889  0.1976 -0.3139 -0.6850
  389TIP3    H122582   2.555   1.726  14.821 -3.0302  1.3846 -0.6924
  389TIP3    H222583   2.515   1.582  14.843  1.6406 -0.1788 -1.3481
  390TIP3   OH222584   3.691   1.063   2.660  0.1519 -0.3389  0.4049
  390TIP3    H122585   3.612   1.116   2.668  0.6918  0.3174  1.6415
  390TIP3    H222586   3.737   1.075   2.743  2.1375  0.2258 -0.7036
  391TIP3   OH222587   1.303   5.855  15.190  0.0769  0.0466  0.1266
  391TIP3    H122588   1.222   5.905  15.198 -0.1576 -0.5333  1.6450
  391TIP3    H222589   1.357   5.907  15.130 -0.2266  2.0230  1.4650
  392TIP3   OH222590   5.301   5.450  13.036 -0.3159 -0.0329  0.3038
  392TIP3    H122591   5.255   5.472  13.117  1.3324  1.7534  0.8302
  392TIP3    H222592   5.252   5.376  13.000 -1.8943 -0.0065  2.2237
  393TIP3   OH222593   5.572   4.806   2.018 -0.0065  0.3562  0.2877
  393TIP3    H122594   5.609   4.743   1.957 -1.6724 -0.7814  0.3732
  393TIP3    H222595   5.576   4.763   2.103  0.7575  1.2395  0.7119
  394TIP3   OH222596   3.260   2.151   2.432  0.5214  0.3269 -0.8331
  394TIP3    H122597   3.216   2.174   2.351 -0.1441 -1.2897 -0.9755
  394TIP3    H222598   3.191   2.152   2.498  0.7337  0.0693 -0.6024
  395TIP3   OH222599   1.438   5.475   0.973 -0.1350  0.3983  0.0852
  395TIP3    H122600   1.500   5.538   0.936  0.7665 -0.4722  0.0831
  395TIP3    H222601   1.369   5.468   0.906 -0.3675  1.5382  0.1901
  396TIP3   OH222602   0.534   6.388   1.807  0.6681  0.0710 -0.2854
  396TIP3    H122603   0.527   6.309   1.753  0.4718  0.1336 -0.3526
  396TIP3    H222604   0.547   6.459   1.744 -0.5094  0.2716 -0.3241
  397TIP3   OH222605   2.641   5.570   1.929  0.4699 -0.4081 -0.0092
  397TIP3    H122606   2.696   5.536   2.000  0.3551  1.2256  0.9266
  397TIP3    H222607   2.558   5.522   1.938  0.5517 -0.4178  0.8118
  398TIP3   OH222608   4.099   3.446  11.125 -0.4786  0.3146 -0.0030
  398TIP3    H122609   4.177   3.391  11.115 -0.5184  0.2801 -0.1298
  398TIP3    H222610   4.107   3.510  11.055  0.8973  2.0876  1.6761
  399TIP3   OH222611   5.590   3.031  11.844 -0.3427  0.3203  0.4623
  399TIP3    H122612   5.500   3.003  11.854 -0.4980  0.8331  0.5600
  399TIP3    H222613   5.587   3.100  11.777 -0.1873  1.0303  1.1592
  400TIP3   OH222614   5.361   0.266   5.907 -0.0830 -0.0677  0.6803
  400TIP3    H122615   5.346   0.328   5.978  0.4689  0.4774  0.3202
  400TIP3    H222616   5.309   0.189   5.932  2.3483 -1.0871  3.1867
  401TIP3   OH222617   0.925   4.905   2.845 -0.0637  0.5005 -0.5025
  401TIP3    H122618   1.013   4.903   2.808  0.8369  2.8231  1.2596
  401TIP3    H222619   0.868   4.919   2.770  0.9788 -1.4068 -1.7188
  402TIP3   OH222620   4.269   4.127  15.498 -0.5316  0.0608  0.3161
  402TIP3    H122621   4.212   4.128  15.422 -2.3391 -0.0654  1.6158
  402TIP3    H222622   4.313   4.042  15.493 -0.8129 -0.0500 -0.4440
  403TIP3   OH222623   2.428   0.540  14.664 -0.3797  0.2714  0.1246
  403TIP3    H122624   2.503   0.481  14.669 -0.6559 -0.0087  3.8208
  403TIP3    H222625   2.391   0.525  14.577  2.2056 -1.6043 -0.7648
  404TIP3   OH222626   5.196   0.301  13.121  0.3080 -0.5920 -0.0822
  404TIP3    H122627   5.292   0.305  13.118  0.3371 -0.5587  0.8079
  404TIP3    H222628   5.176   0.245  13.196 -0.3866  2.3664  2.1421
  405TIP3   OH222629   1.095   2.286  16.523  0.1761  0.3233  0.1391
  405TIP3    H122630   1.139   2.201  16.523 -0.7919 -0.1988  1.0102
  405TIP3    H222631   1.164   2.349  16.546  0.3250 -0.6027  2.5802
  406TIP3   OH222632   1.788   5.621   0.954 -0.3918  0.4115 -0.2197
  406TIP3    H122633   1.879   5.615   0.925  0.1517 -2.0392  1.5839
  406TIP3    H222634   1.794   5.654   1.044 -1.1718 -0.4365  0.1681
  407TIP3   OH222635   5.687   1.703  10.557 -0.6058 -0.4184 -0.0397
  407TIP3    H122636   5.661   1.651  10.481 -0.4868  0.5307 -0.7471
  407TIP3    H222637   5.605   1.735  10.594 -0.6316 -0.3346 -0.1696
  408TIP3   OH222638   4.873   1.790   1.055  0.5630  0.7206  0.0364
  408TIP3    H122639   4.952   1.763   1.103 -0.7096  1.6998  2.9424
  408TIP3    H222640   4.882   1.885   1.046  0.7600  0.5674 -1.8157
  409TIP3   OH222641   1.755   2.229  13.069  0.4689 -0.3352 -0.0240
  409TIP3    H122642   1.733   2.281  13.147 -0.5027  1.0934 -1.2123
  409TIP3    H222643   1.733   2.285  12.995  1.0480 -1.7940 -1.3608
  410TIP3   OH222644   5.576   5.016  14.889 -0.2386  0.1630  0.2521
  410TIP3    H122645   5.554   4.991  14.979  0.8964  0.4680  0.6334
  410TIP3    H222646   5.500   5.067  14.859 -0.2546  0.8163  1.3543
  411TIP3   OH222647   5.272   4.974  15.922  0.0081  0.0036  0.0503
  411TIP3    H122648   5.313   4.951  16.005  1.0099  0.2346 -0.3559
  411TIP3    H222649   5.236   5.062  15.936  0.3530  0.1259  0.1955
  412TIP3   OH222650   0.315   4.607   5.273 -0.1747  0.5290  0.0967
  412TIP3    H122651   0.327   4.668   5.200 -0.8133  1.0894  0.4459
  412TIP3    H222652   0.283   4.527   5.231 -2.1386  1.3668 -0.1169
  413TIP3   OH222653   6.058   3.304   0.750 -0.1060 -0.4491 -0.0053
  413TIP3    H122654   6.012   3.228   0.715 -2.0679  0.8758 -0.4799
  413TIP3    H222655   6.054   3.293   0.845 -0.0118 -1.1206 -0.0736
  414TIP3   OH222656   0.442   0.921  14.524  0.3987 -0.0265 -0.3596
  414TIP3    H122657   0.428   1.001  14.575  0.6217 -0.5920  0.6160
  414TIP3    H222658   0.535   0.901  14.537  0.8924  0.7297 -2.3741
  415TIP3   OH222659   5.145   2.260  14.155  0.3682 -0.1564  0.0431
  415TIP3    H122660   5.161   2.165  14.156  0.6849 -0.1461 -1.3321
  415TIP3    H222661   5.122   2.281  14.245  0.5159 -1.5052  0.4304
  416TIP3   OH222662   4.053   2.405   3.090 -0.0222 -0.0781 -0.2527
  416TIP3    H122663   3.961   2.419   3.065 -0.0568  0.4613  0.1615
  416TIP3    H222664   4.101   2.472   3.042  0.1688 -0.3951 -0.5107
  417TIP3   OH222665   5.053   4.856  16.276  1.0311 -0.0451 -0.1540
  417TIP3    H122666   5.063   4.762  16.290 -2.2181 -0.1188  3.0905
  417TIP3    H222667   5.130   4.894  16.317  0.3819 -1.2495  2.4379
  418TIP3   OH222668   3.658   2.987   2.444  0.5939 -0.0613 -0.1277
  418TIP3    H122669   3.714   3.006   2.519  0.4432 -0.0520 -0.0187
  418TIP3    H222670   3.570   3.012   2.472  0.7405  1.2323 -0.7857
  419TIP3   OH222671   1.854   0.845  14.824 -0.5043  0.0834  0.3524
  419TIP3    H122672   1.760   0.832  14.831 -0.5595  0.1770 -0.1869
  419TIP3    H222673   1.867   0.888  14.740  0.0277 -0.0103  0.3782
  420TIP3   OH222674   5.230   3.865  14.436 -0.0679  0.0118 -0.1820
  420TIP3    H122675   5.193   3.800  14.376 -0.1468 -1.0191  0.9397
  420TIP3    H222676   5.231   3.821  14.521  1.0904  1.0307  0.3619
  421TIP3   OH222677   3.325   3.997   1.863  0.1201 -0.2667  0.0511
  421TIP3    H122678   3.412   3.985   1.825 -0.9368 -1.4825 -2.2046
  421TIP3    H222679   3.291   3.909   1.876 -1.5209  0.1371 -1.0599
  422TIP3   OH222680   4.028   0.957   4.935  0.1074  0.2714  0.4283
  422TIP3    H122681   4.020   1.052   4.930  0.4585  0.2582 -1.0912
  422TIP3    H222682   4.121   0.940   4.915 -0.3023 -0.4406 -1.0832
  423TIP3   OH222683   2.817   6.775   4.518 -0.2897  0.1372 -0.0360
  423TIP3    H122684   2.742   6.771   4.577  0.9802  2.3200  1.9361
  423TIP3    H222685   2.788   6.829   4.445 -1.3654 -1.1434 -0.5771
  424TIP3   OH222686   3.743   1.416   3.543 -0.2299 -0.2907  0.3701
  424TIP3    H122687   3.648   1.428   3.546 -0.5612 -2.6516  1.2296
  424TIP3    H222688   3.757   1.359   3.468  0.0769 -2.7468  2.1886
  425TIP3   OH222689   0.781   4.854   3.836 -0.0062 -0.2455  0.0417
  425TIP3    H122690   0.858   4.801   3.854 -0.4837 -0.9334  0.0858
  425TIP3    H222691   0.802   4.940   3.875  0.7134 -0.4317  0.0819
  426TIP3   OH222692   1.263   1.455   2.405  0.1458  0.5478  0.5731
  426TIP3    H122693   1.332   1.407   2.358  0.7571  2.3960 -0.5227
  426TIP3    H222694   1.291   1.454   2.496  0.6281 -0.3424  0.4265
  427TIP3   OH222695   3.585   3.052  13.074  0.7371 -0.4685 -0.0035
  427TIP3    H122696   3.584   3.145  13.096 -0.4914 -0.6771  0.9282
  427TIP3    H222697   3.645   3.013  13.138 -0.8897 -0.6931  1.4754
  428TIP3   OH222698   2.701   4.722   4.977 -0.4116  0.6964  0.5475
  428TIP3    H122699   2.780   4.768   4.951 -0.1685  1.4191  2.4455
  428TIP3    H222700   2.724   4.678   5.059 -1.8131  0.4866  0.8650
  429TIP3   OH222701   2.237   1.154  14.156 -0.6760 -0.4703  0.1751
  429TIP3    H122702   2.238   1.116  14.068 -0.2233  0.7263 -0.3575
  429TIP3    H222703   2.322   1.131  14.193 -1.4205 -2.2659  0.9142
  430TIP3   OH222704   1.795   0.362   3.498 -0.2132  0.0052 -0.3588
  430TIP3    H122705   1.706   0.394   3.516  0.1176  2.1206 -2.0608
  430TIP3    H222706   1.818   0.312   3.576 -3.2165 -1.4712 -0.2390
  431TIP3   OH222707   1.836   4.272  15.042 -0.0135  0.4645 -0.1196
  431TIP3    H122708   1.849   4.363  15.016 -0.1528  0.0091 -1.9195
  431TIP3    H222709   1.757   4.245  14.995 -0.6908 -0.2426  1.3651
  432TIP3   OH222710   0.011   6.115   2.731 -0.0859 -0.1076  0.6143
  432TIP3    H122711   0.037   6.203   2.757  0.1730  0.0599 -0.1964
  432TIP3    H222712   0.071   6.058   2.780  1.1881  0.2429 -0.4685
  433TIP3   OH222713   5.311   0.396  13.401  0.3511  0.4221 -0.1862
  433TIP3    H122714   5.267   0.447  13.469 -1.5928 -0.9583 -0.3150
  433TIP3    H222715   5.399   0.433  13.396  0.0497  1.5943  1.9575
  434TIP3   OH222716   2.692   3.918   4.984  0.4908  0.5618  0.2195
  434TIP3    H122717   2.738   3.910   5.068  2.2927  0.7232 -0.6954
  434TIP3    H222718   2.751   3.877   4.921 -0.1215  1.7810 -1.2065
  435TIP3   OH222719   6.109   4.979   3.052 -0.1356  0.1450  0.2632
  435TIP3    H122720   6.125   4.885   3.044  0.1492 -0.0636  2.7387
  435TIP3    H222721   6.032   4.986   3.108  1.4455  1.3634  2.4273
  436TIP3   OH222722   0.295   5.790  13.179  0.2989  0.3583 -0.0277
  436TIP3    H122723   0.309   5.696  13.169  0.2965  0.5348 -2.2960
  436TIP3    H222724   0.340   5.812  13.260 -0.5744 -1.7389  1.1258
  437TIP3   OH222725   1.898   1.770   2.560  0.0656  0.5203  0.0947
  437TIP3    H122726   1.851   1.832   2.504  0.6772  0.5904 -0.3514
  437TIP3    H222727   1.904   1.813   2.644 -0.3668  0.6550  0.0589
  438TIP3   OH222728   4.548   3.960  11.731  0.0580 -0.9137  0.0195
  438TIP3    H122729   4.636   3.950  11.767 -0.2823 -2.7642  0.4423
  438TIP3    H222730   4.498   3.888  11.770 -2.2387  1.3354  1.5374
  439TIP3   OH222731   2.433   6.558  14.283 -0.0565  0.1400 -0.0432
  439TIP3    H122732   2.441   6.650  14.306 -1.3523  0.8982 -2.2815
  439TIP3    H222733   2.339   6.539  14.291 -0.3837  0.0882 -2.9707
  440TIP3   OH222734   0.617   5.921   5.466  0.4677 -0.5092 -0.3619
  440TIP3    H122735   0.603   5.838   5.511 -0.0163 -1.1256 -1.5823
  440TIP3    H222736   0.688   5.963   5.513  0.1510 -1.2333  0.7906
  441TIP3   OH222737   4.954   0.865   0.856  0.0863  0.0056 -0.8250
  441TIP3    H122738   4.889   0.834   0.793  0.3027  0.6349 -1.3641
  441TIP3    H222739   4.972   0.788   0.911 -0.9470 -0.2256 -0.8030
  442TIP3   OH222740   0.190   2.015   5.247  0.7879  1.1034 -0.1718
  442TIP3    H122741   0.176   2.067   5.327 -0.7775 -1.2172  1.1810
  442TIP3    H222742   0.102   1.987   5.221  1.6403 -3.8789  1.3996
  443TIP3   OH222743   0.877   2.810   2.229 -0.1809 -0.6461  0.1444
  443TIP3    H122744   0.922   2.868   2.167  2.6367  0.2727  2.7884
  443TIP3    H222745   0.820   2.868   2.280  0.6418 -0.6214  1.0605
  444TIP3   OH222746   0.704   6.735  11.353  0.0384  1.0637  0.5950
  444TIP3    H122747   0.679   6.826  11.369 -3.1184  0.5405 -0.7545
  444TIP3    H222748   0.711   6.728  11.258 -1.5702 -0.4939  0.5513
  445TIP3   OH222749   0.982   0.756   5.391  0.3008 -0.6733  0.5019
  445TIP3    H122750   0.994   0.746   5.486  1.4383 -2.1883  0.2343
  445TIP3    H222751   1.033   0.834   5.368 -0.0511 -0.2495  1.1449
  446TIP3   OH222752   4.036   5.642   0.301  0.2639 -0.3587 -0.0140
  446TIP3    H122753   4.059   5.694   0.223  0.3783  0.3291  0.4689
  446TIP3    H222754   3.990   5.566   0.266 -1.4721  0.9010 -0.6529
  447TIP3   OH222755   4.762   3.372   3.236 -0.0036  0.7799  0.3580
  447TIP3    H122756   4.820   3.418   3.175 -0.8260  0.9801 -0.2936
  447TIP3    H222757   4.812   3.367   3.317  1.0339  0.6958 -0.2692
  448TIP3   OH222758   1.137   3.518  14.899  0.6102  0.2533 -0.6170
  448TIP3    H122759   1.043   3.530  14.887  0.6273 -0.0629 -1.1021
  448TIP3    H222760   1.147   3.431  14.936  0.6099  0.9522  1.1167
  449TIP3   OH222761   0.942   5.594   2.851  0.2805 -0.1209  0.4319
  449TIP3    H122762   1.006   5.523   2.857  1.3633  0.8245  0.5776
  449TIP3    H222763   0.965   5.653   2.923 -2.0517 -0.7178  1.7600
  450TIP3   OH222764   0.844   2.439   1.203  0.2969  0.4339 -0.6878
  450TIP3    H122765   0.840   2.524   1.246 -2.1206  0.2966 -0.5357
  450TIP3    H222766   0.852   2.460   1.110 -0.1616  0.8196 -0.6424
  451TIP3   OH222767   2.672   5.617   0.210  0.0452 -0.0878  0.1474
  451TIP3    H122768   2.663   5.691   0.270  0.2694  1.4975 -1.6642
  451TIP3    H222769   2.602   5.630   0.146 -0.1048 -1.6529 -0.0355
  452TIP3   OH222770   6.528   2.892  12.986  0.8804  0.4338  0.0932
  452TIP3    H122771   6.596   2.945  12.944  0.1027 -0.2398 -2.1787
  452TIP3    H222772   6.479   2.854  12.913 -0.3709 -1.1220  1.6535
  453TIP3   OH222773   0.485   4.505   0.219 -0.4426  0.1100 -0.2349
  453TIP3    H122774   0.455   4.593   0.243  0.3277  0.3396 -0.1081
  453TIP3    H222775   0.431   4.447   0.273 -1.0832  0.4942 -0.4549
  454TIP3   OH222776   4.926   2.595   4.100 -0.6710 -0.2885  0.3330
  454TIP3    H122777   4.932   2.595   4.196 -0.1879  0.0877  0.3057
  454TIP3    H222778   4.927   2.687   4.076  1.3334 -0.3830 -0.1476
  455TIP3   OH222779   2.932   2.478   4.541  0.2794  0.0532  0.5304
  455TIP3    H122780   2.971   2.420   4.606 -0.1102 -2.3865 -1.2951
  455TIP3    H222781   2.839   2.479   4.561  0.1972 -0.4901  0.1952
  456TIP3   OH222782   4.595   4.395   6.191 -0.0652 -0.0797 -0.0344
  456TIP3    H122783   4.575   4.328   6.256 -2.5130  1.1317  0.5622
  456TIP3    H222784   4.668   4.444   6.228 -0.0301 -0.7374  0.7827
  457TIP3   OH222785   2.607   5.870  15.949  0.3042 -1.1593 -0.2301
  457TIP3    H122786   2.604   5.816  16.029 -1.0987  0.5143  0.9165
  457TIP3    H222787   2.610   5.960  15.981  1.2016 -0.4658 -2.1059
  458TIP3   OH222788   5.107   6.719   1.195 -0.2357 -0.5183  0.2883
  458TIP3    H122789   5.156   6.662   1.136  2.4640  1.0509  0.8300
  458TIP3    H222790   5.079   6.793   1.140  1.3860  0.4316  0.6537
  459TIP3   OH222791   6.784   0.508   0.934  0.1860  0.2022 -0.0176
  459TIP3    H122792   6.730   0.444   0.887  0.9645 -0.8993  0.5188
  459TIP3    H222793   6.831   0.455   0.999  0.9268  1.3224  0.3802
  460TIP3   OH222794   5.040   3.922  15.635  0.1520 -0.7482  0.0148
  460TIP3    H122795   5.059   4.005  15.679  0.1568 -1.9871  2.5058
  460TIP3    H222796   4.944   3.914  15.638  0.1419 -0.7772 -0.3430
  461TIP3   OH222797   5.104   1.118   2.943  0.3169  0.3635 -0.0942
  461TIP3    H122798   5.035   1.149   3.003  1.2195  1.8398  0.2238
  461TIP3    H222799   5.066   1.041   2.901 -1.8557  1.5999 -0.5428
  462TIP3   OH222800   2.008   0.725   5.488  0.3912 -0.0247 -0.0444
  462TIP3    H122801   2.048   0.798   5.442 -0.9109  0.7999  0.1027
  462TIP3    H222802   1.924   0.758   5.520  1.0233 -0.6707  2.5666
  463TIP3   OH222803   0.700   4.954   0.159 -0.9675 -0.2471  0.0072
  463TIP3    H122804   0.623   4.902   0.182 -0.8405 -1.9366 -2.9979
  463TIP3    H222805   0.679   4.993   0.074  0.0438  2.4998  0.8875
  464TIP3   OH222806   6.219   4.216   0.824  0.2276 -0.1292  0.2898
  464TIP3    H122807   6.192   4.249   0.910  0.0777 -1.2742  0.7012
  464TIP3    H222808   6.280   4.145   0.844  0.7432  0.0605 -0.5704
  465TIP3   OH222809   0.231   1.509  15.031  0.4085 -0.2596  0.3451
  465TIP3    H122810   0.216   1.417  15.051  1.1803 -0.0203  2.2358
  465TIP3    H222811   0.157   1.534  14.976  0.1627 -1.9774 -0.1653
  466TIP3   OH222812   3.731   4.380   2.002 -0.3716 -0.0322 -0.9282
  466TIP3    H122813   3.769   4.417   1.922  0.7225 -2.0441 -1.4020
  466TIP3    H222814   3.807   4.362   2.058 -0.9660 -0.3865 -0.2242
  467TIP3   OH222815   3.617   1.454   0.389  0.3118  0.0058 -0.1283
  467TIP3    H122816   3.535   1.504   0.387  1.0789  1.2613 -1.7073
  467TIP3    H222817   3.612   1.405   0.471 -1.7531  0.4934  0.1001
  468TIP3   OH222818   1.810   1.115  12.321  0.2190  0.1792 -0.0825
  468TIP3    H122819   1.838   1.066  12.243 -1.1277 -3.8837  1.7191
  468TIP3    H222820   1.890   1.125  12.373  0.3334 -1.4388  0.1025
  469TIP3   OH222821   5.153   6.092  12.253 -0.0448 -0.0111 -0.8524
  469TIP3    H122822   5.188   6.141  12.179  0.1721  2.5813  0.8641
  469TIP3    H222823   5.095   6.153  12.298 -0.9859 -1.8335  0.5473
  470TIP3   OH222824   5.190   5.751  10.874 -0.0839  0.1261 -0.0623
  470TIP3    H122825   5.198   5.665  10.916 -0.5267  0.6370  1.1132
  470TIP3    H222826   5.256   5.751  10.805  2.0624 -0.0260  1.8932
  471TIP3   OH222827   3.245   5.633   3.226  0.0791 -0.3751 -0.3686
  471TIP3    H122828   3.251   5.568   3.297  1.2865 -0.0048 -0.1074
  471TIP3    H222829   3.335   5.661   3.212 -0.5310  2.5575  0.7592
  472TIP3   OH222830   2.107   3.226   0.039  0.7350  0.0656  0.0275
  472TIP3    H122831   2.151   3.175  -0.030  1.0939 -0.1832  0.4318
  472TIP3    H222832   2.179   3.263   0.090  0.5640 -2.0194  1.9577
  473TIP3   OH222833   0.809   6.509  16.067 -0.2784  0.6045  0.2448
  473TIP3    H122834   0.835   6.487  15.977 -0.5298 -0.4833  0.4215
  473TIP3    H222835   0.717   6.531  16.061 -0.8476 -1.4580  0.5004
  474TIP3   OH222836   4.475   6.311  13.627  0.4776 -0.3872 -0.1207
  474TIP3    H122837   4.462   6.401  13.655  0.7720  0.0566 -1.3429
  474TIP3    H222838   4.519   6.268  13.700 -1.9190 -0.2415  1.5380
  475TIP3   OH222839   3.737   4.753  15.164 -0.7406 -0.0339  0.0881
  475TIP3    H122840   3.779   4.803  15.094  0.7237  0.0552  0.9859
  475TIP3    H222841   3.680   4.691  15.119 -1.2730  1.2680 -1.1027
  476TIP3   OH222842   1.456   0.688  17.135  0.5698  0.3498  0.0719
  476TIP3    H122843   1.501   0.743  17.200  0.9935  0.8955 -0.6781
  476TIP3    H222844   1.500   0.706  17.053 -0.9606  0.8549 -0.6848
  477TIP3   OH222845   5.242   3.578   0.804  0.4334 -0.6034  0.0111
  477TIP3    H122846   5.262   3.496   0.760  0.2725 -0.4934 -0.2652
  477TIP3    H222847   5.328   3.618   0.821  0.4765 -0.4492 -0.5733
  478TIP3   OH222848   4.857   0.561  10.454  0.1360  0.1821  0.3680
  478TIP3    H122849   4.790   0.604  10.506 -0.5422 -1.6581  1.0770
  478TIP3    H222850   4.921   0.531  10.518  1.1606  1.0169 -0.2167
  479TIP3   OH222851   2.659   2.452   1.076  0.1995 -0.4817  0.5218
  479TIP3    H122852   2.697   2.496   1.152  0.7666  1.1800 -0.6723
  479TIP3    H222853   2.643   2.362   1.106  2.9355 -0.6330  1.7902
  480TIP3   OH222854   1.798   2.493  11.076  0.2137  0.0229 -0.3834
  480TIP3    H122855   1.736   2.565  11.064  0.3556  0.2208  0.0694
  480TIP3    H222856   1.819   2.465  10.987 -0.9369 -0.4004 -0.5278
  481TIP3   OH222857   4.643   0.444  13.402 -0.0359  0.0017 -0.2923
  481TIP3    H122858   4.595   0.504  13.345 -2.1112  0.2384  1.5702
  481TIP3    H222859   4.728   0.486  13.414 -0.1483  0.7535 -1.8478
  482TIP3   OH222860   3.447   5.505   0.269 -0.2341  0.0995 -0.1673
  482TIP3    H122861   3.404   5.423   0.292 -0.7992 -0.3313 -2.5373
  482TIP3    H222862   3.389   5.573   0.302 -0.2075 -0.4404  1.0363
  483TIP3   OH222863   5.665   4.176   0.865  0.4307  0.1487  0.3521
  483TIP3    H122864   5.637   4.255   0.910  0.9556  0.1691  0.6550
  483TIP3    H222865   5.752   4.198   0.830 -0.2962  0.4313 -1.4124
  484TIP3   OH222866   1.007   5.118   3.008 -0.0217 -0.0837 -0.7377
  484TIP3    H122867   0.940   5.145   3.071 -0.3582 -0.2092 -1.0386
  484TIP3    H222868   0.957   5.084   2.933  0.3845 -1.0307 -0.5927
  485TIP3   OH222869   5.723   6.515  16.147  0.3439  0.4851 -0.4996
  485TIP3    H122870   5.750   6.534  16.058  1.1726  0.7454 -0.1995
  485TIP3    H222871   5.641   6.466  16.137  0.7755 -0.0794 -1.4129
  486TIP3   OH222872   6.057   0.467   2.624  0.0688 -0.1152  0.1908
  486TIP3    H122873   6.070   0.507   2.710  0.6347  0.3518 -0.1020
  486TIP3    H222874   5.983   0.515   2.586  0.2898  0.1798  0.1278
  487TIP3   OH222875   2.848   1.798  11.924  0.3262  0.0177 -0.2765
  487TIP3    H122876   2.849   1.813  12.019 -2.4465  0.7490 -0.2844
  487TIP3    H222877   2.820   1.706  11.916 -1.1703  0.4500 -0.3436
  488TIP3   OH222878   3.408   2.410  16.097  0.3614  0.5278 -0.5028
  488TIP3    H122879   3.451   2.427  16.181 -0.7208  0.8879 -0.0078
  488TIP3    H222880   3.474   2.433  16.031  0.6231  1.9464  0.2223
  489TIP3   OH222881   4.066   6.047   2.980 -0.3417  0.6412  0.1616
  489TIP3    H122882   4.054   5.956   3.009  1.0651  0.4408  0.1892
  489TIP3    H222883   3.977   6.082   2.972 -1.0378 -1.3031 -1.6545
  490TIP3   OH222884   4.869   2.593  11.184 -0.2390  0.0454  0.8192
  490TIP3    H122885   4.779   2.595  11.152  0.5563  0.6234 -1.5484
  490TIP3    H222886   4.876   2.672  11.239 -1.0307  0.2737  0.6107
  491TIP3   OH222887   3.380   2.680  16.516  0.1501 -0.0212  0.3890
  491TIP3    H122888   3.452   2.729  16.475 -0.0197 -1.7434 -2.1919
  491TIP3    H222889   3.303   2.703  16.464 -0.3456 -1.3424  0.5052
  492TIP3   OH222890   3.225   2.015   6.116  0.2989  0.0993 -0.0054
  492TIP3    H122891   3.150   1.959   6.134  0.1367  0.2003 -0.3603
  492TIP3    H222892   3.225   2.078   6.187 -0.2743  0.4294 -0.2862
  493TIP3   OH222893   2.857   0.739  13.049  0.0454 -0.0329  0.4949
  493TIP3    H122894   2.800   0.716  13.123  1.2302 -2.9200  0.6564
  493TIP3    H222895   2.813   0.701  12.973 -0.3033  1.4233 -0.0592
  494TIP3   OH222896   2.960   1.454  11.521  0.2223 -0.2937 -0.3332
  494TIP3    H122897   2.976   1.424  11.610 -1.5014 -0.3820 -0.0094
  494TIP3    H222898   2.870   1.488  11.523  0.0593 -0.5221 -2.0816
  495TIP3   OH222899   3.680   1.275   0.961  0.3722  0.2067 -0.1736
  495TIP3    H122900   3.612   1.294   1.025  1.6386 -0.0679  1.2873
  495TIP3    H222901   3.687   1.179   0.961 -0.3090  0.1309 -1.4886
  496TIP3   OH222902   4.107   0.368   0.897  0.3840  0.1987 -0.4086
  496TIP3    H122903   4.025   0.374   0.947 -0.4294  1.1995 -1.7968
  496TIP3    H222904   4.096   0.290   0.842  0.1947  0.5469 -0.8690
  497TIP3   OH222905   0.204   1.159  15.804  0.2773  0.1044  0.1998
  497TIP3    H122906   0.228   1.067  15.814  1.3878  0.2480 -0.8622
  497TIP3    H222907   0.154   1.162  15.722  1.7188  0.6645 -0.6983
  498TIP3   OH222908   0.975   6.236  14.090 -0.2795  0.3287  0.1284
  498TIP3    H122909   0.983   6.294  14.165  2.5940  0.6120 -0.2977
  498TIP3    H222910   1.001   6.290  14.015  1.2454 -1.0978 -0.4378
  499TIP3   OH222911   0.972   4.348  13.162  0.4575  0.4038 -0.1249
  499TIP3    H122912   1.018   4.401  13.097  0.4107  0.7034  0.0841
  499TIP3    H222913   0.986   4.257  13.134 -1.6964  0.5677 -2.0017
  500TIP3   OH222914   3.046   3.360   5.208 -0.7794 -0.5141 -0.4996
  500TIP3    H122915   2.992   3.419   5.261 -0.3376  0.8466 -1.5117
  500TIP3    H222916   3.042   3.397   5.120  0.8510 -1.0758 -0.8369
  501TIP3   OH222917   0.905   6.042   3.812  0.3186 -0.0153  0.3002
  501TIP3    H122918   0.829   6.043   3.871  0.0994  0.4447  0.0116
  501TIP3    H222919   0.872   6.077   3.730  1.2774  1.9032  0.6908
  502TIP3   OH222920   6.681   2.887   3.728  0.5548  0.4393  0.3616
  502TIP3    H122921   6.768   2.855   3.705 -0.5981 -2.8346  0.0147
  502TIP3    H222922   6.667   2.858   3.818  0.5986  2.9637  1.2608
  503TIP3   OH222923   4.299   6.543  11.170  0.4594  0.3757  0.3628
  503TIP3    H122924   4.261   6.606  11.109 -1.1646 -1.1623 -0.2904
  503TIP3    H222925   4.233   6.532  11.238  2.1848  1.9528  2.4493
  504TIP3   OH222926   1.018   4.263   1.002 -0.2554 -0.5058  0.2532
  504TIP3    H122927   1.110   4.277   1.026  0.5891  1.0408 -3.2586
  504TIP3    H222928   0.976   4.348   1.020 -0.5745 -0.6472  0.1704
  505TIP3   OH222929   0.098   6.254  12.353 -0.3614 -0.2001 -0.3384
  505TIP3    H122930   0.028   6.294  12.405 -0.0168  1.2996 -0.9771
  505TIP3    H222931   0.091   6.160  12.372 -1.6830  0.0612  0.6363
  506TIP3   OH222932   6.398   5.219  12.221  0.3886 -0.0775 -0.3111
  506TIP3    H122933   6.449   5.139  12.212  1.1474  0.5250 -1.7907
  506TIP3    H222934   6.461   5.286  12.245  0.7277  0.9938 -3.6116
  507TIP3   OH222935   2.115   4.657   5.338 -0.3682  0.4172 -0.3917
  507TIP3    H122936   2.201   4.615   5.336  0.3796  1.8971 -2.0544
  507TIP3    H222937   2.112   4.702   5.423  0.7334  0.7733 -0.5276
  508TIP3   OH222938   1.008   3.560   3.404  0.0361  0.2160  0.1216
  508TIP3    H122939   0.948   3.635   3.399  0.4563  0.6428  1.0805
  508TIP3    H222940   0.991   3.510   3.325 -2.1961 -0.1273  0.7517
  509TIP3   OH222941   3.129   3.326   1.917  0.5379 -0.3339  0.2114
  509TIP3    H122942   3.128   3.230   1.923 -0.6501 -0.4077 -0.8075
  509TIP3    H222943   3.041   3.349   1.888  0.1292  1.2267  2.3992
  510TIP3   OH222944   2.396   1.859  12.761  0.1327  0.8713 -0.2904
  510TIP3    H122945   2.321   1.854  12.820  2.0356  0.4893  2.2695
  510TIP3    H222946   2.390   1.781  12.707 -1.5245  1.0903 -0.4872
  511TIP3   OH222947   3.969   1.054   1.827 -0.5226  0.5566  0.3646
  511TIP3    H122948   4.019   0.974   1.811  1.1913  1.2460  1.9304
  511TIP3    H222949   3.891   1.025   1.874  0.2500 -0.1705  1.2185
  512TIP3   OH222950   2.391   6.177   1.383 -0.1118 -0.0974  0.6715
  512TIP3    H122951   2.469   6.151   1.431  0.5312  0.0433 -0.2580
  512TIP3    H222952   2.319   6.135   1.429  0.1868  1.8561  3.1358
  513TIP3   OH222953   2.669   4.453  11.873 -0.4989  0.6935  0.3390
  513TIP3    H122954   2.760   4.449  11.846 -1.0962  0.8041 -1.9527
  513TIP3    H222955   2.643   4.362  11.886 -0.1635  0.6373  0.6144
  514TIP3   OH222956   0.865   5.136  13.078  0.4313  0.2049 -0.3298
  514TIP3    H122957   0.894   5.046  13.060 -0.8381  0.0553 -1.8377
  514TIP3    H222958   0.770   5.129  13.087  0.5495  1.0366  2.1485
  515TIP3   OH222959   2.500   2.933  17.127 -0.5795  0.0735 -0.1187
  515TIP3    H122960   2.546   2.947  17.044 -0.7088 -1.2336 -0.4288
  515TIP3    H222961   2.559   2.970  17.193  0.0399  0.1308 -0.6912
  516TIP3   OH222962   1.813   4.125  16.774  0.6887  0.6893 -0.0352
  516TIP3    H122963   1.825   4.143  16.868 -0.7668  0.8998  0.1272
  516TIP3    H222964   1.783   4.208  16.738  1.6234  0.7160 -0.7778
  517TIP3   OH222965   5.053   4.566   3.145  0.4588 -0.0418 -0.0582
  517TIP3    H122966   5.005   4.642   3.178  0.2460  0.1202 -0.7206
  517TIP3    H222967   4.987   4.512   3.103  0.8671  0.2856 -1.1657
  518TIP3   OH222968   0.513   1.663  15.027 -0.0871  0.5412  0.2070
  518TIP3    H122969   0.452   1.728  14.994  1.2155  0.8063 -1.8809
  518TIP3    H222970   0.474   1.579  15.002 -0.2555  0.6495  0.1018
  519TIP3   OH222971   3.638   4.601  13.474 -0.4119  0.4104 -0.1468
  519TIP3    H122972   3.634   4.693  13.502  1.4043  0.3086  0.6269
  519TIP3    H222973   3.631   4.551  13.555  0.4272 -0.0417 -0.3394
  520TIP3   OH222974   4.494   4.604   2.864 -0.7073  0.1872  0.4265
  520TIP3    H122975   4.515   4.537   2.930  0.3674 -1.4348 -1.4402
  520TIP3    H222976   4.574   4.610   2.811 -1.9477  0.4381 -1.5166
  521TIP3   OH222977   0.406   2.181  16.285 -0.7219  0.4049  0.1870
  521TIP3    H122978   0.362   2.246  16.229  2.4928  1.4424 -1.3925
  521TIP3    H222979   0.450   2.123  16.223 -0.2878 -0.8965  1.6701
  522TIP3   OH222980   0.742   6.069   4.584 -0.1309 -0.3022  0.5256
  522TIP3    H122981   0.709   6.077   4.674  0.0608  0.6497  0.5297
  522TIP3    H222982   0.819   6.013   4.592  0.4508  0.5450  1.1283
  523TIP3   OH222983   5.153   1.707   3.806 -0.2839  0.1946 -0.2155
  523TIP3    H122984   5.237   1.661   3.811 -0.1790  0.2240 -1.3983
  523TIP3    H222985   5.161   1.778   3.870 -0.2035 -1.0201  1.1656
  524TIP3   OH222986   1.890   3.549  15.860 -0.5586 -0.7177  0.0006
  524TIP3    H122987   1.818   3.596  15.817  2.1660  2.0073 -2.0717
  524TIP3    H222988   1.852   3.516  15.941 -3.7721  1.8444 -0.2334
  525TIP3   OH222989   5.438   0.913  10.943  0.2815  0.9816 -0.7541
  525TIP3    H122990   5.402   0.857  11.012  1.0860 -0.2236 -1.2789
  525TIP3    H222991   5.444   1.000  10.982 -1.6992  0.8893 -0.1505
  526TIP3   OH222992   1.893   4.924  10.708 -0.3034 -0.4135  0.0084
  526TIP3    H122993   1.982   4.943  10.736 -0.1768 -0.8967 -0.0529
  526TIP3    H222994   1.886   4.962  10.621 -0.1414 -0.4167 -0.0061
  527TIP3   OH222995   1.248   2.996  15.875  0.0548  0.2895  0.4565
  527TIP3    H122996   1.315   2.936  15.908 -0.5014 -0.3609  0.4435
  527TIP3    H222997   1.175   2.987  15.938  0.5650  2.2035  1.4131
  528TIP3   OH222998   1.142   3.213  14.699 -0.0506 -0.0913 -0.0388
  528TIP3    H122999   1.079   3.214  14.771  3.1963 -2.0352  3.1157
  528TIP3    H223000   1.184   3.299  14.703 -0.6596  0.2266 -0.3952
  529TIP3   OH223001   5.802   4.552  17.142  0.1345  0.8213  0.0321
  529TIP3    H123002   5.835   4.617  17.205  0.7192  1.6366 -1.0689
  529TIP3    H223003   5.785   4.474  17.194 -0.8400  1.9282  1.4625
  530TIP3   OH223004   5.527   3.175   1.503  0.1052  0.4751  0.0566
  530TIP3    H123005   5.499   3.264   1.521  0.8420  1.3046 -2.4507
  530TIP3    H223006   5.611   3.185   1.457 -0.0214 -1.4806 -0.7010
  531TIP3   OH223007   1.390   2.682   1.625  0.1456  0.2497  0.3027
  531TIP3    H123008   1.351   2.743   1.688 -0.3562  0.9342 -0.6480
  531TIP3    H223009   1.322   2.617   1.609  0.4194 -0.1604  0.7549
  532TIP3   OH223010   4.781   3.016  14.114 -0.1392  1.0222 -0.9660
  532TIP3    H123011   4.704   2.966  14.085  0.2450 -1.0814  1.3520
  532TIP3    H223012   4.760   3.043  14.203  1.4040  1.3341 -0.6706
  533TIP3   OH223013   1.182   3.351   5.392  0.2602 -0.4463  0.0859
  533TIP3    H123014   1.180   3.363   5.487 -1.3920 -2.4463  0.3650
  533TIP3    H223015   1.246   3.282   5.378 -0.4470 -1.0802 -0.0972
  534TIP3   OH223016   3.591   2.939  10.074 -0.0739  0.1474  0.1218
  534TIP3    H123017   3.589   2.958  10.168  3.3820  0.8554  0.2062
  534TIP3    H223018   3.654   2.868  10.065 -0.5098 -0.0628 -1.6485
  535TIP3   OH223019   4.867   6.805   5.754  0.3163 -0.1879 -0.2410
  535TIP3    H123020   4.822   6.840   5.678 -1.0500 -2.3440 -0.5137
  535TIP3    H223021   4.959   6.803   5.729  0.0630  0.4199 -1.2860
  536TIP3   OH223022   1.055   4.649  10.396  0.2843 -0.7736 -0.1052
  536TIP3    H123023   1.115   4.622  10.326  1.0572  0.1747  0.1750
  536TIP3    H223024   0.971   4.609  10.372  0.5771 -0.6214 -1.4814
  537TIP3   OH223025   4.341   1.721   1.418 -0.1319 -0.0454  0.3034
  537TIP3    H123026   4.372   1.747   1.332  1.8445 -2.2190  0.2499
  537TIP3    H223027   4.297   1.637   1.404 -1.5946  0.5404  1.1547
  538TIP3   OH223028   1.519   4.439  12.363 -0.3674 -0.3218  0.0398
  538TIP3    H123029   1.584   4.469  12.299  0.2657  0.4585  1.0101
  538TIP3    H223030   1.545   4.350  12.383 -0.5367 -0.5551 -0.7324
  539TIP3   OH223031   4.297   2.001  16.475  0.0143  0.1378  0.4691
  539TIP3    H123032   4.214   1.956  16.490 -0.0029 -0.1092 -0.3234
  539TIP3    H223033   4.274   2.078  16.423  0.3941 -0.4817 -0.6547
  540TIP3   OH223034   2.977   4.562   3.688  0.8733  0.7694  0.3670
  540TIP3    H123035   3.024   4.610   3.756  1.9808 -3.0657  2.6288
  540TIP3    H223036   2.924   4.498   3.736  0.6581 -1.2646 -2.3412
  541TIP3   OH223037   3.359   4.762   3.355 -0.0913  0.4212  0.0676
  541TIP3    H123038   3.276   4.740   3.396 -1.3616  2.0089 -1.4989
  541TIP3    H223039   3.423   4.703   3.396 -1.9573 -0.8345  1.3026
  542TIP3   OH223040   6.777   6.506   6.545 -0.3621 -0.2422  0.0409
  542TIP3    H123041   6.825   6.439   6.497  0.4231 -0.7346  1.4727
  542TIP3    H223042   6.730   6.555   6.477  0.4458 -1.1159 -1.1845
  543TIP3   OH223043   5.095   5.317   0.912  0.5386 -0.8918 -0.6665
  543TIP3    H123044   5.060   5.390   0.861 -2.6901  1.5380  4.2329
  543TIP3    H223045   5.027   5.249   0.907 -0.8955  0.2355  1.7831
  544TIP3   OH223046   5.794   2.120  12.995 -0.0995 -0.1317 -0.0104
  544TIP3    H123047   5.830   2.032  12.988 -0.2190 -0.0856 -1.5601
  544TIP3    H223048   5.699   2.108  12.998 -0.0714 -0.1390  1.9031
  545TIP3   OH223049   1.493   3.600   0.518  0.1947  0.1087 -0.1025
  545TIP3    H123050   1.536   3.599   0.432  0.7440 -4.5666 -0.0774
  545TIP3    H223051   1.411   3.553   0.503 -0.8602  1.3555  1.5051
  546TIP3   OH223052   1.565   3.811  15.065  0.6856 -0.6547 -0.0394
  546TIP3    H123053   1.584   3.719  15.082 -0.7467 -1.0123 -0.2634
  546TIP3    H223054   1.643   3.844  15.021  1.7063 -1.4323  1.1323
  547TIP3   OH223055   1.377   1.728  15.760 -0.2407  0.4640  0.1323
  547TIP3    H123056   1.374   1.823  15.774 -1.7064  0.5619 -0.5906
  547TIP3    H223057   1.359   1.718  15.667  2.0574 -0.4592 -0.2685
  548TIP3   OH223058   3.244   4.660  14.715 -0.1040  0.4435  0.3683
  548TIP3    H123059   3.317   4.628  14.661 -1.5526 -1.2586 -0.6739
  548TIP3    H223060   3.169   4.607  14.689 -1.6938  1.9541  1.5963
  549TIP3   OH223061   2.943   2.111  16.494 -0.4494  0.2838  0.0288
  549TIP3    H123062   2.936   2.069  16.579 -0.4121  0.2246  0.0033
  549TIP3    H223063   3.012   2.063  16.449  1.2368  1.8521  0.8459
  550TIP3   OH223064   4.420   0.443   5.243 -0.7285 -0.4658  0.6183
  550TIP3    H123065   4.513   0.437   5.266 -0.1740  1.8093 -0.7193
  550TIP3    H223066   4.404   0.366   5.188 -0.6579 -2.8730  3.6704
  551TIP3   OH223067   6.630   5.448  17.097  0.0131  0.1463  0.5574
  551TIP3    H123068   6.676   5.448  17.182 -1.5293  1.5133  1.4586
  551TIP3    H223069   6.594   5.536  17.091  2.6557  1.2050 -3.0282
  552TIP3   OH223070   1.329   2.056  12.694 -0.4826  0.1171 -0.1632
  552TIP3    H123071   1.417   2.089  12.714 -1.7565  2.0288  3.1741
  552TIP3    H223072   1.328   1.968  12.732 -0.2190  0.4097  0.5539
  553TIP3   OH223073   1.202   1.459   5.360  0.3690  0.2078  0.3456
  553TIP3    H123074   1.247   1.519   5.301 -1.5443  0.6007 -0.8291
  553TIP3    H223075   1.210   1.498   5.447  1.8149  0.4999  0.0926
  554TIP3   OH223076   3.806   4.898  16.447  0.0889 -0.0965  0.2498
  554TIP3    H123077   3.845   4.924  16.364 -0.6651  1.0902  0.2368
  554TIP3    H223078   3.765   4.978  16.481 -1.6513 -1.0696  0.6179
  555TIP3   OH223079   0.133   1.829  12.065  0.3401  0.1783 -0.0067
  555TIP3    H123080   0.078   1.905  12.084 -0.5439 -0.4734  0.0866
  555TIP3    H223081   0.101   1.797  11.981 -0.7011 -1.3136  0.9220
  556TIP3   OH223082   2.537   3.840  11.658  0.1966  0.1795 -0.0017
  556TIP3    H123083   2.622   3.884  11.647  0.0177  0.9509  1.4672
  556TIP3    H223084   2.529   3.828  11.753 -0.9060 -0.7665 -0.2064
  557TIP3   OH223085   5.745   6.292  15.254  0.4327 -0.1467  0.0372
  557TIP3    H123086   5.682   6.276  15.325 -1.1582 -1.3283 -1.5468
  557TIP3    H223087   5.710   6.369  15.208  1.7697  0.9730  0.8196
  558TIP3   OH223088   0.959   4.492  14.006 -0.1857  0.0683  0.2486
  558TIP3    H123089   0.937   4.512  13.915  3.7560 -0.0881 -0.9088
  558TIP3    H223090   0.971   4.577  14.048 -1.0665  0.1254  0.4164
  559TIP3   OH223091   4.725   4.365   0.596  0.5987 -0.4164 -0.7669
  559TIP3    H123092   4.819   4.357   0.582  0.7655 -2.5030  1.1324
  559TIP3    H223093   4.686   4.332   0.515  1.4381  1.1510 -1.8675
  560TIP3   OH223094   1.681   6.755   1.090  0.0029  0.6060 -0.2532
  560TIP3    H123095   1.678   6.831   1.032  1.0044  0.1636 -0.8930
  560TIP3    H223096   1.701   6.792   1.176  0.4429  1.0776 -0.5521
  561TIP3   OH223097   0.488   6.778  13.206  0.5664 -0.7614  0.1080
  561TIP3    H123098   0.505   6.868  13.179 -0.9609 -1.0182 -1.8877
  561TIP3    H223099   0.576   6.739  13.212  1.2188  0.6794  0.4805
  562TIP3   OH223100   3.624   1.887   5.311  0.4222  0.5271  0.1495
  562TIP3    H123101   3.650   1.807   5.357  2.2115  0.4178 -0.9152
  562TIP3    H223102   3.558   1.858   5.248 -0.5962  0.3271  1.2853
  563TIP3   OH223103   6.723   2.082   1.485 -0.3143  0.3281  0.1733
  563TIP3    H123104   6.806   2.115   1.450  0.1081 -1.3551 -0.4877
  563TIP3    H223105   6.695   2.015   1.422 -0.3310 -1.7097  2.2191
  564TIP3   OH223106   1.586   1.562   2.542 -0.5762  0.1370  0.2160
  564TIP3    H123107   1.645   1.574   2.617  0.2817 -0.6961 -0.3049
  564TIP3    H223108   1.598   1.641   2.490 -2.1224  1.3259  1.5440
  565TIP3   OH223109   0.078   1.726   2.594  0.1311  0.6654 -0.2118
  565TIP3    H123110   0.097   1.696   2.684 -1.9642  1.4060  0.5264
  565TIP3    H223111   0.139   1.798   2.580 -0.5692  1.5862  1.2544
  566TIP3   OH223112   1.939   0.635   3.858  0.1030 -0.4435 -0.8594
  566TIP3    H123113   2.014   0.589   3.819 -0.1989 -0.0494 -1.9505
  566TIP3    H223114   1.964   0.650   3.949  1.2119 -0.6195 -1.1233
  567TIP3   OH223115   3.483   4.875   1.937 -0.2566 -0.2004  0.0899
  567TIP3    H123116   3.392   4.879   1.908  0.1308  1.3439 -1.0273
  567TIP3    H223117   3.513   4.966   1.937  0.2860 -0.1895  3.8891
  568TIP3   OH223118   1.279   4.431  13.467  0.3507  0.7909  0.5858
  568TIP3    H123119   1.248   4.340  13.463  1.0186  0.5945 -2.1763
  568TIP3    H223120   1.205   4.483  13.437  0.9630  0.7890 -1.0537
  569TIP3   OH223121   0.840   3.098  15.638 -0.2431  0.5064 -1.0333
  569TIP3    H123122   0.852   3.026  15.576  0.0711 -0.5181  0.1739
  569TIP3    H223123   0.775   3.066  15.700  1.7648  0.1519  1.0343
  570TIP3   OH223124   2.998   2.555  10.530  0.2946 -0.4684  0.1660
  570TIP3    H123125   2.971   2.540  10.620 -2.5361  1.6298 -0.1816
  570TIP3    H223126   2.958   2.483  10.480  0.7207 -0.8738  0.4027
  571TIP3   OH223127   4.848   5.059  11.707  0.1255 -0.3492 -0.0746
  571TIP3    H123128   4.810   5.145  11.724  0.7871 -0.1658  0.5598
  571TIP3    H223129   4.943   5.073  11.715  0.3374 -0.8109 -1.4717
  572TIP3   OH223130   0.142   1.048   5.622  0.2182  0.7304  0.0908
  572TIP3    H123131   0.096   1.056   5.705 -1.3045  1.1510 -0.7496
  572TIP3    H223132   0.129   1.133   5.580  1.1809  0.6077 -0.4693
  573TIP3   OH223133   4.108   6.299   0.624 -0.0102 -0.0090 -0.5075
  573TIP3    H123134   4.197   6.312   0.592 -0.6893  0.5518 -2.3376
  573TIP3    H223135   4.057   6.283   0.544 -1.6349  0.2277  0.4426
  574TIP3   OH223136   6.792   2.475   2.999 -0.3597 -1.0032 -0.5183
  574TIP3    H123137   6.764   2.390   3.032  1.6003 -1.2944  0.5140
  574TIP3    H223138   6.888   2.471   3.000 -0.0873  2.0909  2.0221
  575TIP3   OH223139   1.216   4.340   5.450  0.5161 -0.3338  0.5845
  575TIP3    H123140   1.145   4.278   5.463  0.3244 -0.9578 -2.5508
  575TIP3    H223141   1.198   4.411   5.511 -3.9951  0.4895 -1.3029
  576TIP3   OH223142   3.829   0.477  14.130 -0.3416 -0.3374  0.6053
  576TIP3    H123143   3.872   0.397  14.162  0.6816 -0.3574 -0.7296
  576TIP3    H223144   3.815   0.461  14.036 -0.1318  1.0433  0.3166
  577TIP3   OH223145   6.499   0.404   4.375 -0.2791 -0.0269 -0.0109
  577TIP3    H123146   6.580   0.353   4.383 -0.6919 -0.5674  0.8246
  577TIP3    H223147   6.431   0.347   4.412 -0.5180  1.7110  2.4149
  578TIP3   OH223148   5.989   0.050   2.831  0.3676 -0.4819 -0.1092
  578TIP3    H123149   5.920   0.113   2.847 -1.4772 -2.2926 -0.5287
  578TIP3    H223150   6.038   0.086   2.757 -1.0107  0.1897 -0.7261
  579TIP3   OH223151   0.881   2.141  16.819  0.2417  0.3484 -0.6653
  579TIP3    H123152   0.947   2.209  16.823 -0.4448  1.2598 -3.0877
  579TIP3    H223153   0.799   2.187  16.800 -0.7616 -0.9203  0.3447
  580TIP3   OH223154   3.717   6.208  16.847  0.0582 -0.0957 -0.2425
  580TIP3    H123155   3.801   6.237  16.811 -0.0759  1.0748  0.3275
  580TIP3    H223156   3.667   6.179  16.770  0.4189  0.6807 -0.7884
  581TIP3   OH223157   1.769   4.507   4.118 -0.1518 -0.0025 -0.1935
  581TIP3    H123158   1.819   4.442   4.168  1.0948  0.9565 -0.1539
  581TIP3    H223159   1.763   4.470   4.030  1.2948  0.2030 -0.3910
  582TIP3   OH223160   4.465   3.681  17.054 -0.1627 -0.1398  0.2259
  582TIP3    H123161   4.425   3.767  17.047 -1.3222 -0.5460  1.3488
  582TIP3    H223162   4.506   3.666  16.969 -0.0319  1.4631 -0.0129
  583TIP3   OH223163   4.205   6.197  11.255 -0.4542 -0.2856 -0.3062
  583TIP3    H123164   4.165   6.132  11.313  2.2237  0.9037  3.2987
  583TIP3    H223165   4.264   6.147  11.199  0.1716 -1.2266  1.1229
  584TIP3   OH223166   2.920   2.595   3.603  0.3518  0.0486  0.4995
  584TIP3    H123167   3.011   2.566   3.604  0.3252 -0.0709 -0.0252
  584TIP3    H223168   2.920   2.672   3.546  0.6092  1.7642  2.6759
  585TIP3   OH223169   4.781   3.680   1.824 -0.2871 -0.5631  0.3727
  585TIP3    H123170   4.843   3.612   1.848  0.6436 -0.4977 -1.6827
  585TIP3    H223171   4.796   3.695   1.731 -0.0054  2.8759  0.8355
  586TIP3   OH223172   4.688   5.266  13.623  0.0198  0.4418  0.3394
  586TIP3    H123173   4.652   5.178  13.620 -0.3751  0.6182 -2.5190
  586TIP3    H223174   4.619   5.323  13.588  0.8700  1.6453  0.5264
  587TIP3   OH223175   2.882   3.062  12.842 -0.3326 -0.2759 -0.3841
  587TIP3    H123176   2.840   3.101  12.766 -0.2186 -0.4173 -0.5204
  587TIP3    H223177   2.909   2.975  12.813 -1.1701 -0.7155  0.1081
  588TIP3   OH223178   4.440   5.630   3.586  0.0279 -0.1539  0.3999
  588TIP3    H123179   4.395   5.711   3.561  0.7197  0.1351  0.0696
  588TIP3    H223180   4.403   5.564   3.528 -1.3997 -0.3411  1.4532
  589TIP3   OH223181   4.043   0.005  13.417 -0.0373  0.8513  0.1204
  589TIP3    H123182   4.135  -0.001  13.394 -0.8751 -0.1262 -3.5683
  589TIP3    H223183   4.020   0.097  13.401  0.3300  1.2357  1.5919
  590TIP3   OH223184   4.205   3.335   2.392  0.0055 -0.2029 -0.2694
  590TIP3    H123185   4.269   3.303   2.456  1.3263  2.2020 -0.2407
  590TIP3    H223186   4.210   3.273   2.320  1.1836 -0.9722  0.4426
  591TIP3   OH223187   3.447   5.789  13.301  0.0993  0.7292 -1.1044
  591TIP3    H123188   3.527   5.839  13.315  0.0882  0.2811  0.8513
  591TIP3    H223189   3.476   5.698  13.291 -0.1677  0.5286 -0.1259
  592TIP3   OH223190   5.498   5.601  16.502 -0.2719 -0.6061 -0.6086
  592TIP3    H123191   5.565   5.587  16.435  0.4820 -0.0354  0.0102
  592TIP3    H223192   5.546   5.605  16.584 -0.6203  2.8873 -0.4088
  593TIP3   OH223193   4.271   4.756  16.381 -0.2868 -0.2236 -0.4918
  593TIP3    H123194   4.334   4.688  16.356  1.9316  2.0872 -1.7039
  593TIP3    H223195   4.188   4.728  16.344  0.8106 -1.7272 -1.9361
  594TIP3   OH223196   1.012   0.811   1.989  0.1386 -0.3983 -0.0894
  594TIP3    H123197   1.052   0.724   1.989 -0.7917 -0.8396  0.2443
  594TIP3    H223198   0.926   0.798   2.029  0.6656  1.0011  1.6077
  595TIP3   OH223199   1.390   2.712  11.626 -0.2238 -0.4748 -0.3605
  595TIP3    H123200   1.365   2.672  11.709 -0.5930  1.4211  0.5076
  595TIP3    H223201   1.486   2.710  11.626 -0.2099 -0.1860  0.2926
  596TIP3   OH223202   3.570   1.226   2.007 -0.7714  0.4318  0.2394
  596TIP3    H123203   3.523   1.190   2.083  2.4997 -0.6352  1.9319
  596TIP3    H223204   3.617   1.302   2.042 -3.6465  3.6350 -2.1813
  597TIP3   OH223205   0.507   6.323   5.596 -0.4219  0.0450  0.1606
  597TIP3    H123206   0.553   6.356   5.673 -0.0560 -0.0983  0.0061
  597TIP3    H223207   0.576   6.293   5.538 -0.6857  0.4731 -0.3761
  598TIP3   OH223208   5.778   3.530  16.623  0.4013 -0.2627 -0.3275
  598TIP3    H123209   5.809   3.617  16.651 -0.2488 -0.5180  1.3110
  598TIP3    H223210   5.826   3.469  16.679  1.1163 -1.0200 -1.7105
  599TIP3   OH223211   6.749   0.389  11.734 -0.3697 -0.1328 -0.0655
  599TIP3    H123212   6.671   0.367  11.683  0.1232 -1.0385 -0.4621
  599TIP3    H223213   6.808   0.315  11.719  0.1053 -0.0248  1.1727
  600TIP3   OH223214   4.066   1.659  11.774  1.0434 -0.2338  0.2989
  600TIP3    H123215   4.042   1.573  11.809  1.4504 -0.1735  0.7418
  600TIP3    H223216   4.086   1.642  11.682 -0.9851 -0.2272 -0.2006
  601TIP3   OH223217   0.262   1.091  13.506 -0.0794 -0.6231  0.0198
  601TIP3    H123218   0.356   1.108  13.502 -0.2300  0.1807 -0.2448
  601TIP3    H223219   0.234   1.085  13.415 -0.2839 -0.8863  0.0976
  602TIP3   OH223220   1.088   5.799   5.105  0.4112  0.8765 -0.2394
  602TIP3    H123221   1.048   5.886   5.095 -0.1699  0.5537 -0.8035
  602TIP3    H223222   1.142   5.788   5.027 -0.9527 -0.0005 -1.1011
  603TIP3   OH223223   5.225   6.218  14.369  0.1079 -0.4390 -0.2159
  603TIP3    H123224   5.167   6.280  14.412 -0.8475 -0.0289 -1.9968
  603TIP3    H223225   5.288   6.272  14.322 -1.2476 -0.6805 -2.4905
  604TIP3   OH223226   5.729   0.671   5.199 -0.1751 -0.3739  0.0261
  604TIP3    H123227   5.720   0.592   5.252  0.6033  0.5600  1.6210
  604TIP3    H223228   5.714   0.743   5.260  0.3083  0.7418 -1.1181
  605TIP3   OH223229   5.313   5.788  16.015  0.0861  0.8885 -0.2275
  605TIP3    H123230   5.225   5.827  16.011 -0.6233 -0.5078  0.8950
  605TIP3    H223231   5.359   5.841  16.079 -0.2669  1.0074 -0.0675
  606TIP3   OH223232   4.471   1.544   1.684  0.4449 -0.4515 -0.1031
  606TIP3    H123233   4.472   1.477   1.616 -0.0341  0.2008 -0.7821
  606TIP3    H223234   4.501   1.623   1.640 -1.0157  0.2661  0.1105
  607TIP3   OH223235   4.375   1.636  11.655  0.4160 -0.0401  0.1670
  607TIP3    H123236   4.459   1.663  11.617  0.6429 -1.9943 -0.8404
  607TIP3    H223237   4.314   1.706  11.633  1.6065  1.0811  0.3076
  608TIP3   OH223238   5.972   1.202  10.934  0.3170 -0.0316 -0.7360
  608TIP3    H123239   6.057   1.246  10.925 -0.2547  0.8953 -1.8551
  608TIP3    H223240   5.953   1.169  10.846 -0.0430 -1.0727 -0.2755
  609TIP3   OH223241   1.320   3.015  13.767 -0.2626 -0.5815 -0.3170
  609TIP3    H123242   1.344   2.977  13.851  2.7637  0.5676 -0.5441
  609TIP3    H223243   1.251   3.079  13.788 -1.4763 -2.1962  0.8213
  610TIP3   OH223244   1.940   4.747  11.374 -0.1843  0.3986 -0.4244
  610TIP3    H123245   1.949   4.827  11.321  1.3822  1.2336  1.0105
  610TIP3    H223246   1.911   4.778  11.460  0.0217 -0.6349  0.0311
  611TIP3   OH223247   1.491   1.985   5.323  0.0144 -0.0599 -0.0523
  611TIP3    H123248   1.572   1.935   5.312 -0.9736 -1.3038 -2.4524
  611TIP3    H223249   1.515   2.074   5.298  1.2182  0.2077  1.8712
  612TIP3   OH223250   3.047   2.902   4.591 -0.4462  0.7755  0.5819
  612TIP3    H123251   3.025   2.849   4.515 -2.9048 -0.0358  1.7290
  612TIP3    H223252   3.028   2.992   4.563  0.6632  0.7375 -0.3665
  613TIP3   OH223253   2.118   4.262   0.140  0.0817 -0.0660 -0.1018
  613TIP3    H123254   2.128   4.331   0.075  1.2348  0.2426  0.3852
  613TIP3    H223255   2.197   4.208   0.131 -0.5993 -1.0818 -0.1875
  614TIP3   OH223256   5.843   3.424  14.983 -0.2349 -0.3154 -0.0626
  614TIP3    H123257   5.800   3.351  15.027 -0.1492 -0.0074  0.5423
  614TIP3    H223258   5.865   3.390  14.896  0.8862 -1.3938  0.6140
  615TIP3   OH223259   1.011   6.490   5.985  0.4473  0.0672 -0.2292
  615TIP3    H123260   1.086   6.484   6.045  1.1474 -0.8099 -1.1521
  615TIP3    H223261   0.986   6.582   5.987  1.2488  0.2864  0.4544
  616TIP3   OH223262   1.569   6.631   5.176 -0.4027  0.3495 -0.0743
  616TIP3    H123263   1.659   6.607   5.197  0.0367  0.4588 -1.6699
  616TIP3    H223264   1.519   6.551   5.193 -0.0323  0.3081  0.9007
  617TIP3   OH223265   0.986   4.743   2.043 -0.0709 -0.2562 -0.3266
  617TIP3    H123266   0.981   4.692   2.124 -3.4895 -1.6089 -1.2147
  617TIP3    H223267   0.910   4.801   2.047  0.6242  0.8133 -1.8525
  618TIP3   OH223268   1.064   3.626  13.942 -0.0571 -0.0916  0.0576
  618TIP3    H123269   1.016   3.691  13.891 -0.8796 -0.1888  0.6920
  618TIP3    H223270   1.029   3.542  13.912 -0.5671 -0.1482  0.7898
  619TIP3   OH223271   5.476   2.562   3.577 -0.5954 -0.3033  0.2054
  619TIP3    H123272   5.529   2.554   3.498 -0.8647 -2.6534  0.1953
  619TIP3    H223273   5.520   2.630   3.628 -0.1838  0.9602 -1.7545
  620TIP3   OH223274   0.154   3.173  13.938  0.5240  0.0582 -0.4989
  620TIP3    H123275   0.100   3.160  13.861  0.1434 -0.4886 -0.1521
  620TIP3    H223276   0.160   3.268  13.948 -0.6223  0.1353 -0.3749
  621TIP3   OH223277   3.553   2.603  13.787  0.1095 -0.2911 -0.5979
  621TIP3    H123278   3.554   2.508  13.788 -1.0824 -0.3308  1.0019
  621TIP3    H223279   3.460   2.626  13.787  0.2945  0.9312 -3.9786
  622TIP3   OH223280   5.406   3.454  14.031 -0.1574  0.1609 -0.4606
  622TIP3    H123281   5.477   3.441  13.969  1.1449  1.2850  0.7101
  622TIP3    H223282   5.449   3.459  14.116 -1.7847 -0.3961  0.4418
  623TIP3   OH223283   5.848   1.575  14.519  0.0688 -0.3852 -0.0525
  623TIP3    H123284   5.896   1.497  14.489 -0.1928 -0.8998  0.8447
  623TIP3    H223285   5.917   1.635  14.549  0.4703  0.7212 -2.8459
  624TIP3   OH223286   4.459   3.549  12.069 -0.5241  0.1231 -0.2407
  624TIP3    H123287   4.475   3.554  12.163  0.3569 -2.6511 -0.1622
  624TIP3    H223288   4.505   3.470  12.040 -2.1622 -0.0545 -2.7052
  625TIP3   OH223289   5.390   6.489  16.357  0.8254  0.4107 -0.4746
  625TIP3    H123290   5.339   6.492  16.276  0.6873  3.9196 -0.3763
  625TIP3    H223291   5.475   6.455  16.330  0.2561 -0.0880 -1.7334
  626TIP3   OH223292   5.553   4.306   4.860 -0.0072 -0.3873  0.0354
  626TIP3    H123293   5.477   4.347   4.818  0.1401  1.6669  1.6556
  626TIP3    H223294   5.622   4.310   4.794 -0.9268 -1.1915 -1.0281
  627TIP3   OH223295   2.488   4.516   2.935 -0.1646  0.3826 -0.0014
  627TIP3    H123296   2.572   4.558   2.955  0.0638 -0.2155  0.3025
  627TIP3    H223297   2.423   4.586   2.946  0.2200  0.6792  0.4050
  628TIP3   OH223298   0.454   5.329   2.506  0.4731  0.0931  0.3056
  628TIP3    H123299   0.384   5.394   2.503  1.2945  0.9849 -0.0191
  628TIP3    H223300   0.518   5.365   2.568  1.2688 -0.0508 -0.4091
  629TIP3   OH223301   6.136   6.145  12.375 -0.2609  0.2939  0.0938
  629TIP3    H123302   6.184   6.122  12.295  0.1911  1.7615 -0.0896
  629TIP3    H223303   6.204   6.155  12.441 -0.6283 -0.8315  0.6760
  630TIP3   OH223304   1.578   5.554  12.325 -0.2165  0.4815 -0.1065
  630TIP3    H123305   1.574   5.537  12.231  1.5280  2.3739 -0.6158
  630TIP3    H223306   1.489   5.576  12.351 -0.7432 -0.2479 -1.2905
  631TIP3   OH223307   3.120   2.314  10.672  0.9061 -0.7540 -0.3503
  631TIP3    H123308   3.048   2.367  10.707  0.1014 -2.7936  1.2598
  631TIP3    H223309   3.141   2.355  10.588  0.0348  1.7993  0.5888
  632TIP3   OH223310   4.086   3.936   1.741  0.8846  0.2851 -0.6521
  632TIP3    H123311   4.028   3.995   1.790  0.7346  1.2203 -1.9121
  632TIP3    H223312   4.052   3.936   1.652 -0.2689 -3.1867 -0.3900
  633TIP3   OH223313   2.129   1.502   5.266  0.3705  0.5467 -0.4028
  633TIP3    H123314   2.179   1.500   5.185 -1.0727  0.6262 -1.3251
  633TIP3    H223315   2.037   1.502   5.238 -0.1789 -0.4832  1.2426
  634TIP3   OH223316   6.205   4.244  11.947 -0.0034  0.0927 -0.0222
  634TIP3    H123317   6.119   4.207  11.961  0.1226  0.4385  2.0684
  634TIP3    H223318   6.263   4.169  11.933 -0.5688 -0.1536 -1.1073
  635TIP3   OH223319   6.614   3.750   4.727 -0.4065  0.4591 -0.6715
  635TIP3    H123320   6.692   3.797   4.754  0.6940 -1.8801  0.4610
  635TIP3    H223321   6.541   3.805   4.757  0.7745  1.7062  0.0193
  636TIP3   OH223322   4.834   0.526   0.045  0.3719 -0.5717  0.0708
  636TIP3    H123323   4.740   0.513   0.039  0.4524 -2.1621  1.3477
  636TIP3    H223324   4.870   0.477  -0.028  0.2409 -0.4921 -0.0469
  637TIP3   OH223325   2.494   0.479   3.768  0.3087  0.4638 -0.1016
  637TIP3    H123326   2.588   0.475   3.787  0.3391  1.1200 -0.0916
  637TIP3    H223327   2.473   0.391   3.736  0.9649  0.3574 -0.2783
  638TIP3   OH223328   6.192   4.467  12.142  0.9233 -0.4975  0.0069
  638TIP3    H123329   6.191   4.399  12.075  1.3569  0.2114 -0.7404
  638TIP3    H223330   6.198   4.419  12.225 -0.4154 -1.4139 -0.4010
  639TIP3   OH223331   3.504   5.884   1.739  0.3949 -0.0453  0.0052
  639TIP3    H123332   3.426   5.829   1.749  0.3743  0.0851  0.6185
  639TIP3    H223333   3.569   5.826   1.700 -0.2411  0.0593 -1.2727
  640TIP3   OH223334   0.028   6.402   1.378 -0.2316  0.1726  0.2279
  640TIP3    H123335   0.032   6.497   1.384  1.2274  0.7983 -5.1448
  640TIP3    H223336  -0.065   6.383   1.362 -0.1911  1.2119 -1.6286
  641TIP3   OH223337   5.977   6.171  11.138  0.0557 -0.0404 -0.4882
  641TIP3    H123338   6.068   6.155  11.161 -0.6730 -2.6760  0.9206
  641TIP3    H223339   5.968   6.267  11.138  2.5564  0.2477  0.2434
  642TIP3   OH223340   6.427   0.911  12.799 -0.1007  0.4960 -0.0308
  642TIP3    H123341   6.490   0.917  12.728  0.9528 -0.0453  0.8281
  642TIP3    H223342   6.348   0.954  12.765 -0.5545 -2.0032 -2.4822
  643TIP3   OH223343   5.011   5.448   1.909 -0.7157 -0.0073  0.3337
  643TIP3    H123344   4.963   5.385   1.856 -0.6925  0.7066 -0.5707
  643TIP3    H223345   4.946   5.484   1.970 -1.0284  0.0152 -0.0101
  644TIP3   OH223346   4.384   5.223  14.596 -0.6733 -0.1114 -0.3158
  644TIP3    H123347   4.325   5.290  14.631 -0.4954  0.7677 -1.6464
  644TIP3    H223348   4.445   5.271  14.540  0.8856 -1.1023  0.4743
  645TIP3   OH223349   3.409   3.098   5.782 -0.0659  0.3907  0.4280
  645TIP3    H123350   3.320   3.114   5.815 -0.3705  1.1897 -0.7232
  645TIP3    H223351   3.449   3.185   5.778  0.9646 -0.0109  1.3908
  646TIP3   OH223352   6.377   4.988  15.907  0.3500 -0.6529 -0.4174
  646TIP3    H123353   6.351   4.988  15.815 -0.0838  1.5459 -0.3534
  646TIP3    H223354   6.294   4.990  15.955  0.4815  2.2308 -0.1288
  647TIP3   OH223355   4.889   2.719   4.615  0.6196  0.4409 -0.5042
  647TIP3    H123356   4.799   2.720   4.585  1.2194  1.1756 -2.4404
  647TIP3    H223357   4.902   2.805   4.656  0.0513 -0.2402  1.2227
  648TIP3   OH223358   4.530   5.893   4.919 -0.0689  0.3136 -0.3861
  648TIP3    H123359   4.478   5.816   4.939 -1.2423  0.6781 -1.8643
  648TIP3    H223360   4.547   5.934   5.004 -2.3344  0.2663  0.1409
  649TIP3   OH223361   2.444   3.282  11.194 -0.3998  0.4805  0.2978
  649TIP3    H123362   2.359   3.275  11.151  0.1453  0.5652 -0.8112
  649TIP3    H223363   2.460   3.376  11.201  0.7455  0.5198 -1.8807
  650TIP3   OH223364   2.120   3.384  15.356 -0.5420  0.0044  0.4629
  650TIP3    H123365   2.182   3.444  15.398  2.3420 -1.1457 -1.7482
  650TIP3    H223366   2.082   3.333  15.428  3.4998 -1.3463  1.9354
  651TIP3   OH223367   5.867   4.311  16.267 -0.0812 -0.0375 -0.4096
  651TIP3    H123368   5.824   4.374  16.326  1.2437  0.3086  0.2244
  651TIP3    H223369   5.797   4.252  16.241 -0.6915 -0.3242  1.6784
  652TIP3   OH223370   1.782   4.527   6.115 -0.6477 -0.3150 -0.1703
  652TIP3    H123371   1.712   4.508   6.178 -0.0794  0.3802  0.6870
  652TIP3    H223372   1.845   4.457   6.127  0.5879  1.0340  1.7309
  653TIP3   OH223373   3.652   2.122  14.536  0.3987 -0.4344  0.0827
  653TIP3    H123374   3.578   2.094  14.483 -0.4247  2.3569 -0.3884
  653TIP3    H223375   3.641   2.075  14.619 -0.4485 -1.9433 -0.8241
  654TIP3   OH223376   4.968   0.688   6.659  0.0320  0.6288  0.2605
  654TIP3    H123377   4.895   0.709   6.601  0.9650  0.7050 -0.9232
  654TIP3    H223378   4.939   0.610   6.707 -0.2857 -0.2373 -1.2577
  655TIP3   OH223379   2.167   3.684   1.349 -0.3082 -0.4267 -0.0195
  655TIP3    H123380   2.111   3.612   1.375 -1.7604  1.2257  1.6850
  655TIP3    H223381   2.150   3.696   1.256 -1.2304 -1.2546  0.0376
  656TIP3   OH223382   0.848   4.544  14.557 -0.1962 -0.9243 -0.0588
  656TIP3    H123383   0.784   4.614  14.566 -0.1732 -0.9665  0.4618
  656TIP3    H223384   0.798   4.469  14.525 -0.3211 -0.8224 -0.0975
  657TIP3   OH223385   4.935   5.597   1.438  0.5988 -0.1512  0.1695
  657TIP3    H123386   5.004   5.557   1.490 -0.3306 -1.0774  0.7351
  657TIP3    H223387   4.909   5.529   1.376  0.3400  0.2624 -0.1828
  658TIP3   OH223388   3.307   6.136   3.939  0.3139 -0.2120  0.2738
  658TIP3    H123389   3.367   6.065   3.915  1.7235  0.5996  1.2138
  658TIP3    H223390   3.312   6.198   3.867 -0.2662 -0.6470 -0.1538
  659TIP3   OH223391   5.392   0.065  13.365  0.0119  0.1926  0.1343
  659TIP3    H123392   5.363   0.033  13.279  2.0757  0.3925 -0.6954
  659TIP3    H223393   5.311   0.087  13.411 -1.2187 -1.2260 -1.2327
  660TIP3   OH223394   4.017   3.659   2.065  0.0463 -0.4575  0.3863
  660TIP3    H123395   3.935   3.610   2.059 -0.8723  1.0805 -0.2854
  660TIP3    H223396   4.061   3.642   1.982 -0.0108 -0.5750  0.3792
  661TIP3   OH223397   5.349   3.461  12.493  0.2951 -0.2508 -0.2574
  661TIP3    H123398   5.330   3.370  12.469 -0.1500  0.0952 -1.3092
  661TIP3    H223399   5.420   3.487  12.434  2.8086 -0.8935  2.2778
  662TIP3   OH223400   3.936   6.410  16.452  0.4849 -0.5325 -0.0634
  662TIP3    H123401   3.938   6.421  16.357  1.6049 -2.0944 -0.2554
  662TIP3    H223402   4.009   6.351  16.471 -0.2210 -0.9060  1.6785
  663TIP3   OH223403   2.161   3.248  12.611 -0.1126 -0.5730  0.1033
  663TIP3    H123404   2.107   3.215  12.683 -1.1594 -0.2475 -0.5072
  663TIP3    H223405   2.249   3.219  12.632 -0.4196 -0.6105  1.4440
  664TIP3   OH223406   0.029   6.536   3.266  0.2244  0.5130  0.2726
  664TIP3    H123407   0.083   6.607   3.230 -0.7169  0.4437 -1.3813
  664TIP3    H223408   0.007   6.482   3.190 -1.0214 -0.2358  1.1303
  665TIP3   OH223409   5.041   3.451  15.203  0.3090 -0.3686  0.2949
  665TIP3    H123410   5.021   3.361  15.230  0.4738 -0.0723  1.4280
  665TIP3    H223411   4.977   3.505  15.249  0.9497  0.1986  0.5274
  666TIP3   OH223412   5.013   4.296   0.882 -0.4648 -0.3542  0.0481
  666TIP3    H123413   4.946   4.233   0.910 -2.7929  2.3557  1.0395
  666TIP3    H223414   5.025   4.353   0.958  1.1656  0.7402 -0.9696
  667TIP3   OH223415   6.132   2.074  15.131  0.5555 -0.2448  0.1213
  667TIP3    H123416   6.080   2.142  15.173  0.1300  0.2348 -1.1121
  667TIP3    H223417   6.155   2.013  15.201  4.1623  3.0152  2.1576
  668TIP3   OH223418   0.329   3.899   3.491 -0.4151  0.2970  0.1529
  668TIP3    H123419   0.406   3.875   3.543 -0.5317  0.9406  0.6240
  668TIP3    H223420   0.341   3.852   3.409  0.4454  0.3305  0.2510
  669TIP3   OH223421   3.138   4.118   2.787 -0.2809 -0.4743  0.7228
  669TIP3    H123422   3.102   4.072   2.863 -0.6881  2.2062  2.2964
  669TIP3    H223423   3.107   4.208   2.797 -0.6882 -0.0658 -2.9102
  670TIP3   OH223424   1.492   5.841  11.339  0.1221  0.0849  0.0372
  670TIP3    H123425   1.537   5.915  11.297 -2.0342  1.9872  0.9039
  670TIP3    H223426   1.454   5.792  11.266 -1.0119  1.6139 -0.4472
  671TIP3   OH223427   1.809   1.260  16.239  0.4581 -0.7012 -0.3350
  671TIP3    H123428   1.714   1.269  16.232  0.4575  0.2623  0.5975
  671TIP3    H223429   1.840   1.349  16.253  1.2228 -1.3117  2.2978
  672TIP3   OH223430   0.642   2.308   0.998  0.3838  0.2094 -0.0085
  672TIP3    H123431   0.673   2.276   1.082  0.3845  0.6850  0.1797
  672TIP3    H223432   0.556   2.267   0.986  1.0020 -0.9879 -0.4594
  673TIP3   OH223433   4.476   5.866   0.976 -0.3707  0.4017  0.2976
  673TIP3    H123434   4.547   5.887   0.916  0.5798 -1.3744  0.7436
  673TIP3    H223435   4.518   5.858   1.061 -0.8481 -1.7504  0.3920
  674TIP3   OH223436   6.417   4.742  15.277  0.0590  0.3101 -0.4292
  674TIP3    H123437   6.430   4.776  15.188  0.5238  0.3222 -0.3595
  674TIP3    H223438   6.451   4.653  15.273  1.7332  0.8818  0.1751
  675TIP3   OH223439   1.363   1.320  12.389  0.0983  0.0681  0.2618
  675TIP3    H123440   1.305   1.262  12.340 -1.7953  0.3719  1.9800
  675TIP3    H223441   1.315   1.403  12.396  0.7762  0.3888  1.6197
  676TIP3   OH223442   3.354   6.541  14.955 -0.2216  0.1219  0.1239
  676TIP3    H123443   3.266   6.535  14.992 -0.0371  2.0565  0.9798
  676TIP3    H223444   3.412   6.523  15.029  0.1260 -0.4810 -0.2874
  677TIP3   OH223445   0.434   0.664   5.087  0.4656  0.4183  0.7814
  677TIP3    H123446   0.487   0.743   5.077 -0.2372  0.7582 -0.5020
  677TIP3    H223447   0.344   0.692   5.072  0.4125 -1.0067 -2.5249
  678TIP3   OH223448   4.742   5.971  14.760 -0.2688  0.1413 -0.1028
  678TIP3    H123449   4.733   5.949  14.853 -0.6314 -0.8700 -0.3645
  678TIP3    H223450   4.834   5.995  14.750 -0.2603  0.3943  0.5442
  679TIP3   OH223451   1.917   4.965  10.416 -0.5523  0.0429  0.2128
  679TIP3    H123452   1.865   5.020  10.358  1.6390  2.0491  0.0037
  679TIP3    H223453   1.933   4.885  10.365 -1.3746  0.4119 -0.6482
  680TIP3   OH223454   6.057   5.762  12.122 -0.1101  0.0883  0.2031
  680TIP3    H123455   5.966   5.766  12.092 -0.4268 -2.2079  0.6781
  680TIP3    H223456   6.056   5.803  12.208 -0.4741  0.9523 -0.1957
  681TIP3   OH223457   3.637   5.971   2.204  0.0965 -0.1432 -0.0923
  681TIP3    H123458   3.653   5.877   2.216 -2.6053 -0.6927  0.0049
  681TIP3    H223459   3.665   5.989   2.115  1.1003 -0.9111  0.0492
  682TIP3   OH223460   0.369   5.017  15.160 -0.5415  0.1294 -0.4474
  682TIP3    H123461   0.318   5.022  15.079 -1.3624 -2.1275 -0.1435
  682TIP3    H223462   0.459   5.034  15.132 -1.0003  0.8808 -1.5582
  683TIP3   OH223463   3.547   0.776  15.509  0.4275  0.0910 -0.1871
  683TIP3    H123464   3.517   0.764  15.600 -0.4634  1.0525 -0.3279
  683TIP3    H223465   3.474   0.745  15.456 -0.4044  2.4748 -0.5412
  684TIP3   OH223466   0.792   1.509   1.152 -0.3367  0.3266 -0.9149
  684TIP3    H123467   0.783   1.603   1.136 -3.7095  0.4404  0.7741
  684TIP3    H223468   0.762   1.497   1.242  0.8412 -2.3080 -0.7876
  685TIP3   OH223469   4.229   6.261   4.662 -0.2770 -0.2176 -0.5241
  685TIP3    H123470   4.256   6.189   4.719 -1.6143 -0.4167 -0.1042
  685TIP3    H223471   4.301   6.324   4.667  0.4071 -1.0172 -0.0066
  686TIP3   OH223472   0.159   0.528  15.983  0.0934 -0.1696  0.0034
  686TIP3    H123473   0.106   0.495  15.910  0.6478 -0.9294 -0.0617
  686TIP3    H223474   0.230   0.578  15.941 -0.5111  0.8024  0.0900
  687TIP3   OH223475   1.163   5.879   4.755  0.8529  0.6280 -0.2252
  687TIP3    H123476   1.216   5.804   4.780 -0.1770 -0.3753 -0.9163
  687TIP3    H223477   1.077   5.862   4.794  0.1372  0.6010 -1.7148
  688TIP3   OH223478   4.088   4.594  11.803 -0.2119 -0.1241  0.2184
  688TIP3    H123479   4.057   4.544  11.878  0.3566 -0.6153  0.1317
  688TIP3    H223480   4.123   4.675  11.840 -1.2512  0.2848  0.3484
  689TIP3   OH223481   5.185   0.599   2.179  0.2184  0.1387  0.1550
  689TIP3    H123482   5.120   0.668   2.194  0.4480  0.5887 -0.8827
  689TIP3    H223483   5.151   0.523   2.228  1.2176  1.6525  3.5287
  690TIP3   OH223484   6.040   4.552   0.617 -0.2410  0.0194 -0.4571
  690TIP3    H123485   5.948   4.578   0.625 -0.0313  0.4821  0.6296
  690TIP3    H223486   6.085   4.633   0.592  0.4620  0.9508  3.2218
  691TIP3   OH223487   1.666   6.539  16.988 -0.1622 -0.1474 -0.5630
  691TIP3    H123488   1.758   6.555  16.968 -0.2871  1.4392 -0.0579
  691TIP3    H223489   1.645   6.457  16.945  1.0568  0.2927 -2.0748
  692TIP3   OH223490   3.717   0.764   6.266  0.0870 -0.1733  0.0079
  692TIP3    H123491   3.708   0.710   6.188 -0.3403 -1.3375  0.8258
  692TIP3    H223492   3.756   0.706   6.331  2.1848  1.2929  0.1637
  693TIP3   OH223493   1.307   3.183   1.857 -0.2611  0.2501 -0.4776
  693TIP3    H123494   1.402   3.199   1.854  0.0567 -1.0589  1.0958
  693TIP3    H223495   1.291   3.150   1.946 -2.0591 -0.3639 -0.9828
  694TIP3   OH223496   4.597   4.336   5.361 -0.2008  0.4630 -0.1462
  694TIP3    H123497   4.582   4.275   5.288 -2.6097  1.2238 -0.3618
  694TIP3    H223498   4.612   4.279   5.437  1.5688 -0.3396 -1.0376
  695TIP3   OH223499   5.339   6.365  10.556  0.0790 -0.1203 -0.0264
  695TIP3    H123500   5.284   6.291  10.530 -0.3813  0.3850 -0.4986
  695TIP3    H223501   5.421   6.352  10.508  1.4020 -2.2217  2.4818
  696TIP3   OH223502   2.981   0.526   1.370 -0.2775 -0.3215 -0.6052
  696TIP3    H123503   2.976   0.465   1.296 -0.4469 -0.2970 -0.6124
  696TIP3    H223504   3.075   0.542   1.381 -0.2010 -0.9620 -0.2953
  697TIP3   OH223505   4.173   1.125   0.668  0.4623 -0.4730  0.0665
  697TIP3    H123506   4.151   1.124   0.574  0.0587 -1.8627  0.1560
  697TIP3    H223507   4.178   1.032   0.692  0.7840 -0.1276  1.3778
  698TIP3   OH223508   1.159   2.621   2.190  0.1705 -0.0795  0.5199
  698TIP3    H123509   1.123   2.674   2.261  0.0063  0.2427  0.2008
  698TIP3    H223510   1.232   2.673   2.157  0.7921 -0.6232  1.0109
  699TIP3   OH223511   2.784   3.123  17.085 -0.6402  0.3836  0.0726
  699TIP3    H123512   2.853   3.125  17.151 -1.3551 -0.2642  0.8638
  699TIP3    H223513   2.763   3.215  17.069 -1.2945  0.5446  1.6581
  700TIP3   OH223514   4.082   5.236   4.318  0.1188 -0.1251 -0.1854
  700TIP3    H123515   4.103   5.328   4.300  1.9771 -0.9562 -2.8797
  700TIP3    H223516   3.991   5.238   4.348 -0.1110  2.5448 -0.7775
  701TIP3   OH223517   3.072   4.885  15.217 -0.3628  0.1162 -0.3002
  701TIP3    H123518   3.120   4.852  15.293 -2.0713  0.9415  1.2302
  701TIP3    H223519   3.025   4.809  15.184  1.1445 -0.4725 -1.2060
  702TIP3   OH223520   5.512   3.888  14.078  0.9172  0.4160 -0.1833
  702TIP3    H123521   5.436   3.945  14.071 -1.7073 -2.5957  1.2749
  702TIP3    H223522   5.525   3.853  13.990  0.5492  0.8674 -0.4166
  703TIP3   OH223523   1.626   1.973  13.645  0.3013  0.3192  0.1050
  703TIP3    H123524   1.595   1.942  13.731 -0.3524 -2.2217 -0.9405
  703TIP3    H223525   1.655   2.063  13.661 -1.0531  0.4034  2.6817
  704TIP3   OH223526   0.278   2.514   0.178 -0.2387  0.2742 -0.3293
  704TIP3    H123527   0.344   2.447   0.195  0.7262  1.2400 -0.1303
  704TIP3    H223528   0.316   2.595   0.213 -1.9588  0.6934  0.7071
  705TIP3   OH223529   3.809   4.286  13.673  0.0959  0.1046  0.5527
  705TIP3    H123530   3.826   4.192  13.674  0.0947  0.1074  1.1586
  705TIP3    H223531   3.718   4.294  13.701 -0.0177  0.2700  0.1517
  706TIP3   OH223532   2.438   5.123  15.056 -0.4343 -0.4175  0.5636
  706TIP3    H123533   2.516   5.140  15.003 -1.2787 -0.5606 -0.7848
  706TIP3    H223534   2.365   5.135  14.995 -1.6509  2.3038  2.3769
  707TIP3   OH223535   5.714   0.558   1.624  0.6005 -0.2716 -0.3899
  707TIP3    H123536   5.726   0.563   1.529 -1.3331 -0.6881 -0.7042
  707TIP3    H223537   5.622   0.584   1.638  0.7234 -0.6231  1.3267
  708TIP3   OH223538   0.241   4.774   5.458  0.7427  0.3296  0.3652
  708TIP3    H123539   0.287   4.713   5.400  1.8134 -0.5257  2.0573
  708TIP3    H223540   0.288   4.857   5.447 -0.6482  0.9232 -1.8578
  709TIP3   OH223541   3.814   1.638   0.415  0.1812  0.0623  0.1340
  709TIP3    H123542   3.814   1.648   0.510 -1.2739  0.0404  0.1615
  709TIP3    H223543   3.744   1.575   0.398  0.0379  0.4963 -0.9751
  710TIP3   OH223544   3.411   2.952  12.887  0.7397 -0.2917 -0.5032
  710TIP3    H123545   3.347   2.903  12.938  1.3189 -2.0939 -1.4217
  710TIP3    H223546   3.458   3.005  12.951  0.3081 -1.1883  0.5777
  711TIP3   OH223547   4.088   4.033   3.958  0.0834  0.9241  0.1059
  711TIP3    H123548   4.108   3.953   4.006  0.0849  1.0252  0.2735
  711TIP3    H223549   4.171   4.081   3.955 -0.2898  1.7125  1.4841
  712TIP3   OH223550   2.414   0.744   0.500 -0.0198  0.2716  0.5363
  712TIP3    H123551   2.443   0.751   0.591 -1.0550 -1.1929  1.0241
  712TIP3    H223552   2.344   0.809   0.492 -1.7156 -1.3074  1.6034
  713TIP3   OH223553   4.166   1.410   1.792 -0.1981 -0.6479  0.1299
  713TIP3    H123554   4.191   1.388   1.882  0.4572 -0.6647 -0.0496
  713TIP3    H223555   4.197   1.500   1.780 -1.1077 -0.3143  0.2162
  714TIP3   OH223556   6.532   0.790   6.584 -0.5860 -0.0166 -0.2287
  714TIP3    H123557   6.534   0.823   6.495  1.9102  1.1789  0.1927
  714TIP3    H223558   6.541   0.695   6.574 -1.0520  0.0356 -1.2560
  715TIP3   OH223559   0.947   0.041   3.038  0.9440 -0.6251 -0.4120
  715TIP3    H123560   0.959   0.118   3.094  1.6209 -1.4033  0.5518
  715TIP3    H223561   0.961   0.073   2.949  0.0119  0.6069 -0.1364
  716TIP3   OH223562   2.377   3.028  12.605 -0.1862  0.3581 -0.3084
  716TIP3    H123563   2.402   2.947  12.649  1.4323  0.7411 -0.4647
  716TIP3    H223564   2.303   3.003  12.549 -0.9139 -0.5769  1.0117
  717TIP3   OH223565   6.687   5.590   4.958  0.0251  0.0607  0.1543
  717TIP3    H123566   6.746   5.601   4.883 -1.7758  1.3661 -1.1680
  717TIP3    H223567   6.651   5.502   4.947  0.1339  0.0643 -0.2549
  718TIP3   OH223568   4.164   6.603   1.659 -0.1247 -0.0150 -0.0953
  718TIP3    H123569   4.147   6.529   1.601 -0.2240  0.4100 -0.6150
  718TIP3    H223570   4.080   6.620   1.702 -0.1229 -0.1483 -0.0398
  719TIP3   OH223571   0.801   5.616   2.603  0.1371  0.3777 -0.3594
  719TIP3    H123572   0.838   5.599   2.690 -1.9861 -1.2940  0.2958
  719TIP3    H223573   0.788   5.711   2.601 -1.9867  0.2423  2.1574
  720TIP3   OH223574   4.111   3.288  15.680  0.1716  0.1722  0.3234
  720TIP3    H123575   4.141   3.367  15.725 -0.2147  0.0508  0.8059
  720TIP3    H223576   4.016   3.296  15.679  0.0674 -0.7151  1.2079
  721TIP3   OH223577   3.099   2.017  13.328  0.3670  0.2653  0.5068
  721TIP3    H123578   3.049   1.958  13.271 -1.0049  1.5972  0.2729
  721TIP3    H223579   3.170   2.050  13.272 -1.3168  2.0218 -0.6950
  722TIP3   OH223580   0.319   3.223   6.277  0.4170 -0.1720  0.7211
  722TIP3    H123581   0.264   3.183   6.210 -0.1657 -0.2367  1.2334
  722TIP3    H223582   0.271   3.301   6.304  0.8755  0.1111  0.7342
  723TIP3   OH223583   3.845   1.348  16.355  0.3988  0.1572  0.1185
  723TIP3    H123584   3.928   1.316  16.392 -0.7173 -0.6661  2.0668
  723TIP3    H223585   3.837   1.437  16.389  1.0215  0.6714 -1.0417
  724TIP3   OH223586   5.843   3.540   6.342  0.2820 -0.6646 -0.2001
  724TIP3    H123587   5.883   3.481   6.406 -2.1447  0.3362  2.4512
  724TIP3    H223588   5.862   3.628   6.376  0.1008 -0.0435 -1.6390
  725TIP3   OH223589   4.781   0.833   3.600  0.2851  0.4180  0.1117
  725TIP3    H123590   4.836   0.878   3.536 -1.0095  0.7550 -0.7997
  725TIP3    H223591   4.712   0.896   3.622 -0.5492 -0.4844  0.1519
  726TIP3   OH223592   2.148   5.560  16.773 -0.8112 -0.1205  0.1922
  726TIP3    H123593   2.140   5.632  16.709 -2.2155 -1.5037 -1.2663
  726TIP3    H223594   2.119   5.483  16.725  2.3802 -2.0564  1.1106
  727TIP3   OH223595   4.847   4.824   2.594 -0.4125  0.5249  0.1680
  727TIP3    H123596   4.891   4.817   2.509 -0.5455  0.4032  0.1082
  727TIP3    H223597   4.844   4.734   2.626 -0.4869  0.5530  0.2390
  728TIP3   OH223598   1.625   0.020  14.643 -0.0506  0.2379  0.0874
  728TIP3    H123599   1.680   0.025  14.721  1.4372  0.6131 -0.9576
  728TIP3    H223600   1.537   0.039  14.675  0.4289 -0.2169  1.7683
  729TIP3   OH223601   0.046   5.497  15.179  0.4643 -0.6836 -0.3747
  729TIP3    H123602   0.113   5.560  15.152  0.4800 -0.6636 -0.2881
  729TIP3    H223603   0.090   5.442  15.244  0.2391 -0.3416  0.0684
  730TIP3   OH223604   4.744   3.990   1.836  0.4754 -0.2390  0.2264
  730TIP3    H123605   4.676   4.014   1.899  1.7144 -0.4198  1.6888
  730TIP3    H223606   4.727   3.898   1.816  0.5903 -0.4238  0.9737
  731TIP3   OH223607   6.721   6.496   2.915 -0.4212 -0.0410 -0.0542
  731TIP3    H123608   6.800   6.451   2.944  0.6354  0.9158 -1.3166
  731TIP3    H223609   6.667   6.428   2.875 -0.8570 -0.9394  1.9193
  732TIP3   OH223610   5.238   3.258  10.934 -0.5965 -0.2847 -0.4221
  732TIP3    H123611   5.149   3.290  10.916 -0.9113 -0.2448  1.0606
  732TIP3    H223612   5.294   3.307  10.873 -1.5068  0.2109 -0.8803
  733TIP3   OH223613   2.618   6.678  17.090  0.5030  0.5588 -0.5164
  733TIP3    H123614   2.603   6.733  17.013  1.5191  0.4233 -0.8148
  733TIP3    H223615   2.564   6.601  17.075  1.2211  0.2174 -1.4323
  734TIP3   OH223616   3.318   2.060   5.288  0.1683  0.0187 -0.3542
  734TIP3    H123617   3.371   1.990   5.327  1.0368 -0.8032 -2.8359
  734TIP3    H223618   3.382   2.127   5.263 -0.1044 -0.3305 -2.0595
  735TIP3   OH223619   0.909   1.129   2.768 -0.0045  0.0809  0.4141
  735TIP3    H123620   0.902   1.077   2.848  2.3989 -1.1620 -0.0897
  735TIP3    H223621   0.888   1.068   2.698 -1.2843  0.9529  0.0049
  736TIP3   OH223622   5.511   6.721   3.744  0.0484  0.5082 -0.8519
  736TIP3    H123623   5.427   6.720   3.699 -0.2863  1.7167 -0.2880
  736TIP3    H223624   5.543   6.631   3.737 -2.2967 -0.5564  0.7831
  737TIP3   OH223625   4.862   0.703   0.248  0.0917 -0.6030  0.4242
  737TIP3    H123626   4.930   0.668   0.306  0.0201 -0.4853  0.5823
  737TIP3    H223627   4.867   0.649   0.169 -0.1500 -1.1031  0.7411
  738TIP3   OH223628   4.764   3.639  11.159  0.1688 -0.2940  0.0602
  738TIP3    H123629   4.720   3.716  11.195 -0.4078 -0.7340  0.3114
  738TIP3    H223630   4.735   3.567  11.215 -0.4831 -0.9430 -1.0702
  739TIP3   OH223631   5.291   6.015  11.352  0.2568  0.0160 -0.1357
  739TIP3    H123632   5.344   5.976  11.420 -0.5509 -1.2994 -0.2315
  739TIP3    H223633   5.222   6.063  11.399 -0.2716 -0.8502 -0.0086
  740TIP3   OH223634   3.174   3.019  11.892  0.6258 -0.2841 -0.2678
  740TIP3    H123635   3.080   3.023  11.878  0.9128  0.6555 -2.2361
  740TIP3    H223636   3.212   3.055  11.812  2.6421  0.0918  0.7834
  741TIP3   OH223637   3.804   5.596  13.760  0.6990 -0.2345  0.1030
  741TIP3    H123638   3.850   5.680  13.766  0.5125 -0.0243 -1.1612
  741TIP3    H223639   3.714   5.620  13.739  0.8452 -0.7679 -1.1994
  742TIP3   OH223640   6.789   3.578  12.385  0.1995  0.7427  0.1524
  742TIP3    H123641   6.735   3.579  12.464 -1.0423  1.3479 -0.6698
  742TIP3    H223642   6.855   3.511  12.401 -0.2529  0.6080  1.5466
  743TIP3   OH223643   3.765   3.735  15.756 -0.7794  0.8649  0.0922
  743TIP3    H123644   3.846   3.772  15.791 -0.4217  0.7202 -0.5617
  743TIP3    H223645   3.716   3.705  15.833 -0.6048  1.7432  0.5504
  744TIP3   OH223646   3.468   2.557  15.004  0.1075 -0.0388  0.3290
  744TIP3    H123647   3.449   2.465  15.021 -1.4580 -0.2817 -2.3234
  744TIP3    H223648   3.558   2.569  15.037 -0.0310 -2.1799  1.7152
  745TIP3   OH223649   5.657   1.806   5.888 -0.3160  0.3368 -0.2632
  745TIP3    H123650   5.733   1.816   5.945  0.3923  0.1797 -1.1604
  745TIP3    H223651   5.592   1.763   5.943  0.0378  0.9630  0.6869
  746TIP3   OH223652   2.938   1.976   4.799 -0.3122  0.6173 -0.3068
  746TIP3    H123653   2.996   1.921   4.851 -1.4485  0.9392  1.3831
  746TIP3    H223654   2.857   1.925   4.792 -0.0151  0.3307 -2.3150
  747TIP3   OH223655   6.001   2.118  16.070  0.0954 -1.2816  0.1194
  747TIP3    H123656   6.037   2.043  16.117 -0.8496 -0.9475  1.4335
  747TIP3    H223657   6.077   2.171  16.047  0.5363 -0.1660  3.5671
  748TIP3   OH223658   6.055   6.463   3.400 -0.5272 -0.1071 -0.3545
  748TIP3    H123659   6.008   6.526   3.346  0.8549 -0.3750 -1.9778
  748TIP3    H223660   6.054   6.500   3.488 -0.2679  1.8971 -1.1466
  749TIP3   OH223661   3.764   6.566   0.996 -0.0946  0.1469  0.0921
  749TIP3    H123662   3.778   6.532   1.084 -1.4851 -0.2153  0.1953
  749TIP3    H223663   3.818   6.510   0.940 -0.4730 -0.6942  0.5405
  750TIP3   OH223664   6.304   4.241  10.643  0.4307  0.0154  0.4751
  750TIP3    H123665   6.263   4.314  10.597 -1.4979  0.0037  2.0064
  750TIP3    H223666   6.296   4.167  10.583 -1.4124  0.1439  0.5103
  751TIP3   OH223667   6.272   2.100  12.585  0.0926 -0.1165 -0.3700
  751TIP3    H123668   6.336   2.055  12.640 -0.6461  0.6929  1.2010
  751TIP3    H223669   6.261   2.186  12.625 -0.7155  0.3963 -1.6162
  752TIP3   OH223670   2.890   3.842   2.075  0.9183  0.3618 -0.0569
  752TIP3    H123671   2.870   3.769   2.132 -4.4863  2.9182  2.0446
  752TIP3    H223672   2.964   3.886   2.116 -0.5578  0.1160  3.2152
  753TIP3   OH223673   3.621   4.620   2.543 -0.0397 -0.7022  0.1070
  753TIP3    H123674   3.530   4.597   2.523  0.5748 -2.5826 -0.8093
  753TIP3    H223675   3.658   4.648   2.459  0.3165 -0.2773  0.4024
  754TIP3   OH223676   2.201   5.722   2.817  0.0868 -0.2228  0.3808
  754TIP3    H123677   2.293   5.718   2.845 -0.0538 -0.9558  0.7735
  754TIP3    H223678   2.152   5.731   2.899 -0.1455  1.2087  0.1063
  755TIP3   OH223679   2.661   3.897  15.918  0.0813 -0.0297 -0.5108
  755TIP3    H123680   2.704   3.955  15.854 -0.2777 -1.1426 -1.8131
  755TIP3    H223681   2.595   3.850  15.866 -0.8083 -0.3648  0.8780
  756TIP3   OH223682   6.447   3.697  15.471  0.9015 -0.7098 -0.0858
  756TIP3    H123683   6.386   3.624  15.476  0.5729 -0.5252 -1.2865
  756TIP3    H223684   6.525   3.666  15.518 -0.0649 -0.9638  1.4033
  757TIP3   OH223685   2.094   1.137   1.944  0.2800 -0.4699 -0.1089
  757TIP3    H123686   2.024   1.120   2.006  0.6834 -0.4528  0.3617
  757TIP3    H223687   2.157   1.190   1.994  0.3082  0.0947 -0.7241
  758TIP3   OH223688   4.516   5.098  15.070  0.2458 -0.0897 -0.4242
  758TIP3    H123689   4.488   5.176  15.023  1.6121 -0.1575 -1.4063
  758TIP3    H223690   4.579   5.130  15.134  0.9697 -0.4012 -0.9731
  759TIP3   OH223691   0.554   1.431  11.314  0.0113 -0.1906  0.3308
  759TIP3    H123692   0.498   1.360  11.284  1.0777 -0.4889 -1.0373
  759TIP3    H223693   0.575   1.409  11.405 -0.8853 -0.8200  0.3897
  760TIP3   OH223694   3.686   2.101   3.878 -0.3278  0.6889  0.0927
  760TIP3    H123695   3.759   2.162   3.875 -0.1803  0.5248  0.3052
  760TIP3    H223696   3.722   2.022   3.918 -0.2696  0.1239 -1.0363
  761TIP3   OH223697   2.962   1.926   5.370  0.0992 -0.1340  0.1393
  761TIP3    H123698   3.021   1.953   5.299  1.5394 -0.2078  1.2576
  761TIP3    H223699   3.018   1.876   5.429 -1.1704 -0.4381  1.1194
  762TIP3   OH223700   3.488   3.332   4.703  0.5953 -0.0145  0.7409
  762TIP3    H123701   3.441   3.268   4.650 -0.4856  1.4731 -0.1781
  762TIP3    H223702   3.564   3.357   4.650  0.2830  0.4428  0.5068
  763TIP3   OH223703   1.815   5.713  13.345 -0.1838 -0.0655 -0.1031
  763TIP3    H123704   1.729   5.699  13.384  0.1098  2.4663  1.7175
  763TIP3    H223705   1.799   5.772  13.272  0.0471  0.9693  0.6648
  764TIP3   OH223706   2.389   3.807  15.290 -0.1122  0.4173 -0.0157
  764TIP3    H123707   2.309   3.843  15.331 -0.1955 -0.9437  1.0949
  764TIP3    H223708   2.439   3.884  15.264 -1.0244  1.3193  0.8064
  765TIP3   OH223709   3.626   4.422  11.808  0.3871  0.7894  0.4942
  765TIP3    H123710   3.588   4.372  11.736  0.0305  1.9891 -0.1779
  765TIP3    H223711   3.551   4.467  11.848  1.0052  3.2721 -0.9191
  766TIP3   OH223712   2.053   5.126   2.571  0.6009  0.1389  0.3160
  766TIP3    H123713   2.035   5.162   2.484  0.3997 -1.1823 -0.2152
  766TIP3    H223714   2.148   5.125   2.578  0.6188  2.4476  1.0927
  767TIP3   OH223715   2.674   1.295  11.288  0.4710 -0.2683  0.2838
  767TIP3    H123716   2.597   1.346  11.310 -0.0947 -0.6561 -0.7259
  767TIP3    H223717   2.644   1.204  11.292  0.9929 -0.4432  0.3131
  768TIP3   OH223718   6.078   1.833  13.471  0.6072  0.6117 -0.0853
  768TIP3    H123719   6.158   1.849  13.420  0.3790 -0.4569 -0.8223
  768TIP3    H223720   6.075   1.905  13.534  2.7967  0.0106  0.7885
  769TIP3   OH223721   5.787   4.614   1.403 -0.0606  0.6383  0.2309
  769TIP3    H123722   5.713   4.666   1.435  0.3164 -0.7742  3.8904
  769TIP3    H223723   5.861   4.675   1.400 -0.4990  1.1828  0.4387
  770TIP3   OH223724   3.813   3.498  16.010 -0.5070 -0.4776  0.3177
  770TIP3    H123725   3.774   3.471  16.093 -0.7702  1.5905  0.9235
  770TIP3    H223726   3.905   3.472  16.017 -0.9577 -2.2603  0.3084
  771TIP3   OH223727   1.595   5.536   1.461  0.3582 -0.1423 -0.2833
  771TIP3    H123728   1.515   5.497   1.424  0.5279 -0.1516 -0.6507
  771TIP3    H223729   1.595   5.509   1.553  0.2650 -0.6825 -0.4341
  772TIP3   OH223730   6.615   4.726   1.834 -0.4630 -0.0680  0.4516
  772TIP3    H123731   6.696   4.763   1.800 -0.7699  0.3689  0.1969
  772TIP3    H223732   6.618   4.745   1.928 -1.6178  2.5634  0.0301
  773TIP3   OH223733   0.521   0.006  13.993 -0.1352 -0.2617  0.0296
  773TIP3    H123734   0.443   0.051  13.962  0.1041  0.7430  0.8397
  773TIP3    H223735   0.572   0.073  14.038  2.8796 -0.0508 -3.3089
  774TIP3   OH223736   3.950   5.611   4.041 -0.2548 -0.2374 -0.4789
  774TIP3    H123737   3.857   5.598   4.022 -1.0515 -0.2935  2.8408
  774TIP3    H223738   3.954   5.698   4.081  0.6922 -1.0705  1.3748
  775TIP3   OH223739   1.058   1.644   0.169  0.3146 -0.3875 -0.1411
  775TIP3    H123740   1.088   1.555   0.188  0.4378 -0.1572  0.7796
  775TIP3    H223741   1.137   1.698   0.174  0.4779 -0.4043 -2.0305
  776TIP3   OH223742   2.964   3.604   1.398 -0.0360 -0.1718  0.6669
  776TIP3    H123743   2.871   3.627   1.406 -0.1240 -0.0088 -0.6188
  776TIP3    H223744   2.997   3.606   1.488 -0.9348  1.1980  0.9981
  777TIP3   OH223745   5.022   6.593   4.802 -0.0187  0.0369 -0.0878
  777TIP3    H123746   5.000   6.621   4.713  0.3705  1.6719  0.2979
  777TIP3    H223747   4.978   6.509   4.812  0.6167 -0.5838 -2.1132
  778TIP3   OH223748   1.580   0.892  12.279 -0.4677  0.2154 -0.0216
  778TIP3    H123749   1.640   0.911  12.207 -2.0039 -2.7339 -2.3087
  778TIP3    H223750   1.592   0.965  12.340  2.2470  1.9521 -2.3596
  779TIP3   OH223751   5.556   2.226   3.356 -0.2341  0.6415 -0.2564
  779TIP3    H123752   5.603   2.201   3.436 -1.0881  0.5680  0.2327
  779TIP3    H223753   5.508   2.305   3.381 -0.6188  0.5372 -0.6555
  780TIP3   OH223754   6.367   1.196   4.440  0.1188  0.2711 -0.5632
  780TIP3    H123755   6.397   1.246   4.364  0.1540  1.0036 -0.0781
  780TIP3    H223756   6.391   1.106   4.420  1.7660  0.6919 -0.6300
  781TIP3   OH223757   5.600   0.878   0.989 -0.4094  0.5472  0.0765
  781TIP3    H123758   5.683   0.831   0.996 -0.0783  1.2149  0.7069
  781TIP3    H223759   5.566   0.881   1.078 -2.3824 -1.9424 -0.4977
  782TIP3   OH223760   4.055   0.778  16.174  0.0198  0.2035  0.3245
  782TIP3    H123761   4.079   0.753  16.085 -0.4601 -0.0844  0.2735
  782TIP3    H223762   4.053   0.695  16.223  0.4290  0.3742  0.6422
  783TIP3   OH223763   4.858   6.182  14.554 -0.2665 -0.3010 -0.4821
  783TIP3    H123764   4.830   6.223  14.636  0.7409 -3.7500  1.8047
  783TIP3    H223765   4.787   6.122  14.531  0.1803 -0.5578 -1.2340
  784TIP3   OH223766   4.870   5.334   3.184  0.3367  0.2474  0.0740
  784TIP3    H123767   4.958   5.352   3.217 -0.0405  1.6511  0.3415
  784TIP3    H223768   4.812   5.391   3.234 -0.6791 -0.2593 -0.4760
  785TIP3   OH223769   4.464   1.346   4.501 -0.0394 -0.0855 -0.4384
  785TIP3    H123770   4.494   1.271   4.553 -1.6516  0.0651  0.7823
  785TIP3    H223771   4.387   1.313   4.455 -1.9803  1.3098  1.6487
  786TIP3   OH223772   2.915   3.004   1.616  0.1627 -0.2930  0.1296
  786TIP3    H123773   2.953   3.084   1.652  0.6322 -0.6141  0.3540
  786TIP3    H223774   2.912   2.943   1.690 -1.2429 -0.1171  0.2345
  787TIP3   OH223775   3.393   6.136  16.891 -0.5605 -0.7496 -0.0987
  787TIP3    H123776   3.481   6.162  16.863  0.5064 -0.7505  2.8744
  787TIP3    H223777   3.385   6.045  16.863  0.3814 -0.7464 -0.4257
  788TIP3   OH223778   6.368   6.020  16.392 -0.0455 -0.3909  0.1097
  788TIP3    H123779   6.323   5.959  16.333  0.1396  0.1633 -0.6124
  788TIP3    H223780   6.304   6.039  16.460 -1.1375  0.7863 -1.1761
  789TIP3   OH223781   1.503   4.874   0.591 -0.1171  0.3343 -0.3740
  789TIP3    H123782   1.509   4.864   0.496 -3.6901 -0.9936 -0.6247
  789TIP3    H223783   1.591   4.855   0.623  0.6916 -1.4456 -3.2771
  790TIP3   OH223784   1.814   5.338   5.681 -0.1116  0.4107  0.1964
  790TIP3    H123785   1.750   5.267   5.690 -0.1244  0.4111  0.1089
  790TIP3    H223786   1.805   5.389   5.762  0.7181 -0.3607  0.7873
  791TIP3   OH223787   5.624   3.393  15.357  0.1473  0.2881 -0.3345
  791TIP3    H123788   5.701   3.435  15.396  1.1856 -1.0641 -0.8860
  791TIP3    H223789   5.659   3.329  15.295 -1.3076 -2.3043  1.3385
  792TIP3   OH223790   6.144   4.777  14.313 -0.0893  0.3310  0.0076
  792TIP3    H123791   6.166   4.699  14.364  0.1159  0.0603 -0.4941
  792TIP3    H223792   6.226   4.825  14.305  0.2826 -0.5064 -1.5653
  793TIP3   OH223793   0.379   2.760  16.101  0.2441  0.0287 -0.2286
  793TIP3    H123794   0.313   2.782  16.034 -0.1011  1.2779  0.4835
  793TIP3    H223795   0.333   2.773  16.184  1.3153  0.7119  0.2801
  794TIP3   OH223796   0.550   4.459  16.884 -0.5974 -0.6439 -0.7165
  794TIP3    H123797   0.612   4.446  16.955  0.2317 -1.6470 -1.5785
  794TIP3    H223798   0.480   4.512  16.921 -0.1968 -1.1725  0.8425
  795TIP3   OH223799   3.288   4.862  12.688 -0.0742 -0.4015 -0.0564
  795TIP3    H123800   3.370   4.908  12.671  0.0712 -1.3399 -2.1963
  795TIP3    H223801   3.245   4.914  12.755  1.4985  1.0678 -0.1178
  796TIP3   OH223802   4.977   0.376  16.624 -0.2093  0.0538 -0.4392
  796TIP3    H123803   5.022   0.453  16.658  0.3487 -0.9316  1.2079
  796TIP3    H223804   5.047   0.317  16.597 -0.6024 -0.2108 -0.8934
  797TIP3   OH223805   6.740   3.425  16.340  0.3295  0.0064 -0.1275
  797TIP3    H123806   6.774   3.352  16.288  1.3423  0.9495 -0.8372
  797TIP3    H223807   6.814   3.453  16.394 -0.1437  0.3020  0.3716
  798TIP3   OH223808   0.285   6.031  13.026  0.3266  0.3910  0.1598
  798TIP3    H123809   0.287   5.937  13.047 -0.5493  0.1392 -0.7665
  798TIP3    H223810   0.351   6.040  12.956  0.8612  0.5913  0.6860
  799TIP3   OH223811   5.368   5.322  12.030 -0.6297 -0.1395  0.4403
  799TIP3    H123812   5.275   5.309  12.048 -1.2920  0.0387 -2.3733
  799TIP3    H223813   5.378   5.417  12.025 -0.7716 -0.1795 -1.1420
  800TIP3   OH223814   2.778   3.703   4.833 -0.1868 -0.3413 -0.1321
  800TIP3    H123815   2.728   3.724   4.753 -0.7772 -1.6521 -0.1392
  800TIP3    H223816   2.862   3.671   4.801 -0.5325 -1.1545 -0.2709
  801TIP3   OH223817   0.288   1.820   2.244 -0.1975  0.1763 -0.5563
  801TIP3    H123818   0.379   1.845   2.259 -0.0866  1.4892 -2.8872
  801TIP3    H223819   0.292   1.728   2.219  0.5177  0.2618 -0.7723
  802TIP3   OH223820   2.520   1.877  12.512 -0.6667  0.1016 -0.1316
  802TIP3    H123821   2.613   1.860  12.497 -1.0435 -0.4062 -2.3141
  802TIP3    H223822   2.510   1.875  12.607  1.7346  1.3255  0.2282
  803TIP3   OH223823   1.379   5.638   3.526  0.2148  0.1110  0.2169
  803TIP3    H123824   1.393   5.643   3.621 -1.4727 -1.3989  0.5992
  803TIP3    H223825   1.407   5.550   3.503  1.3824  0.7372 -0.8746
  804TIP3   OH223826   3.507   4.265  11.578  0.3893 -0.0087 -0.0277
  804TIP3    H123827   3.432   4.273  11.519  0.3880  0.8693  0.0718
  804TIP3    H223828   3.495   4.181  11.621 -1.0887  0.5341  0.6976
  805TIP3   OH223829   4.289   6.781   0.083  0.0948  0.0246 -0.5843
  805TIP3    H123830   4.289   6.706   0.023  0.6352 -0.7005  0.2965
  805TIP3    H223831   4.308   6.743   0.169  1.3823  1.2798 -0.2744
  806TIP3   OH223832   6.761   2.827  15.375  0.4429  0.2978 -0.6338
  806TIP3    H123833   6.800   2.854  15.458 -0.6769  2.1054 -0.6376
  806TIP3    H223834   6.809   2.748  15.350  3.7849  2.0646 -0.4315
  807TIP3   OH223835   5.277   6.705  12.046  0.4854  0.1962  0.2628
  807TIP3    H123836   5.228   6.754  12.112  1.5912 -0.2168  1.4347
  807TIP3    H223837   5.349   6.763  12.021  1.6970 -0.6814  1.5275
  808TIP3   OH223838   0.934   2.502   2.467 -0.6896  0.7080  0.1101
  808TIP3    H123839   0.950   2.514   2.373 -0.4553 -1.4299 -0.1786
  808TIP3    H223840   0.858   2.556   2.485 -0.3416  1.6855 -1.1527
  809TIP3   OH223841   2.590   4.344   4.424  0.0232 -0.3807 -0.5977
  809TIP3    H123842   2.674   4.338   4.470 -1.0081  1.4615  1.6814
  809TIP3    H223843   2.615   4.357   4.332  2.2598  0.8434  0.1025
  810TIP3   OH223844   0.828   0.200   2.683  0.3004 -0.2706 -0.3815
  810TIP3    H123845   0.756   0.206   2.621 -0.1196  0.6985  0.1830
  810TIP3    H223846   0.823   0.111   2.718 -0.4678 -0.2884 -0.5285
  811TIP3   OH223847   1.588   2.667   0.150 -0.3167 -0.0763 -0.2895
  811TIP3    H123848   1.647   2.611   0.100  0.0065  1.1024 -1.2955
  811TIP3    H223849   1.609   2.648   0.242  1.2988 -0.0428 -0.6207
  812TIP3   OH223850   2.812   5.520  12.207 -0.2008 -0.1947  0.0801
  812TIP3    H123851   2.852   5.434  12.217  0.5321  0.2110  0.7173
  812TIP3    H223852   2.732   5.515  12.261  0.4977 -0.0738  1.1571
  813TIP3   OH223853   3.763   3.685  14.259 -0.6191 -0.9181 -0.0349
  813TIP3    H123854   3.844   3.635  14.246  0.2562  0.7565 -1.6514
  813TIP3    H223855   3.706   3.658  14.187 -0.6671 -0.6111 -0.1157
  814TIP3   OH223856   4.500   0.492   5.965  0.2825  0.2491 -0.2934
  814TIP3    H123857   4.486   0.570   6.019 -0.2340 -0.2259  0.2749
  814TIP3    H223858   4.517   0.422   6.028  0.3652 -0.1770 -0.7826
  815TIP3   OH223859   2.234   6.311   6.813 -0.2236  0.5132  0.1183
  815TIP3    H123860   2.198   6.388   6.858 -0.7627  0.3109  0.0350
  815TIP3    H223861   2.271   6.346   6.732 -0.5428  0.6779  0.0413
  816TIP3   OH223862   4.219   1.175  15.877  0.0024  0.1474 -0.0792
  816TIP3    H123863   4.143   1.130  15.838  1.4712 -2.7306  0.1198
  816TIP3    H223864   4.246   1.118  15.949  1.8158  1.5812  0.4385
  817TIP3   OH223865   2.855   3.937  14.891  0.0579  0.3687 -0.9550
  817TIP3    H123866   2.763   3.926  14.914 -0.0740  0.7270 -1.2852
  817TIP3    H223867   2.887   3.848  14.876  0.5800 -0.0465  2.0727
  818TIP3   OH223868   2.848   1.131   6.265  0.7457 -0.0125  0.3646
  818TIP3    H123869   2.939   1.134   6.295  1.0285  0.8372 -0.5164
  818TIP3    H223870   2.840   1.206   6.206 -0.1758 -0.8053 -0.5582
  819TIP3   OH223871   0.074   3.134   4.740 -0.2407  0.2693 -0.7630
  819TIP3    H123872   0.147   3.195   4.755  0.3101  0.9851 -5.0687
  819TIP3    H223873   0.112   3.048   4.756  0.8152  0.7651 -0.4897
  820TIP3   OH223874   3.259   3.493  14.350  0.0629 -0.1792 -0.1891
  820TIP3    H123875   3.262   3.399  14.366 -0.3056 -0.2576 -0.5696
  820TIP3    H223876   3.176   3.507  14.304 -1.5141  0.7784  2.7258
  821TIP3   OH223877   3.958   4.241   6.319 -0.1782 -0.1648  0.1269
  821TIP3    H123878   3.961   4.215   6.227  1.6024  2.7523 -0.7663
  821TIP3    H223879   3.892   4.310   6.323  0.6035  0.5746  0.7571
  822TIP3   OH223880   3.899   3.163   5.465 -0.3069 -0.2862  0.0163
  822TIP3    H123881   3.959   3.220   5.417 -0.4753  0.2718  0.4653
  822TIP3    H223882   3.861   3.107   5.397 -0.2831  0.2633 -0.4649
  823TIP3   OH223883   4.272   3.313  10.709 -0.4463 -0.2859  0.1361
  823TIP3    H123884   4.254   3.298  10.616 -1.6355  1.1364  0.0896
  823TIP3    H223885   4.321   3.396  10.710 -0.3451 -0.3505  0.7710
  824TIP3   OH223886   0.795   3.941  12.490 -0.0700 -0.3590 -0.0405
  824TIP3    H123887   0.747   3.956  12.408  1.5031 -2.8735 -1.5599
  824TIP3    H223888   0.864   3.879  12.466  0.6592 -0.9416  3.1476
  825TIP3   OH223889   5.730   3.305  15.620 -0.5130 -0.2986  0.7438
  825TIP3    H123890   5.752   3.225  15.573 -0.4919 -1.0255  1.9637
  825TIP3    H223891   5.635   3.301  15.632 -0.3477 -0.8508  2.0266
  826TIP3   OH223892   2.201   2.227  16.482  0.4765 -0.5541  0.3241
  826TIP3    H123893   2.262   2.200  16.414  0.3599 -1.9798  0.7582
  826TIP3    H223894   2.117   2.237  16.436  0.5267 -0.9239  0.1500
  827TIP3   OH223895   3.775   1.598  17.111  0.1505 -0.0100 -0.1136
  827TIP3    H123896   3.694   1.592  17.060 -0.1205 -0.0656  0.3081
  827TIP3    H223897   3.747   1.638  17.194  0.3646 -0.9461  0.4252
  828TIP3   OH223898   5.347   6.683   2.174  0.1160  0.6137  0.3810
  828TIP3    H123899   5.291   6.659   2.100 -0.4628  0.9317  0.7064
  828TIP3    H223900   5.434   6.651   2.150 -0.1463  0.3652 -0.2602
  829TIP3   OH223901   3.469   4.464   2.798  0.3534  0.4700 -0.7541
  829TIP3    H123902   3.558   4.488   2.771  0.0474  1.2751 -1.0751
  829TIP3    H223903   3.441   4.534   2.857  0.5859 -0.7027  0.8122
  830TIP3   OH223904   3.507   6.426   2.095 -0.0064 -0.0024 -0.5865
  830TIP3    H123905   3.514   6.372   2.174  0.6384  0.1493 -0.5377
  830TIP3    H223906   3.595   6.461   2.082 -0.9347  3.3273  1.0024
  831TIP3   OH223907   5.606   5.167   3.900  0.2133  0.3669  0.2034
  831TIP3    H123908   5.629   5.142   3.811  1.6765  1.0193  0.3593
  831TIP3    H223909   5.516   5.200   3.894  0.0428 -0.2705 -0.8827
  832TIP3   OH223910   6.108   5.741  16.967  0.3074 -0.2200  0.1145
  832TIP3    H123911   6.175   5.719  17.033 -1.2440 -2.2592  1.1313
  832TIP3    H223912   6.157   5.749  16.885  1.8170 -1.6512  0.8130
  833TIP3   OH223913   4.163   5.444   4.048 -0.5001  0.2989 -0.4094
  833TIP3    H123914   4.224   5.467   4.118 -2.0225 -0.1492  1.1219
  833TIP3    H223915   4.091   5.506   4.058 -1.5305 -0.8714 -0.4690
  834TIP3   OH223916   2.145   1.030  14.448  0.2446  0.1198 -0.1423
  834TIP3    H123917   2.163   1.082  14.369  2.5068 -1.0470 -0.4628
  834TIP3    H223918   2.211   1.059  14.511 -0.3738 -0.2700  0.7027
  835TIP3   OH223919   2.316   1.619   4.129 -0.2670 -0.9750 -0.6150
  835TIP3    H123920   2.268   1.700   4.115 -0.8097 -1.3106 -0.7131
  835TIP3    H223921   2.303   1.569   4.048  1.6047 -0.4025 -1.3204
  836TIP3   OH223922   1.399   4.651   1.389 -0.6174 -0.0197  0.0600
  836TIP3    H123923   1.388   4.556   1.397  2.7808 -0.5648  0.0309
  836TIP3    H223924   1.314   4.688   1.411 -1.7040 -3.0221  1.4114
  837TIP3   OH223925   2.813   2.069   5.075 -0.2673 -0.0713 -0.0288
  837TIP3    H123926   2.889   2.028   5.034 -0.3563 -0.3842  0.1189
  837TIP3    H223927   2.849   2.114   5.152 -0.0518  0.7824 -0.6192
  838TIP3   OH223928   3.290   0.370  11.616  0.6073 -0.9461 -0.5169
  838TIP3    H123929   3.227   0.381  11.687 -0.1838 -0.2769 -1.2897
  838TIP3    H223930   3.236   0.350  11.539  1.2903  0.1499 -1.3108
  839TIP3   OH223931   0.704   1.823  12.439  0.1064 -0.0234 -0.4827
  839TIP3    H123932   0.773   1.774  12.395 -0.9750 -1.0982 -1.0448
  839TIP3    H223933   0.693   1.778  12.523  0.9796  0.9664  0.1839
  840TIP3   OH223934   0.489   0.501   4.259  0.5412  0.2413 -0.1549
  840TIP3    H123935   0.515   0.500   4.351  1.0978  1.6074 -0.2729
  840TIP3    H223936   0.555   0.447   4.215  0.1963 -0.5250  0.2491
  841TIP3   OH223937   5.025   0.979  15.127  0.4739 -0.5792 -0.3359
  841TIP3    H123938   5.097   1.040  15.118 -0.4200  0.3798 -1.1595
  841TIP3    H223939   5.047   0.907  15.068  0.5319 -0.0711 -0.9406
  842TIP3   OH223940   6.428   6.113   1.373  0.3337 -0.4535 -0.3350
  842TIP3    H123941   6.488   6.044   1.342 -1.0882 -0.9449 -2.2239
  842TIP3    H223942   6.356   6.065   1.415 -0.0586 -0.0697 -0.5533
  843TIP3   OH223943   4.646   2.961   1.553  0.0068 -0.5361  0.0601
  843TIP3    H123944   4.557   2.989   1.531  0.1849  0.9968  1.1170
  843TIP3    H223945   4.697   2.979   1.474 -0.3918 -0.2842 -0.1455
  844TIP3   OH223946   3.022   2.808  15.292  0.4645  0.1734  0.2106
  844TIP3    H123947   3.107   2.765  15.280  0.2459 -0.1042 -0.3936
  844TIP3    H223948   2.958   2.739  15.274  0.1052  0.7104 -0.6501
  845TIP3   OH223949   0.242   1.683   4.664  0.2850 -0.3665  0.1082
  845TIP3    H123950   0.301   1.610   4.643  1.4839  0.6743 -0.2495
  845TIP3    H223951   0.177   1.645   4.722  3.3784 -0.8352  3.6626
  846TIP3   OH223952   5.102   6.137  12.542  0.0482 -0.1246  0.1364
  846TIP3    H123953   5.038   6.195  12.501  0.4886  0.8814  0.8340
  846TIP3    H223954   5.069   6.049  12.525 -1.6830  0.3715  0.7436
  847TIP3   OH223955   2.578   0.315  15.570  1.0638  0.4690 -0.2353
  847TIP3    H123956   2.576   0.263  15.490  1.4511  0.4199 -0.2144
  847TIP3    H223957   2.529   0.395  15.548  1.7788  0.7800 -0.7516
  848TIP3   OH223958   4.380   2.886  12.096  0.2019 -0.4660  0.3702
  848TIP3    H123959   4.378   2.964  12.041  0.8319 -1.0921 -0.5683
  848TIP3    H223960   4.316   2.904  12.165  0.1636  0.7717  0.0356
  849TIP3   OH223961   0.668   0.508   5.040  0.4124  0.3155 -0.1830
  849TIP3    H123962   0.578   0.538   5.049  0.5720  0.2786  2.7950
  849TIP3    H223963   0.668   0.419   5.076  2.0686  1.4501  3.0531
  850TIP3   OH223964   4.334   5.887   5.933  0.2412  0.1426  0.2736
  850TIP3    H123965   4.243   5.861   5.945 -0.1212  0.6521 -1.1781
  850TIP3    H223966   4.330   5.981   5.916  0.8387 -0.1085 -1.4834
  851TIP3   OH223967   0.649   4.042  15.233  0.6113  0.5014 -0.2620
  851TIP3    H123968   0.693   3.957  15.243  0.4380  0.0182 -2.8370
  851TIP3    H223969   0.689   4.081  15.156  0.4866  2.6909  0.7054
  852TIP3   OH223970   5.513   3.079   3.065  0.6339 -0.2124 -0.2508
  852TIP3    H123971   5.581   3.146   3.065 -0.0367  0.5045 -1.3675
  852TIP3    H223972   5.528   3.029   3.145  2.6710 -0.2869 -0.6351
  853TIP3   OH223973   2.353   2.569  15.917 -0.3092 -0.2861 -0.3129
  853TIP3    H123974   2.292   2.497  15.931 -0.3442 -0.3874 -0.9387
  853TIP3    H223975   2.382   2.595  16.004  0.2072 -1.4835 -0.1165
  854TIP3   OH223976   0.459   3.710  12.808 -0.4408 -0.1773 -0.3405
  854TIP3    H123977   0.532   3.758  12.769  0.7121 -1.2209  0.4163
  854TIP3    H223978   0.381   3.749  12.770  0.4363  1.9798 -0.0829
  855TIP3   OH223979   3.849   3.896   3.561  0.1194 -0.4359  0.1382
  855TIP3    H123980   3.773   3.852   3.523  2.1540 -3.0597 -1.1536
  855TIP3    H223981   3.855   3.859   3.649  0.0549 -0.3954  0.1603
  856TIP3   OH223982   2.721   5.986   3.474 -0.1075 -0.0641  0.1829
  856TIP3    H123983   2.784   6.047   3.434 -1.4975  1.3020 -0.0276
  856TIP3    H223984   2.675   6.039   3.539 -0.6703 -1.1786  0.7166
  857TIP3   OH223985   1.701   6.295  11.718 -0.7077  0.1750  0.2261
  857TIP3    H123986   1.763   6.345  11.771 -1.1403  0.6010  0.3414
  857TIP3    H223987   1.728   6.310  11.628  0.3072 -0.9152  0.3220
  858TIP3   OH223988   0.884   2.826  17.139 -0.1995 -0.2905 -0.1880
  858TIP3    H123989   0.894   2.799  17.230 -0.2207  0.6815  0.1209
  858TIP3    H223990   0.973   2.832  17.104 -0.1597 -0.1359 -0.0617
  859TIP3   OH223991   3.485   4.953  16.876 -0.8558 -0.1620  0.6366
  859TIP3    H123992   3.524   4.889  16.816 -1.4466 -1.0215  1.1438
  859TIP3    H223993   3.544   5.029  16.872  1.2587 -1.6148  1.7970
  860TIP3   OH223994   5.913   4.380   2.476  0.3097  0.6793 -0.4759
  860TIP3    H123995   5.964   4.397   2.396  2.0988 -0.7775  0.2786
  860TIP3    H223996   5.937   4.451   2.535  1.6262 -0.0696 -0.0799
  861TIP3   OH223997   5.813   2.841  10.544  0.3402  0.5947  0.4161
  861TIP3    H123998   5.764   2.815  10.466  1.7858  0.9934 -0.6587
  861TIP3    H223999   5.746   2.851  10.611 -0.8256 -0.9024 -0.4405
  862TIP3   OH224000   1.641   6.598   2.728  0.0007 -0.5532  0.0493
  862TIP3    H124001   1.686   6.679   2.754 -0.7656 -0.5092  1.3352
  862TIP3    H224002   1.712   6.536   2.711  0.5739 -0.1485  0.8827
  863TIP3   OH224003   5.532   0.248   0.503  0.4119 -0.4639 -0.0218
  863TIP3    H124004   5.485   0.323   0.468  0.1515  0.1552  1.5519
  863TIP3    H224005   5.478   0.172   0.480 -0.7778  0.1267  0.7412
  864TIP3   OH224006   6.344   0.169   2.172  0.6078 -0.4317 -0.1338
  864TIP3    H124007   6.303   0.118   2.242  0.4215  0.4264  0.4006
  864TIP3    H224008   6.379   0.246   2.217  1.7842 -0.5787 -0.7664
  865TIP3   OH224009   3.199   2.231   2.929 -0.0735 -0.0904 -0.3584
  865TIP3    H124010   3.262   2.279   2.875 -0.2186 -1.3087 -1.6763
  865TIP3    H224011   3.250   2.199   3.004 -0.0041  2.1474  0.6114
  866TIP3   OH224012   1.795   1.820   1.267 -0.3656 -0.4545 -1.1569
  866TIP3    H124013   1.795   1.899   1.321 -1.2039 -0.1751 -1.5517
  866TIP3    H224014   1.803   1.749   1.330 -0.2325 -0.0800 -0.7443
  867TIP3   OH224015   5.033   3.670  15.475 -0.3761  0.9041  0.5649
  867TIP3    H124016   5.020   3.754  15.431  1.5377  0.4724 -0.9650
  867TIP3    H224017   5.016   3.689  15.567 -3.5391  2.0795 -0.1426
  868TIP3   OH224018   0.489   4.582  13.645  0.2878 -0.0003  0.1252
  868TIP3    H124019   0.445   4.664  13.622  1.9811  0.6266 -1.0496
  868TIP3    H224020   0.419   4.527  13.680 -1.3563  1.0895 -1.2630
  869TIP3   OH224021   4.936   6.579   0.921  0.1721  0.6212 -0.1974
  869TIP3    H124022   5.017   6.620   0.952  0.4234 -0.4557  0.6295
  869TIP3    H224023   4.966   6.506   0.866 -0.2345  0.3545 -0.0699
  870TIP3   OH224024   2.282   6.693  10.677 -0.1429 -0.4471  0.6137
  870TIP3    H124025   2.372   6.679  10.708  1.2053  1.4941 -2.0138
  870TIP3    H224026   2.280   6.784  10.649 -2.8839 -0.5171  0.2841
  871TIP3   OH224027   4.037   5.221   0.070 -0.6368  0.2955  0.3314
  871TIP3    H124028   4.123   5.214   0.027 -1.4439  1.3684 -1.6024
  871TIP3    H224029   4.056   5.255   0.157  0.9283  0.2710  0.0269
  872TIP3   OH224030   2.435   4.146   4.517  0.1849 -0.2638  0.0828
  872TIP3    H124031   2.485   4.222   4.488 -0.8917  1.3969  2.3224
  872TIP3    H224032   2.350   4.154   4.474  0.7599 -1.4405 -1.3586
  873TIP3   OH224033   6.267   3.549   4.231  0.8284  0.4850 -0.0348
  873TIP3    H124034   6.197   3.578   4.291  1.0568 -0.6655  0.8088
  873TIP3    H224035   6.348   3.569   4.277  1.0429  0.8312 -0.5534
  874TIP3   OH224036   3.913   3.971   5.141  0.3501  0.4187 -0.4563
  874TIP3    H124037   3.846   3.923   5.092  0.0379  1.7412 -1.3792
  874TIP3    H224038   3.976   3.905   5.167 -1.5922 -0.9971  0.9674
  875TIP3   OH224039   6.157   4.146   3.223 -0.6410 -0.3176  0.3853
  875TIP3    H124040   6.157   4.126   3.130  0.2298  1.2126  0.0324
  875TIP3    H224041   6.139   4.062   3.265  0.6477 -1.4014 -1.0997
  876TIP3   OH224042   4.952   0.932   1.993  0.1683  0.2089 -0.0142
  876TIP3    H124043   4.983   0.857   1.943 -0.3150 -0.0865  0.1244
  876TIP3    H224044   4.992   1.008   1.950 -1.9932  0.1738 -2.2746
  877TIP3   OH224045   2.168   5.391  16.143  0.1749  0.2658  0.2600
  877TIP3    H124046   2.103   5.423  16.205  0.2109  0.7415  0.0574
  877TIP3    H224047   2.148   5.297  16.134  0.5755  0.0541  1.4619
  878TIP3   OH224048   0.140   3.581   4.586 -0.5493 -0.3814 -0.1696
  878TIP3    H124049   0.234   3.585   4.568 -1.1065 -0.4905 -3.8610
  878TIP3    H224050   0.118   3.488   4.579 -1.0154 -0.2963  0.1102
  879TIP3   OH224051   0.510   0.893  10.785 -0.4112  0.2755  0.2371
  879TIP3    H124052   0.593   0.845  10.790 -0.1731  0.3854 -1.6750
  879TIP3    H224053   0.454   0.837  10.731 -1.0321  0.9163  0.2030
  880TIP3   OH224054   5.348   0.819   0.119 -0.1861  0.4778 -0.0740
  880TIP3    H124055   5.283   0.887   0.138 -0.4125  0.1971  0.1732
  880TIP3    H224056   5.326   0.787   0.032 -0.6360  0.0990  0.1757
  881TIP3   OH224057   4.789   2.887  13.759  0.4930 -0.8479  0.1768
  881TIP3    H124058   4.745   2.956  13.810 -0.4503 -0.7211 -0.7809
  881TIP3    H224059   4.838   2.837  13.825 -2.0128 -1.7187  1.5104
  882TIP3   OH224060   3.196   2.187  16.619 -0.3733  0.0413  0.0520
  882TIP3    H124061   3.245   2.249  16.564 -1.3428 -0.3487 -1.3011
  882TIP3    H224062   3.135   2.242  16.668  0.0256  0.3297  0.2290
  883TIP3   OH224063   0.377   4.821   1.527 -0.2715 -0.0021 -0.2794
  883TIP3    H124064   0.302   4.879   1.517 -0.7893 -0.4797  0.7569
  883TIP3    H224065   0.446   4.877   1.563 -0.2945  0.3019 -0.6963
  884TIP3   OH224066   3.051   2.684   1.081  0.6833  0.5644  0.2164
  884TIP3    H124067   3.030   2.592   1.064  0.2163  0.6418  0.3601
  884TIP3    H224068   2.969   2.731   1.062  1.2123  1.0740 -0.8833
  885TIP3   OH224069   0.139   0.957  16.230  0.0844  0.0463 -0.0208
  885TIP3    H124070   0.168   0.911  16.151 -0.3252 -0.0905 -0.0954
  885TIP3    H224071   0.214   1.009  16.257  1.2200 -2.0605  1.1270
  886TIP3   OH224072   4.183   2.021  15.885 -0.3839  1.0002  0.0166
  886TIP3    H124073   4.143   1.965  15.951 -0.7198 -1.0058 -1.7471
  886TIP3    H224074   4.114   2.082  15.860  0.2990  3.0461  2.6974
  887TIP3   OH224075   2.934   6.408   3.960 -0.2102 -0.1684 -0.1297
  887TIP3    H124076   2.841   6.430   3.958 -0.5506 -1.5633 -2.0384
  887TIP3    H224077   2.939   6.329   4.014  0.2755  1.3307  2.1435
  888TIP3   OH224078   1.100   4.348  13.724 -0.0518  0.5559 -0.1492
  888TIP3    H124079   1.177   4.399  13.698 -1.1480  1.5751 -1.5218
  888TIP3    H224080   1.049   4.339  13.644 -3.6486  3.8910  1.4064
  889TIP3   OH224081   0.928   3.634   5.371 -0.1436  0.0372  0.9989
  889TIP3    H124082   0.894   3.544   5.371 -0.4385  0.1470  1.5722
  889TIP3    H224083   0.881   3.678   5.442  0.4472  0.4812  1.1228
  890TIP3   OH224084   3.186   3.165  14.757  0.5926 -0.4583 -0.2788
  890TIP3    H124085   3.216   3.181  14.846 -0.6703  2.2451 -0.2299
  890TIP3    H224086   3.264   3.134  14.710  2.1860  1.4764  0.9509
  891TIP3   OH224087   6.036   0.405  14.856 -0.3928 -0.3441  0.3331
  891TIP3    H124088   6.075   0.395  14.769 -0.2413  0.7855  0.2512
  891TIP3    H224089   6.040   0.499  14.873 -0.2427 -0.5656  1.6484
  892TIP3   OH224090   0.607   0.218  17.008  0.0898 -0.0512 -0.0128
  892TIP3    H124091   0.546   0.275  17.055  0.3602 -0.8579  1.3574
  892TIP3    H224092   0.667   0.279  16.964 -0.6564  0.7317  0.0379
  893TIP3   OH224093   6.030   1.156  15.391 -0.2838 -0.3567 -0.3280
  893TIP3    H124094   6.014   1.160  15.296 -0.3241 -0.1891 -0.3149
  893TIP3    H224095   6.081   1.077  15.403 -0.5372 -0.5434 -0.4553
  894TIP3   OH224096   4.856   2.570   0.118 -0.0574  0.0648  0.0061
  894TIP3    H124097   4.943   2.545   0.148  0.6587  1.2616 -1.0121
  894TIP3    H224098   4.799   2.499   0.148  1.0533 -0.1266  1.7568
  895TIP3   OH224099   4.355   0.688   1.286 -0.2239 -0.3328  0.0567
  895TIP3    H124100   4.297   0.614   1.308 -1.3605  0.7340  0.7748
  895TIP3    H224101   4.419   0.690   1.356 -0.2845 -0.5376  0.1186
  896TIP3   OH224102   0.684   4.069   0.125  0.1234 -0.3494 -0.0267
  896TIP3    H124103   0.671   4.118   0.206 -3.0366 -0.1234 -0.5464
  896TIP3    H224104   0.663   3.978   0.149 -1.0469 -0.2426 -0.6121
  897TIP3   OH224105   0.619   1.564   4.311 -0.3036 -0.2139  0.4125
  897TIP3    H124106   0.582   1.508   4.380  0.8053 -0.7605  0.5846
  897TIP3    H224107   0.673   1.628   4.358 -0.3131  0.0195  0.1088
  898TIP3   OH224108   4.356   6.782  13.088 -0.0853  0.4258 -0.3384
  898TIP3    H124109   4.393   6.841  13.022  1.5126 -0.3021 -0.1295
  898TIP3    H224110   4.272   6.754  13.050  0.0254  1.3312 -1.2979
  899TIP3   OH224111   0.306   6.337  11.240  0.1709  0.1735  0.0618
  899TIP3    H124112   0.356   6.406  11.195 -0.8604  0.9679  0.0906
  899TIP3    H224113   0.299   6.266  11.176  3.1093 -0.8679  0.7533
  900TIP3   OH224114   1.957   2.205  17.056  0.4277  0.4880  0.1546
  900TIP3    H124115   1.972   2.276  16.994  3.1270  0.3116  0.4992
  900TIP3    H224116   1.936   2.129  17.000  0.6090  0.8376 -0.3956
  901TIP3   OH224117   3.046   4.849   5.588  0.0562  0.1927 -0.2336
  901TIP3    H124118   3.042   4.906   5.665  2.3278  0.1032  0.0127
  901TIP3    H224119   3.003   4.899   5.519  0.5793  1.5472  0.3805
  902TIP3   OH224120   1.332   0.907   2.325 -0.2503 -0.1767  0.1032
  902TIP3    H124121   1.290   0.879   2.243  0.8675  0.7925 -0.8272
  902TIP3    H224122   1.263   0.955   2.371 -0.4353  0.6838 -1.0271
  903TIP3   OH224123   6.390   3.571  16.480 -0.4276 -0.1777  0.8149
  903TIP3    H124124   6.322   3.638  16.469 -0.1259  0.1294  0.7859
  903TIP3    H224125   6.426   3.588  16.568 -0.5926 -0.5296  0.9503
  904TIP3   OH224126   4.433   4.210   4.819 -0.0200 -0.1787  0.0622
  904TIP3    H124127   4.415   4.202   4.913  1.5851  1.3190  0.5552
  904TIP3    H224128   4.519   4.253   4.815 -0.3648  0.4075 -2.0889
  905TIP3   OH224129   6.340   3.051  16.120  0.1090 -0.4928  0.1179
  905TIP3    H124130   6.277   3.055  16.193 -0.1004 -3.3254  0.1952
  905TIP3    H224131   6.384   3.136  16.123 -3.2725  1.4508  0.3979
  906TIP3   OH224132   4.173   0.762  15.928  0.5590  0.2025  0.5316
  906TIP3    H124133   4.201   0.851  15.948 -0.0573  0.8765 -1.3815
  906TIP3    H224134   4.210   0.744  15.842 -0.1954 -0.9926  0.4314
  907TIP3   OH224135   6.540   3.104  12.420 -0.2160 -0.6335  0.2765
  907TIP3    H124136   6.624   3.151  12.418 -0.6831  0.1993 -0.4545
  907TIP3    H224137   6.561   3.016  12.390  0.2204 -0.0968 -1.0882
  908TIP3   OH224138   2.697   1.651  16.547  0.5304 -0.4105  0.2602
  908TIP3    H124139   2.633   1.719  16.567  0.3524 -0.3161 -0.6056
  908TIP3    H224140   2.759   1.693  16.488 -1.5125 -1.8674 -3.2564
  909TIP3   OH224141   1.744   4.940  11.941  0.2404  0.0230 -0.0272
  909TIP3    H124142   1.688   5.015  11.962  0.5674  0.3424 -0.2801
  909TIP3    H224143   1.761   4.948  11.847 -1.7827 -1.7853 -0.6107
  910TIP3   OH224144   3.440   6.465  16.673 -0.2992  0.1934 -0.2491
  910TIP3    H124145   3.514   6.415  16.637 -1.0617 -1.6418  0.6220
  910TIP3    H224146   3.364   6.409  16.658 -1.3821  1.6373 -0.2794
  911TIP3   OH224147   2.976   1.472   4.418  0.0690  0.3591  0.4153
  911TIP3    H124148   2.999   1.564   4.417 -0.1756  0.4213 -0.4070
  911TIP3    H224149   2.900   1.465   4.360 -0.4933 -0.2120  1.2047
  912TIP3   OH224150   2.694   3.215  13.351 -0.4373  0.3145  0.2695
  912TIP3    H124151   2.769   3.190  13.298  0.2480  0.9430  0.9230
  912TIP3    H224152   2.697   3.311  13.355 -0.7064  0.2995  1.0975
  913TIP3   OH224153   0.730   3.747   4.728  0.2817  0.3868  0.4184
  913TIP3    H124154   0.649   3.762   4.680  1.1280 -1.4084 -1.8080
  913TIP3    H224155   0.797   3.739   4.659  2.3107  1.4527  2.1323
  914TIP3   OH224156   5.678   5.769  15.881 -0.5300 -0.5672  0.0636
  914TIP3    H124157   5.711   5.697  15.827  0.3738  0.8026 -1.3126
  914TIP3    H224158   5.747   5.783  15.946 -0.1343 -0.1722 -0.4324
  915TIP3   OH224159   5.024   2.647  15.936  0.3018  0.1172 -0.2442
  915TIP3    H124160   5.011   2.685  15.849  1.2415  0.8656 -0.0731
  915TIP3    H224161   4.978   2.707  15.996  2.1041  1.2561  0.0668
  916TIP3   OH224162   5.003   3.336   3.793  0.2576 -0.4118  0.2533
  916TIP3    H124163   4.993   3.244   3.767  2.0911 -0.2922 -1.0826
  916TIP3    H224164   4.986   3.385   3.712  0.3102  0.3722  0.7103
  917TIP3   OH224165   3.530   1.106   3.457 -0.2673 -0.0937 -0.0199
  917TIP3    H124166   3.542   1.114   3.552 -0.7431 -1.4125  0.1715
  917TIP3    H224167   3.450   1.054   3.447 -0.1973 -0.0102 -1.1501
  918TIP3   OH224168   5.428   3.707   2.551  0.1498  0.2973 -0.4339
  918TIP3    H124169   5.348   3.682   2.504  0.7344 -2.7974  0.0272
  918TIP3    H224170   5.402   3.708   2.643  0.4166  0.3764 -0.3588
  919TIP3   OH224171   5.687   3.102  12.589 -0.4302 -0.1356 -1.0337
  919TIP3    H124172   5.624   3.041  12.625 -0.5102 -1.2035 -2.8908
  919TIP3    H224173   5.665   3.109  12.496  0.9470  1.0074 -1.3196
  920TIP3   OH224174   3.223   2.317   5.386 -0.5813  0.4949 -0.0384
  920TIP3    H124175   3.242   2.226   5.364  0.4057  0.6012  0.3371
  920TIP3    H224176   3.286   2.367   5.334  0.6999  0.8277  1.7444
  921TIP3   OH224177   2.140   4.497  17.072  0.0748 -0.2618  0.1632
  921TIP3    H124178   2.189   4.533  16.997  0.0443 -2.1067 -0.7942
  921TIP3    H224179   2.074   4.564  17.091  1.9344  1.5860  0.4846
  922TIP3   OH224180   5.491   3.869  10.334 -0.0691 -0.2449  0.1333
  922TIP3    H124181   5.568   3.924  10.326 -0.4477  0.1252 -1.4332
  922TIP3    H224182   5.526   3.781  10.350  0.5956  0.1829  1.0807
  923TIP3   OH224183   1.874   5.562   0.376  0.3094  0.5124  0.5597
  923TIP3    H124184   1.780   5.555   0.357  0.1380  0.0427  1.5558
  923TIP3    H224185   1.902   5.472   0.391  1.0474  0.5925 -0.2808
  924TIP3   OH224186   6.504   5.461   0.861 -0.6766 -0.0977  0.3693
  924TIP3    H124187   6.429   5.482   0.806 -0.1306 -0.4654 -0.5401
  924TIP3    H224188   6.578   5.461   0.801 -0.4352 -3.3494  0.5226
  925TIP3   OH224189   6.395   2.480   0.654 -0.0972 -0.0033 -0.4311
  925TIP3    H124190   6.408   2.401   0.707 -3.3615 -0.0288  0.5311
  925TIP3    H224191   6.380   2.447   0.566  1.0599 -0.2483 -0.5521
  926TIP3   OH224192   6.403   0.607  11.670 -0.5632 -0.3236  0.5443
  926TIP3    H124193   6.481   0.653  11.640 -2.4806  2.6194 -0.3866
  926TIP3    H224194   6.409   0.520  11.631  1.0125  0.6767 -1.6357
  927TIP3   OH224195   5.749   5.880   1.851  0.7712  0.3643  0.3852
  927TIP3    H124196   5.832   5.926   1.841  0.0817  1.6889  0.6028
  927TIP3    H224197   5.761   5.799   1.802  1.7470  1.1217 -0.6744
  928TIP3   OH224198   0.142   5.791   4.811  0.0704 -0.0908  0.3927
  928TIP3    H124199   0.057   5.835   4.812 -0.8629 -1.8076  1.2442
  928TIP3    H224200   0.161   5.772   4.903  0.4292 -1.4225  0.0750
  929TIP3   OH224201   6.315   0.410  12.653  0.0258  0.6511  0.0091
  929TIP3    H124202   6.335   0.476  12.586  1.1613  0.6885  0.3523
  929TIP3    H224203   6.373   0.433  12.727  0.0032 -0.3683  0.3616
  930TIP3   OH224204   6.191   0.975  16.286  0.5753  0.6514  0.0991
  930TIP3    H124205   6.163   0.936  16.204  1.7980  2.0768 -1.0492
  930TIP3    H224206   6.277   0.937  16.303 -0.6674 -1.5495  2.1156
  931TIP3   OH224207   2.625   2.902   1.294 -0.0060 -0.4192  0.0873
  931TIP3    H124208   2.628   2.960   1.370 -0.5023  0.4673 -0.5659
  931TIP3    H224209   2.540   2.917   1.254  0.6894 -0.0001 -1.3176
  932TIP3   OH224210   2.786   5.996   6.309 -0.1788 -0.2624 -0.2983
  932TIP3    H124211   2.697   5.968   6.330  1.2181 -4.6597  0.8795
  932TIP3    H224212   2.808   5.948   6.229  1.1291  0.8022 -0.6073
  933TIP3   OH224213   0.568   5.732   0.986  0.6442 -0.2250  0.5646
  933TIP3    H124214   0.661   5.728   0.963  0.0442 -0.6574 -2.1234
  933TIP3    H224215   0.555   5.660   1.047  2.2073  0.3844  1.6769
  934TIP3   OH224216   3.745   3.550  11.824  0.1762 -0.0620 -0.2701
  934TIP3    H124217   3.674   3.607  11.794 -0.1436  0.5588  1.5367
  934TIP3    H224218   3.822   3.607  11.824  0.0996  0.0552  0.3723
  935TIP3   OH224219   4.635   3.836  14.667  0.3408  0.0405  0.7362
  935TIP3    H124220   4.629   3.742  14.689 -2.1190 -0.0895 -0.2324
  935TIP3    H224221   4.671   3.838  14.579 -0.8153 -0.0906  0.2477
  936TIP3   OH224222   2.793   2.292   4.359 -0.0058 -0.1981  0.1921
  936TIP3    H124223   2.883   2.290   4.392 -0.2276  0.6228  0.8750
  936TIP3    H224224   2.773   2.386   4.351  0.6005 -0.2345 -3.8819
  937TIP3   OH224225   2.463   1.108   0.515  0.2432 -0.2085  0.7294
  937TIP3    H124226   2.530   1.048   0.482  0.2512 -0.7714  1.7415
  937TIP3    H224227   2.511   1.190   0.531  0.8996 -0.8613  2.2631
  938TIP3   OH224228   4.272   2.981  14.544 -0.5763  0.6874  0.4048
  938TIP3    H124229   4.195   2.925  14.555 -1.4868  1.6780 -0.6076
  938TIP3    H224230   4.314   2.948  14.464 -0.4568  0.7037  0.4621
  939TIP3   OH224231   4.725   4.953  14.889 -0.5771  0.3542 -0.2445
  939TIP3    H124232   4.689   4.977  14.975 -1.5599  0.5411 -0.6975
  939TIP3    H224233   4.654   4.970  14.827  0.3865  1.0014 -1.2108
  940TIP3   OH224234   6.417   5.747   5.573  0.0339 -0.0194  0.0744
  940TIP3    H124235   6.419   5.656   5.602 -0.7307  0.2762  1.0931
  940TIP3    H224236   6.505   5.779   5.591  0.5162 -0.7248 -0.9108
  941TIP3   OH224237   3.883   3.760   3.786 -0.2994 -0.6130 -0.2138
  941TIP3    H124238   3.832   3.783   3.863  0.2613  0.4468 -0.1291
  941TIP3    H224239   3.932   3.682   3.811  0.5835  0.2559  0.8410
  942TIP3   OH224240   1.614   0.049   3.153  0.1476 -0.4338 -0.3435
  942TIP3    H124241   1.674   0.061   3.227  0.2371 -1.6324 -0.2034
  942TIP3    H224242   1.594  -0.045   3.153  0.8156 -0.6234 -2.3401
  943TIP3   OH224243   3.571   0.249  15.850 -0.1283 -0.7670  0.5471
  943TIP3    H124244   3.630   0.234  15.776 -0.6003  0.4939 -0.1146
  943TIP3    H224245   3.588   0.340  15.876 -0.1435 -1.1128  1.8560
  944TIP3   OH224246   3.611   5.614  11.121 -0.0080 -0.2971  0.0077
  944TIP3    H124247   3.596   5.689  11.178 -2.2459  0.2561 -1.2092
  944TIP3    H224248   3.668   5.646  11.052 -0.2702  0.0552 -0.0463
  945TIP3   OH224249   5.985   3.598   1.007  0.1067 -0.2539 -0.3395
  945TIP3    H124250   5.935   3.548   1.071 -2.3837  1.5828 -0.7093
  945TIP3    H224251   6.063   3.627   1.054 -0.9510 -0.1563  1.4224
  946TIP3   OH224252   6.270   0.862   1.944  0.0045  0.1123  0.8116
  946TIP3    H124253   6.286   0.873   2.038  0.1269 -0.7488  0.9034
  946TIP3    H224254   6.179   0.887   1.932 -0.1871 -0.3425  1.2719
  947TIP3   OH224255   5.504   2.669  16.363 -0.1581  0.4717 -0.2715
  947TIP3    H124256   5.568   2.671  16.293 -0.7802  0.9264 -0.8447
  947TIP3    H224257   5.440   2.603  16.336  0.0091  0.0861  0.2486
  948TIP3   OH224258   2.023   5.600   0.769  0.4498  0.3764  0.0391
  948TIP3    H124259   2.079   5.546   0.825  1.6128  1.9782  0.4875
  948TIP3    H224260   2.082   5.665   0.732 -1.2412  2.7767  1.2910
  949TIP3   OH224261   0.070   3.641   4.846  0.9499  0.9182  0.3897
  949TIP3    H124262   0.077   3.558   4.893 -1.7477  0.4785  0.1531
  949TIP3    H224263   0.125   3.630   4.769 -0.4985 -1.2848 -0.4209
  950TIP3   OH224264   6.789   2.928  16.293 -0.2677 -0.1132 -0.3006
  950TIP3    H124265   6.703   2.893  16.268 -0.3998  0.9398 -1.4504
  950TIP3    H224266   6.779   3.023  16.283  0.5420  0.1693  1.1849
  951TIP3   OH224267   3.445   2.033  11.574 -0.0696 -0.2371  0.3457
  951TIP3    H124268   3.466   2.082  11.494 -2.3168 -0.6878 -0.5939
  951TIP3    H224269   3.523   1.979  11.590 -0.4056 -1.9779 -3.0005
  952TIP3   OH224270   1.441   2.760  16.943 -0.1425  0.4056 -0.1605
  952TIP3    H124271   1.405   2.713  16.867  0.5670  1.6146 -1.2880
  952TIP3    H224272   1.520   2.711  16.965 -0.5056 -0.1210 -0.0250
  953TIP3   OH224273   0.966   2.507   0.357  0.0699 -0.4341 -0.1493
  953TIP3    H124274   1.058   2.531   0.369  0.2308 -0.4271 -1.3082
  953TIP3    H224275   0.953   2.431   0.413  0.4876  0.2193  0.8568
  954TIP3   OH224276   1.162   5.031  13.738 -0.3462 -0.3402  0.2185
  954TIP3    H124277   1.152   4.946  13.780 -0.1953 -1.1778 -1.3435
  954TIP3    H224278   1.172   5.011  13.645  1.7696  1.2487  0.0109
  955TIP3   OH224279   2.309   5.469   6.084 -1.0460 -0.1048  0.3658
  955TIP3    H124280   2.225   5.511   6.102 -0.1373  1.7655  0.4919
  955TIP3    H224281   2.369   5.542   6.067  0.8439 -1.3169  1.4936
  956TIP3   OH224282   3.620   3.685  12.750  0.5372 -0.0162  0.4644
  956TIP3    H124283   3.588   3.771  12.778 -3.3855 -1.0326 -0.3696
  956TIP3    H224284   3.652   3.699  12.661 -0.1825  0.5916  0.2878
  957TIP3   OH224285   1.454   2.796   3.579 -0.5158  0.5010 -0.4327
  957TIP3    H124286   1.497   2.804   3.495  0.2194 -1.7244 -0.3420
  957TIP3    H224287   1.372   2.749   3.560  0.3089 -1.3066  0.1862
  958TIP3   OH224288   0.563   0.501  15.509  0.0767  0.4089  0.4181
  958TIP3    H124289   0.583   0.525  15.418 -0.4565  1.1201  0.4764
  958TIP3    H224290   0.493   0.436  15.502  0.1152  0.3784  0.3169
  959TIP3   OH224291   0.263   5.109   4.181 -0.6497  0.0055  0.3030
  959TIP3    H124292   0.304   5.185   4.141 -0.3245 -0.0928  0.4472
  959TIP3    H224293   0.313   5.034   4.148 -0.3165 -0.0724  0.9569
  960TIP3   OH224294   5.220   5.118   2.822  0.2300 -0.1488  0.5719
  960TIP3    H124295   5.280   5.185   2.855  0.2040 -0.1044  0.5304
  960TIP3    H224296   5.146   5.167   2.786 -0.2485 -0.2384  1.4203
  961TIP3   OH224297   3.936   3.365  16.959  0.1759 -0.1961  0.0776
  961TIP3    H124298   3.930   3.429  16.888  3.0598  0.7629  0.5638
  961TIP3    H224299   3.939   3.418  17.039  1.5804 -0.9320  0.5545
  962TIP3   OH224300   0.020   0.123  13.886  0.0677 -0.3684  0.9938
  962TIP3    H124301   0.028   0.097  13.794  1.1946 -3.6552  1.8831
  962TIP3    H224302  -0.065   0.088  13.913 -1.2257  2.3607  0.8257
  963TIP3   OH224303   5.778   6.675   5.094  0.2575 -0.3641 -0.0124
  963TIP3    H124304   5.865   6.717   5.100  0.1906 -0.2683  0.3323
  963TIP3    H224305   5.749   6.668   5.185 -0.2319 -0.1104 -0.1423
  964TIP3   OH224306   2.463   3.181  14.019  0.4256  0.4144 -0.5521
  964TIP3    H124307   2.377   3.214  13.994 -0.9169  0.2112  3.1645
  964TIP3    H224308   2.501   3.252  14.072  1.1705 -0.6858  0.4271
  965TIP3   OH224309   2.063   2.728   0.016  0.0203  0.1623 -0.7571
  965TIP3    H124310   2.075   2.663   0.086 -0.9479  2.2718  1.5228
  965TIP3    H224311   1.977   2.708  -0.021 -0.1545 -0.0267 -0.2552
  966TIP3   OH224312   2.528   4.662   4.467  0.8448 -0.5337  0.0983
  966TIP3    H124313   2.585   4.632   4.396  1.3382 -1.9183  1.0318
  966TIP3    H224314   2.588   4.700   4.532  0.4308  0.4416 -0.0736
  967TIP3   OH224315   1.777   5.557   3.142  0.6331  0.1114 -0.5172
  967TIP3    H124316   1.807   5.548   3.051  1.6169  0.0499 -0.1963
  967TIP3    H224317   1.683   5.540   3.138  0.2130  2.2825 -1.8907
  968TIP3   OH224318   0.295   4.360  14.807 -0.7854 -0.7178  0.2066
  968TIP3    H124319   0.375   4.325  14.769 -0.8227 -0.0657 -0.4916
  968TIP3    H224320   0.317   4.451  14.830 -2.2949  0.7286 -3.3539
  969TIP3   OH224321   5.911   4.728  16.132 -0.3265  0.5750  0.2452
  969TIP3    H124322   5.911   4.637  16.103 -0.3687  0.9691 -1.0908
  969TIP3    H224323   5.919   4.724  16.227 -0.6084 -0.8210  0.2227
  970TIP3   OH224324   0.338   4.385  12.240  0.8033  0.6913  0.1963
  970TIP3    H124325   0.403   4.346  12.182  0.5044  1.1555 -0.4677
  970TIP3    H224326   0.288   4.311  12.274  0.9712  0.4146 -0.1531
  971TIP3   OH224327   1.826   6.020  15.376 -0.2867 -0.2437  0.0036
  971TIP3    H124328   1.880   6.043  15.451 -0.5879  1.4174 -0.2454
  971TIP3    H224329   1.850   5.930  15.355  0.8482 -0.2375  1.1804
  972TIP3   OH224330   4.995   5.866  11.806 -0.0482 -0.6555 -0.0322
  972TIP3    H124331   5.040   5.948  11.784 -0.2886 -0.4214  0.3410
  972TIP3    H224332   4.947   5.886  11.886  0.3442 -1.3307  0.3742
  973TIP3   OH224333   6.428   4.723   0.223 -0.0113 -0.0596  0.3060
  973TIP3    H124334   6.440   4.689   0.134  0.6312  0.3796  0.2226
  973TIP3    H224335   6.486   4.670   0.277  1.2595  1.0871  0.1255
  974TIP3   OH224336   5.742   4.839  15.951  0.1394 -0.2631  0.2150
  974TIP3    H124337   5.795   4.832  16.031  0.1904  0.4881  0.2572
  974TIP3    H224338   5.744   4.751  15.913  0.1090 -0.6337  1.0451
  975TIP3   OH224339   0.894   5.391  15.894  0.1947  0.3865 -0.0068
  975TIP3    H124340   0.874   5.371  15.985  2.0193  1.6280  0.7233
  975TIP3    H224341   0.827   5.455  15.868 -1.7133 -1.6174 -0.3341
  976TIP3   OH224342   1.549   2.975   1.940  0.1186  0.6379 -0.1907
  976TIP3    H124343   1.531   3.062   1.905  0.9141  1.0750  0.4426
  976TIP3    H224344   1.548   2.917   1.864 -0.9723  1.1017 -0.5492
  977TIP3   OH224345   3.262   6.445   4.718 -0.4959 -0.1125  0.2384
  977TIP3    H124346   3.305   6.393   4.786  1.4883 -1.1311 -1.6644
  977TIP3    H224347   3.169   6.435   4.736 -0.2074 -3.6378  0.5424
  978TIP3   OH224348   0.881   3.976  16.181  0.9322 -0.0949  0.1300
  978TIP3    H124349   0.936   3.904  16.210  1.9204  0.2944 -0.7262
  978TIP3    H224350   0.828   3.939  16.109  1.8870  0.1771 -0.7312
  979TIP3   OH224351   5.263   0.267  12.083 -0.3105 -0.5036  0.1312
  979TIP3    H124352   5.327   0.208  12.124  0.7925  2.3682  3.0405
  979TIP3    H224353   5.191   0.272  12.146 -0.7624  0.5385 -0.4366
  980TIP3   OH224354   2.302   0.149  10.918  0.3764 -0.0059 -0.1747
  980TIP3    H124355   2.208   0.151  10.898  0.1360  1.4187  0.9110
  980TIP3    H224356   2.313   0.071  10.973 -0.5559  0.8002  1.2401
  981TIP3   OH224357   3.276   5.797  16.536 -0.1114  0.4365 -0.1607
  981TIP3    H124358   3.230   5.726  16.490 -0.3311  0.0083  0.7003
  981TIP3    H224359   3.369   5.773  16.530 -0.2823 -0.8489  1.5779
  982TIP3   OH224360   6.651   3.536  17.080 -0.1394  0.4354 -0.2658
  982TIP3    H124361   6.589   3.490  17.024  1.5026  0.2340 -2.0532
  982TIP3    H224362   6.597   3.591  17.136 -1.9649 -0.7874 -0.7376
  983TIP3   OH224363   3.298   4.752   4.096 -0.3995  0.6277  0.1422
  983TIP3    H124364   3.223   4.726   4.150  0.8267 -0.2869  1.4920
  983TIP3    H224365   3.356   4.797   4.158  0.5455  0.5509 -0.6762
  984TIP3   OH224366   2.049   1.725  15.714 -0.5750  0.1814  0.1990
  984TIP3    H124367   2.136   1.706  15.749 -0.8407  1.9289  2.0338
  984TIP3    H224368   2.005   1.640  15.710  1.8562 -1.1458 -3.0222
  985TIP3   OH224369   1.918   0.733  16.789 -0.2968 -0.5025  0.1856
  985TIP3    H124370   2.004   0.744  16.829  0.2908 -0.9244 -0.8962
  985TIP3    H224371   1.930   0.763  16.698 -1.3881 -0.2323  0.1131
  986TIP3   OH224372   4.585   6.003  12.902  0.4219  0.3134 -0.3430
  986TIP3    H124373   4.542   5.997  12.988 -0.5175  0.6028 -0.7730
  986TIP3    H224374   4.629   5.919  12.892 -1.9609 -0.9726 -0.8441
  987TIP3   OH224375   6.054   6.626   0.688  0.2788 -0.1275  0.1214
  987TIP3    H124376   6.057   6.535   0.656  0.9257 -0.2331  0.4772
  987TIP3    H224377   5.997   6.671   0.625  0.8530 -0.5280 -0.7068
  988TIP3   OH224378   3.704   3.334   1.404 -0.0985  0.0448 -0.0482
  988TIP3    H124379   3.800   3.326   1.399  0.3081  2.7301  1.5597
  988TIP3    H224380   3.685   3.335   1.498 -1.4784  1.3956 -0.3053
  989TIP3   OH224381   5.951   2.626  16.416 -0.0264  0.2783 -0.2719
  989TIP3    H124382   5.948   2.581  16.500 -1.1522  0.0117 -0.4370
  989TIP3    H224383   5.945   2.557  16.351  2.4485  0.3335 -0.6563
  990TIP3   OH224384   6.259   5.716  16.719  0.5882  0.1085  0.5826
  990TIP3    H124385   6.302   5.800  16.705  0.0408  0.1239 -1.3944
  990TIP3    H224386   6.240   5.684  16.630 -2.9734 -0.1084  1.2583
  991TIP3   OH224387   6.429   4.764  12.411  0.1075  0.0547 -0.0494
  991TIP3    H124388   6.339   4.767  12.378 -0.6480  0.6256  1.9223
  991TIP3    H224389   6.429   4.690  12.472  1.1404 -0.2902 -0.4549
  992TIP3   OH224390   3.664   0.352  13.397  1.0606 -0.3600 -0.1460
  992TIP3    H124391   3.609   0.274  13.398  0.0497  0.2565 -2.3428
  992TIP3    H224392   3.749   0.320  13.366  1.3824 -0.9518  1.2577
  993TIP3   OH224393   0.123   4.229  13.760  0.1810 -0.4221  0.9367
  993TIP3    H124394   0.055   4.263  13.817  1.1024  1.5799  0.9410
  993TIP3    H224395   0.079   4.214  13.676 -0.2446  1.0965  0.8628
  994TIP3   OH224396   0.381   6.680   2.931  0.3277  0.2939  0.5133
  994TIP3    H124397   0.436   6.698   3.007  1.3506  0.4424 -0.2545
  994TIP3    H224398   0.401   6.750   2.869  1.3544 -1.1699 -0.8954
  995TIP3   OH224399   2.466   5.944  12.142  0.3204  0.0479  0.5137
  995TIP3    H124400   2.522   5.870  12.165  1.6635  0.7000 -0.4725
  995TIP3    H224401   2.506   6.019  12.186  0.0854  0.4882 -0.0060
  996TIP3   OH224402   3.507   0.094   3.278 -0.1497  0.2388  0.8445
  996TIP3    H124403   3.508   0.169   3.219  1.1356  0.4178  1.0677
  996TIP3    H224404   3.437   0.114   3.341 -1.7312 -0.0859 -0.7260
  997TIP3   OH224405   1.313   1.991  15.397 -0.7668 -0.2431  0.8822
  997TIP3    H124406   1.405   1.966  15.395 -0.2460  1.2641  2.9690
  997TIP3    H224407   1.267   1.911  15.422 -0.0018 -0.9270  0.1431
  998TIP3   OH224408   4.238   0.977  16.069  0.0759  0.5685 -0.1652
  998TIP3    H124409   4.191   0.918  16.127 -1.3112  1.8829  0.1045
  998TIP3    H224410   4.307   1.014  16.125 -0.6656  1.1205  0.4131
  999TIP3   OH224411   5.677   4.427   5.264 -0.3064 -0.6109 -0.5581
  999TIP3    H124412   5.588   4.394   5.275 -0.8287  0.7952 -0.3785
  999TIP3    H224413   5.730   4.373   5.323 -1.6170  0.8345  2.1690
 1000TIP3   OH224414   6.592   3.008  15.792  0.1712  0.2916  0.3598
 1000TIP3    H124415   6.586   2.921  15.831  0.6271  1.3324  2.9797
 1000TIP3    H224416   6.501   3.031  15.772 -0.1646 -0.0557  1.4199
 1001TIP3   OH224417   0.953   5.039  15.443  0.4482 -0.0678 -0.1088
 1001TIP3    H124418   0.996   5.003  15.520 -0.2961 -0.4771  0.1286
 1001TIP3    H224419   0.979   5.131  15.442  3.2898 -0.7758 -1.3507
 1002TIP3   OH224420   6.681   0.043  12.850  0.3963 -0.0509 -0.1056
 1002TIP3    H124421   6.586   0.033  12.851  0.2635  1.1156  0.6147
 1002TIP3    H224422   6.703   0.055  12.758 -0.2138  0.1317 -0.2326
 1003TIP3   OH224423   0.514   6.617   0.981 -0.7046 -0.5583 -0.1123
 1003TIP3    H124424   0.506   6.690   1.043  1.0612 -0.4496  0.0540
 1003TIP3    H224425   0.499   6.658   0.895 -3.8244 -0.8342  0.1869
 1004TIP3   OH224426   3.523   1.971  16.057  0.1386  0.0436 -0.2499
 1004TIP3    H124427   3.437   1.945  16.024  0.3038  0.8161 -1.3163
 1004TIP3    H224428   3.519   1.950  16.150 -0.0959 -2.8452 -0.8141
 1005TIP3   OH224429   0.487   2.030  15.776 -0.2931  0.0118  0.3211
 1005TIP3    H124430   0.512   1.938  15.789  0.1530  0.4462  3.2511
 1005TIP3    H224431   0.414   2.044  15.836 -0.1615  1.6202  0.1491
 1006TIP3   OH224432   1.637   3.804  13.095  0.2475  0.1579 -0.2991
 1006TIP3    H124433   1.650   3.891  13.133 -0.7857  0.3845 -0.4469
 1006TIP3    H224434   1.609   3.749  13.168  0.5098  0.0430 -0.2850
 1007TIP3   OH224435   0.755   5.290   0.232  0.0135 -0.9044  0.1198
 1007TIP3    H124436   0.746   5.210   0.180  1.6674 -0.9611 -0.1149
 1007TIP3    H224437   0.696   5.352   0.189 -1.4745 -2.0294  0.4473
 1008TIP3   OH224438   0.774   0.012  15.939 -0.1524  0.1802 -0.3436
 1008TIP3    H124439   0.726  -0.068  15.959 -2.0998  1.1689 -0.8199
 1008TIP3    H224440   0.798   0.003  15.846 -0.3347  0.1414 -0.3862
 1009TIP3   OH224441   6.548   1.881  12.151 -0.4748  0.6475  0.4565
 1009TIP3    H124442   6.525   1.974  12.151 -1.1961  0.4790  1.0652
 1009TIP3    H224443   6.582   1.864  12.239  1.1953  0.6815 -0.1437
 1010TIP3   OH224444   3.911   6.366   5.740 -0.3809  0.5001  0.4158
 1010TIP3    H124445   3.856   6.300   5.698 -0.3735 -0.0139  1.1830
 1010TIP3    H224446   3.906   6.345   5.834  1.0160  0.5220  0.5141
 1011TIP3   OH224447   1.095   1.779   3.703  0.3090  0.2477  0.0947
 1011TIP3    H124448   1.009   1.740   3.690  0.4885 -0.3974  0.7795
 1011TIP3    H224449   1.094   1.812   3.793  1.6936 -2.2474  1.1269
 1012TIP3   OH224450   2.514   3.501   0.319 -0.1814  0.5108 -0.0658
 1012TIP3    H124451   2.513   3.427   0.379  0.8976  0.3366 -0.2415
 1012TIP3    H224452   2.543   3.575   0.372 -0.6317  0.6686 -0.0391
 1013TIP3   OH224453   2.835   3.430   2.835  0.3090  0.1834 -0.2893
 1013TIP3    H124454   2.897   3.428   2.907 -0.0470 -1.8936  0.0259
 1013TIP3    H224455   2.824   3.338   2.809  0.0578  0.8104 -2.6873
 1014TIP3   OH224456   0.044   6.029  11.408 -0.1707  0.2710 -0.2117
 1014TIP3    H124457   0.018   6.095  11.343 -0.2839 -0.4836 -0.9453
 1014TIP3    H224458   0.139   6.035  11.410 -0.0401 -0.7754 -1.6343
 1015TIP3   OH224459   0.878   2.004   0.996  0.0714  0.3384  0.2609
 1015TIP3    H124460   0.812   2.038   1.057  0.0698 -0.5707  0.7910
 1015TIP3    H224461   0.936   1.952   1.051  1.0773  0.9024 -0.2535
 1016TIP3   OH224462   4.118   0.246   6.171  0.2817  0.4478  0.0999
 1016TIP3    H124463   4.050   0.283   6.228 -0.6624  0.4721 -1.0163
 1016TIP3    H224464   4.161   0.322   6.132 -0.6765  0.4246 -1.0527
 1017TIP3   OH224465   6.421   3.078  11.730  0.4998 -0.1108  0.2489
 1017TIP3    H124466   6.418   3.158  11.784  0.1721 -0.6140  1.0065
 1017TIP3    H224467   6.424   3.007  11.794  0.2591 -0.7243 -0.4093
 1018TIP3   OH224468   6.730   3.651  14.647 -0.2746 -0.0239  0.1045
 1018TIP3    H124469   6.700   3.660  14.557  1.5139 -2.2726 -0.8203
 1018TIP3    H224470   6.824   3.632  14.639 -0.2148 -1.0649  2.3799
 1019TIP3   OH224471   1.741   4.579   0.581 -0.4206 -0.1623 -0.0231
 1019TIP3    H124472   1.817   4.577   0.523 -0.8358  2.0814 -0.7658
 1019TIP3    H224473   1.766   4.639   0.652 -1.0470 -0.3879  0.3996
 1020TIP3   OH224474   2.970   2.284   3.265 -0.0483 -0.0706 -0.1427
 1020TIP3    H124475   3.024   2.353   3.226 -1.0757  0.2094 -1.1069
 1020TIP3    H224476   2.885   2.292   3.222 -0.7624 -0.7487  1.0717
 1021TIP3   OH224477   2.431   1.442   1.164  0.6244 -0.2891  0.0549
 1021TIP3    H124478   2.390   1.508   1.108  2.4097  0.6911 -0.1898
 1021TIP3    H224479   2.473   1.492   1.234  0.2988 -1.3418  1.0363
 1022TIP3   OH224480   1.969   3.550   5.357  0.5425  0.2665  0.3584
 1022TIP3    H124481   1.987   3.537   5.450  0.8346 -0.6918  0.1806
 1022TIP3    H224482   1.944   3.464   5.325  0.7098  0.5313 -0.5154
 1023TIP3   OH224483   0.053   3.311   4.499  0.3436  0.9137 -0.0695
 1023TIP3    H124484   0.125   3.275   4.446  0.3931  0.3495  0.3592
 1023TIP3    H224485   0.063   3.267   4.584  1.6816  3.4802  1.2123
 1024TIP3   OH224486   4.653   1.162  15.958 -0.7595  0.3586 -0.2245
 1024TIP3    H124487   4.611   1.242  15.927 -1.0986  0.0220 -0.6473
 1024TIP3    H224488   4.746   1.183  15.959 -0.8989  0.9927  0.3687
 1025TIP3   OH224489   5.798   1.681   1.358 -0.1217  0.1896  0.6720
 1025TIP3    H124490   5.793   1.726   1.443  3.6386  0.8159  0.7197
 1025TIP3    H224491   5.869   1.725   1.311  0.5950 -2.6664 -1.1938
 1026TIP3   OH224492   4.586   5.499  14.768  0.0338  0.2607  0.4396
 1026TIP3    H124493   4.611   5.591  14.773  0.4968  0.1374  0.4360
 1026TIP3    H224494   4.595   5.477  14.675  0.9507 -0.0655  0.5943
 1027TIP3   OH224495   1.555   2.984   5.876 -0.1847 -0.4919  0.7260
 1027TIP3    H124496   1.642   2.976   5.836  1.1894  1.6614  3.0276
 1027TIP3    H224497   1.554   2.916   5.944 -0.2774 -0.4605  0.7548
 1028TIP3   OH224498   3.232   2.920  15.863 -0.6529 -0.0569  0.3548
 1028TIP3    H124499   3.269   2.881  15.942 -0.6117  0.6818  0.7113
 1028TIP3    H224500   3.264   3.011  15.864  0.2092 -0.3169 -1.0658
 1029TIP3   OH224501   4.202   2.944  12.896  0.3023  0.3772 -0.2761
 1029TIP3    H124502   4.242   2.860  12.920  1.5856  1.0678  0.1015
 1029TIP3    H224503   4.185   2.936  12.802  0.2895 -0.3497 -0.2165
 1030TIP3   OH224504   3.771   5.433   4.619  0.1910 -0.0213 -0.3167
 1030TIP3    H124505   3.824   5.513   4.619  2.1057 -1.2326 -1.4796
 1030TIP3    H224506   3.784   5.395   4.532 -3.0217 -0.1656 -0.8693
 1031TIP3   OH224507   4.793   2.868  10.491 -0.2660  0.0177  0.2093
 1031TIP3    H124508   4.879   2.829  10.477 -0.3097 -0.1356  0.3577
 1031TIP3    H224509   4.739   2.795  10.521 -0.5221  0.0479 -0.1685
 1032TIP3   OH224510   5.019   5.512  14.232  0.1637  0.1146 -0.4958
 1032TIP3    H124511   5.087   5.446  14.244 -0.5382 -0.4035  0.8928
 1032TIP3    H224512   4.936   5.464  14.240 -0.3656  1.2178  1.2124
 1033TIP3   OH224513   3.981   3.511   0.329 -0.1729  0.3823 -0.4259
 1033TIP3    H124514   3.954   3.460   0.405  1.5569 -0.4491 -0.3164
 1033TIP3    H224515   3.924   3.588   0.330 -2.8435 -1.4617 -0.5656
 1034TIP3   OH224516   0.799   6.738   1.064 -0.2714 -0.5686 -0.7641
 1034TIP3    H124517   0.870   6.699   1.012 -1.1051  0.4120 -2.7533
 1034TIP3    H224518   0.748   6.788   1.000 -1.4683  0.5763  1.0180
 1035TIP3   OH224519   6.623   6.019  13.034 -0.2084  0.0065  0.1744
 1035TIP3    H124520   6.547   6.062  12.992 -0.1081  0.0592  0.0459
 1035TIP3    H224521   6.689   6.088  13.039 -0.9533  0.6531  2.4254
 1036TIP3   OH224522   5.891   2.200   3.496 -0.1775  0.4176 -0.5503
 1036TIP3    H124523   5.891   2.229   3.587 -0.7695 -0.3656 -0.2992
 1036TIP3    H224524   5.945   2.266   3.451 -0.3166  1.1083  0.2596
 1037TIP3   OH224525   2.695   2.536   1.530  0.2462  0.5176  0.1224
 1037TIP3    H124526   2.744   2.574   1.602  0.8689 -1.5197  0.8355
 1037TIP3    H224527   2.661   2.453   1.565  0.2537 -0.3441 -1.8015
 1038TIP3   OH224528   6.602   2.513  14.155  0.2208  0.4670 -1.0281
 1038TIP3    H124529   6.547   2.587  14.180  0.9330  0.7681 -0.3117
 1038TIP3    H224530   6.553   2.469  14.086  0.3223  2.2829 -2.3318
 1039TIP3   OH224531   3.197   5.645   2.685 -0.4717 -0.6430  0.0893
 1039TIP3    H124532   3.187   5.612   2.595 -1.5011 -0.8626  0.2778
 1039TIP3    H224533   3.166   5.574   2.740 -1.6957  0.2175  0.5428
 1040TIP3   OH224534   0.723   2.178   0.339 -0.0123  0.4845 -0.6172
 1040TIP3    H124535   0.775   2.103   0.370 -1.6953 -0.7937 -0.7679
 1040TIP3    H224536   0.755   2.194   0.250 -1.2309 -1.6625 -1.5151
 1041TIP3   OH224537   4.700   5.151   4.975 -0.0901  0.6244  0.4119
 1041TIP3    H124538   4.698   5.242   4.943 -1.8368  0.2141 -0.8008
 1041TIP3    H224539   4.791   5.137   5.000 -0.0623  3.2055  2.1831
 1042TIP3   OH224540   3.845   6.616   5.639 -0.6611  0.2035 -0.1401
 1042TIP3    H124541   3.882   6.681   5.698 -1.2596 -1.7006  2.5220
 1042TIP3    H224542   3.874   6.532   5.674 -2.0241 -1.0824 -1.8872
 1043TIP3   OH224543   4.696   2.078   5.518 -0.0928  0.2367  0.0377
 1043TIP3    H124544   4.681   1.997   5.566  0.4570  0.6632  0.9536
 1043TIP3    H224545   4.701   2.145   5.586  1.1890  0.7831 -0.5749
 1044TIP3   OH224546   3.531   4.300  15.107  0.0811 -0.5268 -0.0105
 1044TIP3    H124547   3.610   4.250  15.090 -0.3297 -0.8411 -1.0539
 1044TIP3    H224548   3.468   4.236  15.139 -0.2673 -0.5978 -0.8057
 1045TIP3   OH224549   4.168   5.618  12.590 -0.7605 -0.4007 -0.6090
 1045TIP3    H124550   4.149   5.565  12.667 -2.3993 -0.0791 -0.7499
 1045TIP3    H224551   4.137   5.706  12.613  0.5684  0.1761 -0.9148
 1046TIP3   OH224552   4.543   2.567  11.689 -0.0543  0.2946  0.0822
 1046TIP3    H124553   4.463   2.517  11.678  0.4795 -0.5360 -0.1289
 1046TIP3    H224554   4.608   2.504  11.719  0.4075  1.0501  0.7342
 1047TIP3   OH224555   5.081   0.068   3.468 -0.2421 -0.1193 -0.2866
 1047TIP3    H124556   5.050   0.159   3.470 -1.9305 -0.6416  1.6716
 1047TIP3    H224557   5.030   0.027   3.399  0.6556  0.4209 -1.3046
 1048TIP3   OH224558   6.536   0.553  13.644  0.2173  0.0100  0.9728
 1048TIP3    H124559   6.543   0.486  13.712 -0.6474 -0.0832  0.9850
 1048TIP3    H224560   6.597   0.525  13.576  0.2446 -0.5148  1.2097
 1049TIP3   OH224561   0.694   1.419  14.260 -0.3764  0.1042  0.3042
 1049TIP3    H124562   0.656   1.500  14.294  0.7499  1.7331 -2.0527
 1049TIP3    H224563   0.755   1.391  14.329 -1.9057  0.3177  1.8286
 1050TIP3   OH224564   1.526   4.782  11.012 -0.2367 -0.2443  0.2187
 1050TIP3    H124565   1.503   4.870  11.041 -1.3102  0.0349 -1.3856
 1050TIP3    H224566   1.464   4.762  10.942 -2.0306 -3.4707  2.4388
 1051TIP3   OH224567   5.349   6.094   3.219 -0.1381 -0.7295 -0.0347
 1051TIP3    H124568   5.405   6.065   3.291  2.5733 -0.6880 -1.9832
 1051TIP3    H224569   5.355   6.025   3.154  1.0819  1.1187 -2.0216
 1052TIP3   OH224570   0.979   5.954   4.514 -0.1942  0.5233  0.5975
 1052TIP3    H124571   1.051   5.909   4.470 -0.2424  1.4266 -0.4273
 1052TIP3    H224572   0.970   5.907   4.597  1.3340  0.1571  0.5981
 1053TIP3   OH224573   0.587   4.698  12.835  0.2731  0.1090 -0.1236
 1053TIP3    H124574   0.624   4.645  12.764 -0.4028 -1.4478  0.6224
 1053TIP3    H224575   0.521   4.753  12.793  0.1673 -0.5060 -0.7777
 1054TIP3   OH224576   0.600   0.329  16.194  0.0004 -0.3123  0.2304
 1054TIP3    H124577   0.668   0.362  16.135 -1.1163  1.7508 -0.0093
 1054TIP3    H224578   0.534   0.292  16.135 -1.3361  2.1711  0.0399
 1055TIP3   OH224579   6.767   1.247  14.800  0.3619  0.4338  0.4731
 1055TIP3    H124580   6.785   1.339  14.781 -1.6815  1.0069  0.9775
 1055TIP3    H224581   6.733   1.247  14.890  1.0634 -0.9238  0.7656
 1056TIP3   OH224582   0.093   3.551  14.392  0.7353  0.2145  0.1535
 1056TIP3    H124583   0.086   3.546  14.297 -2.9329  2.1790  0.1648
 1056TIP3    H224584   0.129   3.465  14.417 -0.6373 -1.3933 -2.8324
 1057TIP3   OH224585   0.015   0.407  15.520  1.3009 -0.6891 -0.2336
 1057TIP3    H124586   0.026   0.423  15.614 -0.5945  1.2524 -0.2823
 1057TIP3    H224587  -0.055   0.342  15.515  1.1041 -0.4714 -0.3083
 1058TIP3   OH224588   3.537   3.034  15.968 -0.7033 -0.8218  0.1601
 1058TIP3    H124589   3.593   3.108  15.947  0.6440 -1.8525  0.0246
 1058TIP3    H224590   3.456   3.074  16.000  0.2919  0.7016  0.9024
 1059TIP3   OH224591   3.632   6.254   5.089 -0.2103 -0.8992  0.7196
 1059TIP3    H124592   3.629   6.217   5.177 -1.0275  0.3460  1.2552
 1059TIP3    H224593   3.559   6.317   5.087 -1.3800 -2.2101 -1.4683
 1060TIP3   OH224594   1.576   1.273  15.642  0.4254 -0.1788 -0.1352
 1060TIP3    H124595   1.589   1.331  15.567 -2.8716 -0.8198 -1.3840
 1060TIP3    H224596   1.601   1.325  15.718  1.7188  1.2784 -1.5000
 1061TIP3   OH224597   6.555   1.266   3.688 -0.0340 -0.5635 -0.0118
 1061TIP3    H124598   6.597   1.296   3.607 -1.0335  0.0740 -0.3144
 1061TIP3    H224599   6.531   1.346   3.733  1.8243 -0.8705  1.6726
 1062TIP3   OH224600   1.460   2.508  12.445  0.4807  0.1715  0.6221
 1062TIP3    H124601   1.389   2.469  12.393  0.5511 -0.9263  1.3053
 1062TIP3    H224602   1.482   2.589  12.400 -1.1883  0.5100  0.3794
 1063TIP3   OH224603   0.356   1.256  13.835  0.6668 -0.0133  0.0254
 1063TIP3    H124604   0.336   1.202  13.912  0.2656  0.0685 -0.0167
 1063TIP3    H224605   0.391   1.337  13.871  0.0110  0.2255  0.1538
 1064TIP3   OH224606   1.352   2.771  14.625  0.6655 -0.1704 -0.3328
 1064TIP3    H124607   1.339   2.727  14.540 -2.2709 -1.5572  0.7039
 1064TIP3    H224608   1.375   2.700  14.685  1.4296  0.6052  0.3182
 1065TIP3   OH224609   1.862   6.536   4.788  0.0860 -0.3284 -0.1594
 1065TIP3    H124610   1.789   6.473   4.788 -0.4050  0.2219  0.3373
 1065TIP3    H224611   1.832   6.606   4.846 -0.1580  1.2520 -2.1040
 1066TIP3   OH224612   0.530   3.258  15.342 -0.0244  0.6578  0.7024
 1066TIP3    H124613   0.487   3.242  15.426  0.4502 -2.2570  0.5023
 1066TIP3    H224614   0.459   3.261  15.279 -0.2261 -0.2904  0.8582
 1067TIP3   OH224615   4.822   0.678   6.145 -0.0558 -0.0651  0.2103
 1067TIP3    H124616   4.781   0.615   6.203  1.4886 -0.1199  1.3215
 1067TIP3    H224617   4.802   0.763   6.183 -0.7080  0.0161 -0.3131
 1068TIP3   OH224618   2.859   3.195   3.500 -0.3958 -0.2049  0.2297
 1068TIP3    H124619   2.844   3.281   3.541 -0.5421 -0.2326  0.2340
 1068TIP3    H224620   2.791   3.139   3.537 -1.9351  0.2903 -1.6483
 1069TIP3   OH224621   4.035   2.334   3.514 -0.2308  0.3999 -0.1520
 1069TIP3    H124622   4.130   2.330   3.524  0.0849 -0.3114 -2.6300
 1069TIP3    H224623   4.020   2.412   3.461 -0.9669  0.1766 -0.2852
 1070TIP3   OH224624   4.837   4.762  13.851 -0.2882 -0.4255 -0.1138
 1070TIP3    H124625   4.927   4.769  13.881 -0.3571  0.3507 -0.0752
 1070TIP3    H224626   4.801   4.687  13.900  0.1191 -0.2803  0.4065
 1071TIP3   OH224627   5.853   3.502  12.959 -0.0390 -0.0410 -0.1809
 1071TIP3    H124628   5.834   3.474  12.869  0.1201  1.6567 -0.7779
 1071TIP3    H224629   5.768   3.524  12.996 -0.4108 -2.9062  0.9329
 1072TIP3   OH224630   0.748   5.573   3.276  0.5005  0.0902 -0.0581
 1072TIP3    H124631   0.687   5.530   3.337  0.3209  1.1788  0.5415
 1072TIP3    H224632   0.700   5.575   3.193  0.5925 -1.0394 -0.1657
 1073TIP3   OH224633   1.312   6.603  14.447  0.1851 -0.3485  0.1655
 1073TIP3    H124634   1.367   6.577  14.373  1.9135 -2.6502  2.0675
 1073TIP3    H224635   1.255   6.671  14.412  2.3908  0.2509 -2.6803
 1074TIP3   OH224636   3.614   0.835   0.676  0.2449  0.1537  0.5277
 1074TIP3    H124637   3.552   0.906   0.693 -0.7340 -0.5410  0.0090
 1074TIP3    H224638   3.563   0.755   0.689  1.1856 -0.4493  0.6077
 1075TIP3   OH224639   5.237   1.376  13.338  0.3322  0.1319  0.1916
 1075TIP3    H124640   5.235   1.284  13.313 -1.0251  0.0005  0.7461
 1075TIP3    H224641   5.155   1.412  13.304 -0.2927  0.5671  2.0532
 1076TIP3   OH224642   4.790   1.287  14.589  0.2004 -0.2448 -0.4365
 1076TIP3    H124643   4.814   1.222  14.656  0.6506 -1.0013 -1.2984
 1076TIP3    H224644   4.784   1.236  14.508 -1.6475  0.4103 -0.7635
 1077TIP3   OH224645   1.497   1.104   1.141  0.0041  0.0482 -0.1860
 1077TIP3    H124646   1.423   1.128   1.196 -1.2651 -0.6899 -1.5045
 1077TIP3    H224647   1.457   1.065   1.063  1.7306  1.0956 -1.6544
 1078TIP3   OH224648   0.150   4.652   3.742 -0.4225 -0.4243 -0.1092
 1078TIP3    H124649   0.168   4.573   3.690  1.4905  0.4882 -0.9329
 1078TIP3    H224650   0.116   4.618   3.826 -0.3103 -2.0743 -0.6935
 1079TIP3   OH224651   6.318   4.353   5.753 -0.1402  0.4150 -0.1220
 1079TIP3    H124652   6.251   4.385   5.692  0.4453  1.9581 -0.0131
 1079TIP3    H224653   6.359   4.280   5.708 -2.7069 -1.4518  0.3193
 1080TIP3   OH224654   2.084   6.494   5.292 -0.3348 -0.0742 -0.2604
 1080TIP3    H124655   2.169   6.454   5.276  0.0917  0.8420 -0.4022
 1080TIP3    H224656   2.085   6.516   5.385 -0.0626  0.6833 -0.4298
 1081TIP3   OH224657   4.380   4.263  14.364 -0.6475 -0.2641 -0.0559
 1081TIP3    H124658   4.415   4.176  14.382 -0.2805 -0.0969  0.0524
 1081TIP3    H224659   4.399   4.313  14.444 -0.2108  0.1110 -0.3893
 1082TIP3   OH224660   1.277   1.482   0.303  0.1055  0.3329 -0.0085
 1082TIP3    H124661   1.363   1.441   0.299 -0.1474 -0.0729 -1.9405
 1082TIP3    H224662   1.284   1.543   0.377  1.9022  0.0008  0.1528
 1083TIP3   OH224663   6.176   1.495   2.040  0.4327 -0.1590  0.6810
 1083TIP3    H124664   6.235   1.479   2.114  0.7326  0.5714  0.6094
 1083TIP3    H224665   6.148   1.586   2.051  0.7139  0.0507 -0.2623
 1084TIP3   OH224666   1.580   4.999  12.946  0.5620 -0.4481 -0.1258
 1084TIP3    H124667   1.661   5.015  12.898 -0.3987  1.0829 -1.3339
 1084TIP3    H224668   1.528   5.078  12.932 -1.1983 -1.4306  0.5279
 1085TIP3   OH224669   5.155   3.140  16.154  0.2436 -0.3346  1.2545
 1085TIP3    H124670   5.204   3.059  16.138 -0.3568 -0.3537 -0.8402
 1085TIP3    H224671   5.072   3.127  16.107 -0.0156  1.3483  1.1828
 1086TIP3   OH224672   1.245   2.841   1.160  0.1876 -0.0173 -0.2780
 1086TIP3    H124673   1.162   2.808   1.193  0.1112  0.8043  0.3695
 1086TIP3    H224674   1.289   2.878   1.236  0.2771  1.3458 -0.9699
 1087TIP3   OH224675   6.492   3.123   0.691  0.8216  0.1625  0.0233
 1087TIP3    H124676   6.544   3.119   0.771  0.9843  1.7107  0.0220
 1087TIP3    H224677   6.411   3.076   0.713  0.3862  1.5192  1.4816
 1088TIP3   OH224678   1.065   0.545   1.217  0.5058  0.0682 -0.0917
 1088TIP3    H124679   1.157   0.573   1.216  0.6946 -0.5238 -2.0017
 1088TIP3    H224680   1.068   0.454   1.188 -0.8457  0.6440 -2.2669
 1089TIP3   OH224681   0.653   5.177   4.605 -0.2166  0.1815 -0.1117
 1089TIP3    H124682   0.574   5.168   4.553 -0.8790 -0.2873  0.9403
 1089TIP3    H224683   0.622   5.177   4.696  1.0597 -0.8712  0.3502
 1090TIP3   OH224684   6.745   4.372   2.054  0.4219 -0.2183 -0.4145
 1090TIP3    H124685   6.756   4.465   2.035 -0.6994  0.1967  0.8306
 1090TIP3    H224686   6.767   4.364   2.146 -0.9934 -0.9022 -0.1178
 1091TIP3   OH224687   4.088   5.060  15.110 -1.0733 -0.6111 -0.0832
 1091TIP3    H124688   4.090   5.070  15.205 -2.0895  0.7464 -0.1592
 1091TIP3    H224689   3.995   5.049  15.089 -0.6975 -3.2617 -0.7629
 1092TIP3   OH224690   4.905   4.944   4.819 -0.0827 -0.3844 -0.1980
 1092TIP3    H124691   4.963   4.899   4.758  0.3729 -0.1740  0.0817
 1092TIP3    H224692   4.818   4.934   4.780 -0.0018 -1.5533 -0.1156
 1093TIP3   OH224693   5.475   0.049  13.048 -0.0862  0.1196  0.4970
 1093TIP3    H124694   5.420   0.040  12.970  1.2406 -0.2295 -0.4238
 1093TIP3    H224695   5.467   0.141  13.073  0.4771  0.5493 -0.8286
 1094TIP3   OH224696   6.371   4.687  10.895  0.4108  0.5860 -0.1932
 1094TIP3    H124697   6.457   4.650  10.915  0.2222 -0.6048 -1.4663
 1094TIP3    H224698   6.386   4.782  10.893  1.7032  0.3911 -0.4449
 1095TIP3   OH224699   1.333   2.524   5.077  0.5005  0.1576  0.1680
 1095TIP3    H124700   1.421   2.514   5.040  0.2222  0.0323 -0.4817
 1095TIP3    H224701   1.274   2.500   5.005 -0.0630  0.1166  0.6345
 1096TIP3   OH224702   4.063   2.787   4.309  0.5502  0.2959 -0.0653
 1096TIP3    H124703   4.139   2.769   4.253  0.8918 -1.4291  0.8828
 1096TIP3    H224704   4.101   2.803   4.396 -0.1183  0.2243  0.2424
 1097TIP3   OH224705   4.286   2.475   6.251 -0.2892 -1.0359 -0.4880
 1097TIP3    H124706   4.279   2.398   6.308  0.1952 -0.4179  0.4138
 1097TIP3    H224707   4.218   2.534   6.282  0.1708 -0.5746 -0.3567
 1098TIP3   OH224708   2.557   3.387  13.547 -0.7777 -0.5522  0.0881
 1098TIP3    H124709   2.652   3.384  13.559 -0.1682  0.2222 -3.3654
 1098TIP3    H224710   2.533   3.479  13.558 -1.9872 -1.1873  4.9058
 1099TIP3   OH224711   3.191   0.952  11.289 -0.0321  0.3402  0.1036
 1099TIP3    H124712   3.234   1.037  11.283 -1.4477  0.9899 -1.7037
 1099TIP3    H224713   3.252   0.891  11.250 -0.1879  1.0391 -1.2791
 1100TIP3   OH224714   2.951   0.329   4.157  0.0664 -0.2919 -0.5564
 1100TIP3    H124715   2.982   0.275   4.230  0.0669 -0.4181 -0.6489
 1100TIP3    H224716   2.862   0.355   4.182  0.8393  1.4909  0.4934
 1101TIP3   OH224717   4.810   5.303  12.580 -0.1838  0.1540  0.3985
 1101TIP3    H124718   4.729   5.260  12.552 -0.3519  0.7075  0.0229
 1101TIP3    H224719   4.863   5.307  12.501  0.7951 -1.4445  0.9214
 1102TIP3   OH224720   4.366   0.935   1.981  0.7203 -0.1381  0.3523
 1102TIP3    H124721   4.275   0.919   2.007  0.8062 -1.1614  0.0572
 1102TIP3    H224722   4.415   0.861   2.017  1.2019 -0.3575 -0.7129
 1103TIP3   OH224723   4.806   2.995   1.329 -0.5884 -0.0703  0.2051
 1103TIP3    H124724   4.862   3.064   1.294  0.5633 -0.8317  0.5158
 1103TIP3    H224725   4.808   2.926   1.262  0.8063 -1.1063  1.2673
 1104TIP3   OH224726   4.702   0.726   1.150 -0.1551  0.2366 -0.2159
 1104TIP3    H124727   4.703   0.632   1.133  0.9488  0.4752 -1.7548
 1104TIP3    H224728   4.771   0.739   1.216 -1.5357 -0.2028  1.3797
 1105TIP3   OH224729   2.232   5.435   0.959 -0.0444  0.1231  0.1340
 1105TIP3    H124730   2.158   5.417   1.017  0.0107  0.4724  0.3171
 1105TIP3    H224731   2.280   5.506   1.002  0.6356 -0.3739  0.2329
 1106TIP3   OH224732   1.498   5.493   5.646  0.4233  0.6096 -0.2221
 1106TIP3    H124733   1.420   5.476   5.593  0.6220 -1.0538 -0.0297
 1106TIP3    H224734   1.467   5.488   5.737  1.0205 -1.9199 -0.0804
 1107TIP3   OH224735   3.097   2.128  10.877 -0.0329  0.3743 -0.1602
 1107TIP3    H124736   3.022   2.070  10.862  1.7156 -1.9750 -0.4329
 1107TIP3    H224737   3.124   2.155  10.790 -0.6802  1.4743 -0.0461
 1108TIP3   OH224738   0.463   6.589   1.588 -0.4924 -0.8039  0.5140
 1108TIP3    H124739   0.407   6.647   1.537  0.4661  1.2001  1.6200
 1108TIP3    H224740   0.548   6.593   1.544 -0.9048 -3.1960 -0.6887
 1109TIP3   OH224741   1.864   4.464   1.556 -0.3561 -0.1091  0.1567
 1109TIP3    H124742   1.890   4.554   1.575  1.7119 -0.8072  0.8406
 1109TIP3    H224743   1.942   4.412   1.572 -1.1038 -1.8915 -1.5780
 1110TIP3   OH224744   5.672   5.710   1.308 -0.2268  0.7738 -0.1396
 1110TIP3    H124745   5.750   5.714   1.252 -0.8707  0.3367 -1.0907
 1110TIP3    H224746   5.704   5.734   1.395  0.7502  1.7164 -0.7299
 1111TIP3   OH224747   3.748   3.641   0.754  0.1574  0.2242 -0.6964
 1111TIP3    H124748   3.699   3.632   0.672  1.2846  0.4239 -1.4151
 1111TIP3    H224749   3.682   3.668   0.818 -0.5405  1.2767 -1.8002
 1112TIP3   OH224750   5.541   5.019  13.925 -0.4040  0.4051  0.7104
 1112TIP3    H124751   5.513   5.061  13.844  1.1351 -2.3651 -1.4606
 1112TIP3    H224752   5.634   5.043  13.933  0.2236 -1.5564 -0.0286
 1113TIP3   OH224753   4.353   1.923   4.579 -0.0643  0.5161 -0.6508
 1113TIP3    H124754   4.321   2.003   4.538 -1.6964  0.6254  0.7297
 1113TIP3    H224755   4.316   1.925   4.667  0.4329 -1.4249 -0.3540
 1114TIP3   OH224756   3.869   0.542  16.986 -0.0439  0.1305 -0.1163
 1114TIP3    H124757   3.847   0.547  16.893  0.5921  1.2647 -0.2354
 1114TIP3    H224758   3.823   0.465  17.018 -0.2881 -0.2679 -1.3670
 1115TIP3   OH224759   3.456   2.041  12.877 -0.3315 -0.2111  0.6057
 1115TIP3    H124760   3.470   1.980  12.950  2.4830  1.0880  1.2656
 1115TIP3    H224761   3.469   1.988  12.799  1.6551 -0.6286  1.1594
 1116TIP3   OH224762   2.531   2.014   0.284  0.2036  0.3135  0.3122
 1116TIP3    H124763   2.522   2.020   0.379  0.1843 -0.0242  0.3306
 1116TIP3    H224764   2.444   1.987   0.253  0.3175  0.0333  0.2334
 1117TIP3   OH224765   4.991   2.072  15.778  0.4071 -0.4003 -0.8670
 1117TIP3    H124766   5.041   1.992  15.763 -1.4386 -1.7766 -0.1002
 1117TIP3    H224767   4.927   2.049  15.846  0.1149  1.8787 -0.2514
 1118TIP3   OH224768   5.227   4.869  13.643  0.7913  0.0953 -0.6374
 1118TIP3    H124769   5.164   4.852  13.573 -0.1747 -0.5241  0.3429
 1118TIP3    H224770   5.304   4.817  13.620  0.6685  0.2658 -1.4675
 1119TIP3   OH224771   3.255   1.881  11.844  0.3252  0.2190  0.1455
 1119TIP3    H124772   3.276   1.891  11.937 -0.1727  2.7776  0.0442
 1119TIP3    H224773   3.173   1.929  11.832 -1.5155 -2.9084 -1.0265
 1120TIP3   OH224774   3.127   5.921   4.331 -0.2477 -0.4625 -0.1801
 1120TIP3    H124775   3.142   5.870   4.252  0.7817  0.6545 -0.7345
 1120TIP3    H224776   3.175   6.003   4.317 -1.3337  0.4100  0.9434
 1121TIP3   OH224777   0.321   2.424   4.084  0.1198 -0.4357 -0.3296
 1121TIP3    H124778   0.253   2.492   4.086  1.1093  0.6269 -1.3683
 1121TIP3    H224779   0.371   2.438   4.164  0.6228  0.4150 -0.7762
 1122TIP3   OH224780   0.502   3.728   5.742 -0.2159 -0.4537 -0.1611
 1122TIP3    H124781   0.462   3.767   5.819 -1.8889 -1.1094 -0.6424
 1122TIP3    H224782   0.468   3.638   5.741  1.7149 -1.2194 -0.3248
 1123TIP3   OH224783   0.275   6.338  11.809  0.1391 -1.0361 -0.0011
 1123TIP3    H124784   0.222   6.322  11.887 -0.8288 -0.7972 -0.5820
 1123TIP3    H224785   0.249   6.268  11.748 -2.5245  1.2925 -1.7697
 1124TIP3   OH224786   2.216   2.966   5.823  0.4363 -1.1400  0.2385
 1124TIP3    H124787   2.225   2.875   5.851 -0.5930 -1.5244 -0.6197
 1124TIP3    H224788   2.288   3.012   5.866  1.7123 -2.5795 -0.2998
 1125TIP3   OH224789   5.246   0.307   5.373  0.6965  0.5163  0.2973
 1125TIP3    H124790   5.288   0.312   5.459 -0.5896 -0.5512  1.0291
 1125TIP3    H224791   5.254   0.215   5.348  1.5982  0.9379 -1.0310
 1126TIP3   OH224792   1.022   1.820   1.535  0.0981 -0.4821 -0.0407
 1126TIP3    H124793   0.930   1.793   1.536 -1.1448  3.2151  1.6753
 1126TIP3    H224794   1.046   1.825   1.628  1.0897  1.2723 -0.3546
 1127TIP3   OH224795   0.121   6.694   6.001  0.8750 -0.2402 -0.5697
 1127TIP3    H124796   0.188   6.689   6.070  2.6755 -1.6349 -2.3060
 1127TIP3    H224797   0.149   6.629   5.936 -0.3446  1.5027 -2.9757
 1128TIP3   OH224798   4.455   1.053  13.949 -0.2941 -0.2209  0.1626
 1128TIP3    H124799   4.460   1.045  14.045 -1.1815  1.9697  0.4418
 1128TIP3    H224800   4.419   1.140  13.934 -1.6779 -1.1125 -2.1629
 1129TIP3   OH224801   4.838   6.560   6.249  0.2126  0.1731 -0.0239
 1129TIP3    H124802   4.918   6.602   6.281  1.2927 -2.1083  0.5341
 1129TIP3    H224803   4.859   6.466   6.250 -2.6831 -0.5480  0.6839
 1130TIP3   OH224804   4.476   1.233  13.349 -0.4328  0.5193 -0.2063
 1130TIP3    H124805   4.482   1.227  13.445 -0.4995  2.4229 -0.0447
 1130TIP3    H224806   4.545   1.175  13.317  0.2299  0.5903  1.0111
 1131TIP3   OH224807   5.330   1.323  12.144  0.4385 -0.6212 -0.0677
 1131TIP3    H124808   5.391   1.257  12.109  1.4688 -0.4855  1.3982
 1131TIP3    H224809   5.306   1.290  12.230 -0.5707 -0.0165 -0.1049
 1132TIP3   OH224810   2.147   5.640   4.675 -0.0222 -0.4951  0.0389
 1132TIP3    H124811   2.137   5.600   4.761  0.2392  0.3798  0.4897
 1132TIP3    H224812   2.058   5.662   4.647  0.0237  1.1654  1.0567
 1133TIP3   OH224813   1.266   2.623  12.007 -0.5815  0.0796 -0.1308
 1133TIP3    H124814   1.352   2.593  12.035 -0.4793  0.0844 -0.4348
 1133TIP3    H224815   1.243   2.566  11.933 -1.2431 -0.5211  0.5273
 1134TIP3   OH224816   1.316   0.404  11.751 -0.5213  0.1253 -0.0327
 1134TIP3    H124817   1.390   0.406  11.691 -0.0587 -0.6404  0.4841
 1134TIP3    H224818   1.239   0.409  11.695 -0.1374 -1.6703 -0.8151
 1135TIP3   OH224819   2.504   3.657  14.100 -0.1291 -0.2388 -0.2710
 1135TIP3    H124820   2.590   3.633  14.065 -0.8419 -0.7021 -1.8036
 1135TIP3    H224821   2.523   3.727  14.163  1.5146 -1.4961  0.7292
 1136TIP3   OH224822   0.909   5.141   0.030 -0.6955 -0.1152  0.0263
 1136TIP3    H124823   0.999   5.160   0.004 -0.3982 -2.4062 -0.8466
 1136TIP3    H224824   0.857   5.210  -0.010  0.6721  1.4737  0.8625
 1137TIP3   OH224825   0.262   2.162   4.304  0.6438  0.4374  0.1870
 1137TIP3    H124826   0.170   2.180   4.325  0.2719 -0.8713 -0.2821
 1137TIP3    H224827   0.295   2.246   4.273 -0.3324  0.9868  0.5672
 1138TIP3   OH224828   6.560   0.129   0.091  0.2717  0.5785  0.4062
 1138TIP3    H124829   6.531   0.206   0.141 -0.3451  1.2582 -0.9470
 1138TIP3    H224830   6.565   0.160   0.001 -1.1249 -1.2464 -0.3593
 1139TIP3   OH224831   3.061   1.125  16.632  0.1269 -0.1292 -0.4905
 1139TIP3    H124832   3.133   1.066  16.611 -1.4585 -2.0502 -0.8426
 1139TIP3    H224833   2.982   1.074  16.616 -1.3367  1.0701  2.1237
 1140TIP3   OH224834   3.010   5.673  11.149  0.2643 -0.2106 -0.0101
 1140TIP3    H124835   2.949   5.667  11.075  2.6360  0.0629 -2.1097
 1140TIP3    H224836   3.043   5.763  11.146 -1.8164  0.8930  3.4201
 1141TIP3   OH224837   5.041   4.898  13.190 -0.4972 -0.0409  0.1592
 1141TIP3    H124838   4.948   4.874  13.183  0.0759 -3.0183  1.4091
 1141TIP3    H224839   5.080   4.865  13.109 -0.1709 -0.8456  0.6364
 1142TIP3   OH224840   0.255   1.830  17.052 -0.1340 -0.2717  0.5693
 1142TIP3    H124841   0.271   1.917  17.088  0.5287 -0.3300  0.4422
 1142TIP3    H224842   0.335   1.810  17.003 -0.6015 -0.6282 -0.0507
 1143TIP3   OH224843   5.454   1.016   2.009  0.4620 -0.8149  0.1142
 1143TIP3    H124844   5.544   1.050   2.005  1.1907 -2.7417 -1.1931
 1143TIP3    H224845   5.400   1.094   2.019  2.2492  0.4371  0.5924
 1144TIP3   OH224846   0.829   0.220   0.504 -0.0959 -0.5605  0.0707
 1144TIP3    H124847   0.758   0.237   0.566  0.5139 -0.4309  0.7452
 1144TIP3    H224848   0.883   0.300   0.507  0.7643 -1.1428  0.5164
 1145TIP3   OH224849   1.402   6.410   5.191  0.3544  0.2666 -0.4703
 1145TIP3    H124850   1.344   6.391   5.117  1.8159 -0.8210 -1.4112
 1145TIP3    H224851   1.411   6.327   5.236 -2.4905  1.4014  2.5527
 1146TIP3   OH224852   2.918   4.607   3.195 -0.0368  0.9073  0.1537
 1146TIP3    H124853   2.975   4.595   3.271  0.3741  2.3665  0.1241
 1146TIP3    H224854   2.831   4.623   3.232  0.2039  1.8360  0.3519
 1147TIP3   OH224855   4.793   3.027   3.158  0.3802  0.1969  0.4482
 1147TIP3    H124856   4.823   3.009   3.069 -0.0146 -1.3106  0.5884
 1147TIP3    H224857   4.839   3.107   3.183 -0.2407  1.2088 -1.4453
 1148TIP3   OH224858   2.477   2.400   1.835  0.3672 -0.1851 -0.1794
 1148TIP3    H124859   2.521   2.346   1.900  0.1374  0.9759  0.9665
 1148TIP3    H224860   2.406   2.344   1.802  1.1371 -1.1608 -0.2237
 1149TIP3   OH224861   4.141   2.814  16.521  0.7992 -0.2044 -0.0538
 1149TIP3    H124862   4.061   2.803  16.470  0.4513  2.3338 -0.1580
 1149TIP3    H224863   4.155   2.728  16.562 -2.2374 -0.5837  0.3897
 1150TIP3   OH224864   4.655   4.111   5.193  0.1475  0.2399  0.2139
 1150TIP3    H124865   4.667   4.070   5.108 -0.6479  0.3539  0.0384
 1150TIP3    H224866   4.718   4.066   5.251  0.0586 -0.4594 -0.2228
 1151TIP3   OH224867   6.777   3.422   4.235  0.0947  0.0801 -0.0920
 1151TIP3    H124868   6.764   3.398   4.144 -1.3868  0.0184  0.1027
 1151TIP3    H224869   6.797   3.340   4.280  0.4996  0.0618 -0.3081
 1152TIP3   OH224870   3.129   4.176   5.667  0.0650 -0.2197  0.1748
 1152TIP3    H124871   3.067   4.147   5.734 -3.6798  2.3321 -1.8185
 1152TIP3    H224872   3.136   4.270   5.680  3.0012 -0.2781 -0.2712
 1153TIP3   OH224873   1.745   2.408  10.808 -0.0072 -0.2534  0.1203
 1153TIP3    H124874   1.671   2.468  10.794  1.4005  1.7504  0.8343
 1153TIP3    H224875   1.713   2.324  10.775 -0.9693  1.4981 -4.2094
 1154TIP3   OH224876   0.360   3.627   3.876  1.1796  0.0763 -0.2225
 1154TIP3    H124877   0.366   3.567   3.802 -0.1920 -0.0096 -0.3006
 1154TIP3    H224878   0.372   3.714   3.837 -2.9537  0.4007 -1.3111
 1155TIP3   OH224879   2.921   2.907   5.402 -0.0900  0.2814 -0.2726
 1155TIP3    H124880   3.000   2.949   5.367  0.2303  0.0754  0.1844
 1155TIP3    H224881   2.883   2.860   5.328 -0.7169  1.7439 -0.9152
 1156TIP3   OH224882   2.983   5.005   0.585  0.0137 -0.9752 -0.4876
 1156TIP3    H124883   2.927   5.066   0.632  1.2485 -0.2508  0.0903
 1156TIP3    H224884   2.988   5.040   0.496 -0.0819 -0.7924 -0.4205
 1157TIP3   OH224885   3.654   6.512   5.950  0.4597 -0.0211  0.6784
 1157TIP3    H124886   3.600   6.561   6.013 -0.4505 -1.3325  0.9434
 1157TIP3    H224887   3.593   6.485   5.882  0.9229 -0.8895  0.5979
 1158TIP3   OH224888   0.119   5.024  11.619 -0.3060 -0.5318  0.3751
 1158TIP3    H124889   0.047   5.064  11.670 -0.0841  0.8096 -0.3104
 1158TIP3    H224890   0.182   5.095  11.608 -0.6075 -0.5809 -2.2619
 1159TIP3   OH224891   4.312   3.504   2.763  0.0629  0.3448  0.3411
 1159TIP3    H124892   4.282   3.535   2.678 -2.5883  1.8766  1.6961
 1159TIP3    H224893   4.262   3.424   2.778  1.8821 -0.9663 -0.2396
 1160TIP3   OH224894   6.317   2.458  11.232  0.2107 -0.1556  0.0329
 1160TIP3    H124895   6.290   2.389  11.293  0.2697 -1.3660 -1.2498
 1160TIP3    H224896   6.237   2.480  11.184  0.1409  0.8633  0.5914
 1161TIP3   OH224897   5.357   4.818  14.006  0.4129 -0.0206  0.3098
 1161TIP3    H124898   5.405   4.754  13.954 -0.0605 -0.6490  0.6328
 1161TIP3    H224899   5.405   4.900  13.994  0.6236 -0.2731 -0.6724
 1162TIP3   OH224900   5.486   5.005   5.675  0.0692  0.7237 -0.1617
 1162TIP3    H124901   5.409   4.986   5.729  0.1987  1.7789  0.4150
 1162TIP3    H224902   5.520   5.088   5.709  1.2207  0.4918 -0.6849
 1163TIP3   OH224903   4.440   0.611   0.959 -0.6650  0.2919  0.7228
 1163TIP3    H124904   4.447   0.626   0.865  0.0057  1.2107  0.9136
 1163TIP3    H224905   4.472   0.521   0.971  0.2699  0.5376  0.1899
 1164TIP3   OH224906   5.207   0.762  13.421  0.8509 -0.3930 -0.5760
 1164TIP3    H124907   5.137   0.751  13.357 -0.6564  1.8763  0.5110
 1164TIP3    H224908   5.274   0.813  13.376  1.1654 -1.3366 -1.1928
 1165TIP3   OH224909   0.739   6.340   4.343  0.6980 -0.0665 -0.3239
 1165TIP3    H124910   0.645   6.345   4.362  0.7886 -0.4543  0.2536
 1165TIP3    H224911   0.758   6.246   4.339  0.7471 -0.0224 -2.1013
 1166TIP3   OH224912   2.506   3.465   3.781 -0.5223  1.0194 -0.1599
 1166TIP3    H124913   2.534   3.514   3.858  0.2117  1.7920 -0.9065
 1166TIP3    H224914   2.437   3.519   3.742 -1.1857  0.4273  0.1769
 1167TIP3   OH224915   6.312   0.057  11.833  0.2189  0.0405 -0.1991
 1167TIP3    H124916   6.259   0.045  11.911 -1.9933  1.4454 -1.3705
 1167TIP3    H224917   6.266   0.008  11.765  0.4913  1.1540 -1.2274
 1168TIP3   OH224918   5.138   1.169   4.252  0.4949 -0.1417  0.1772
 1168TIP3    H124919   5.141   1.076   4.274  2.1798  0.0677  0.9894
 1168TIP3    H224920   5.143   1.214   4.336 -0.4982  0.6903 -0.1980
 1169TIP3   OH224921   0.369   0.932   5.519 -0.2364 -0.0493  0.5084
 1169TIP3    H124922   0.415   1.009   5.551 -0.4572  1.8822 -3.1821
 1169TIP3    H224923   0.277   0.949   5.541 -0.0041 -0.6717  2.0833
 1170TIP3   OH224924   0.892   1.734  12.235  0.0511  0.1750 -0.2953
 1170TIP3    H124925   0.810   1.751  12.190 -0.3722  2.1898  1.0918
 1170TIP3    H224926   0.903   1.639  12.232 -1.5785  0.0016 -1.7429
 1171TIP3   OH224927   6.325   1.652   3.532 -0.5012 -0.2881  0.2704
 1171TIP3    H124928   6.415   1.684   3.524 -1.2330  1.6293 -0.9967
 1171TIP3    H224929   6.288   1.703   3.603 -0.8464 -0.4223  0.1854
 1172TIP3   OH224930   4.093   0.214   3.050 -0.1695  0.3195  0.5260
 1172TIP3    H124931   4.147   0.275   3.102 -1.1813  0.7697  1.0829
 1172TIP3    H224932   4.004   0.250   3.056 -0.3947  0.1163 -1.1494
 1173TIP3   OH224933   4.108   1.339  16.852  0.3302  0.2857 -0.1195
 1173TIP3    H124934   4.197   1.318  16.878  0.5687  2.4041  0.9677
 1173TIP3    H224935   4.118   1.404  16.782 -0.3885 -0.5763 -1.0688
 1174TIP3   OH224936   3.244   0.880   2.615  0.1211 -0.3883  0.0265
 1174TIP3    H124937   3.334   0.862   2.586  0.1753 -0.4056  0.2040
 1174TIP3    H224938   3.207   0.793   2.630  0.3105 -0.3629  0.6679
 1175TIP3   OH224939   4.565   2.417   5.354 -0.0307  0.0643 -0.1733
 1175TIP3    H124940   4.523   2.350   5.302  0.3047 -0.8901  0.7387
 1175TIP3    H224941   4.500   2.487   5.362 -0.3023 -0.0493 -1.3090
 1176TIP3   OH224942   6.346   1.074   3.076 -0.1494  0.1630  0.1077
 1176TIP3    H124943   6.337   0.993   3.026 -1.7382  0.1588  0.3354
 1176TIP3    H224944   6.283   1.134   3.036  0.5493  1.0818  0.3515
 1177TIP3   OH224945   3.151   6.667   6.036  0.6647  0.3617 -0.8010
 1177TIP3    H124946   3.078   6.607   6.020  0.2657  0.6097  0.0492
 1177TIP3    H224947   3.117   6.729   6.101  1.9261 -0.0539  0.2769
 1178TIP3   OH224948   3.760   6.696  13.338  0.1409 -0.6905  0.1220
 1178TIP3    H124949   3.809   6.744  13.404 -0.0522  0.7374 -0.7341
 1178TIP3    H224950   3.735   6.762  13.273  0.5084 -2.0645 -1.4932
 1179TIP3   OH224951   0.467   3.241  12.121 -0.2366 -0.0002  0.3564
 1179TIP3    H124952   0.501   3.190  12.194 -1.1088  2.6870  2.7884
 1179TIP3    H224953   0.418   3.178  12.068  0.7221 -2.0962  1.8428
 1180TIP3   OH224954   4.647   1.246   0.230 -0.1251  0.5361  0.1197
 1180TIP3    H124955   4.654   1.308   0.158  1.7019 -0.2438 -0.4174
 1180TIP3    H224956   4.558   1.210   0.222  0.4018 -0.3997 -2.4923
 1181TIP3   OH224957   3.404   2.803   1.869  0.6919 -0.1322 -0.2253
 1181TIP3    H124958   3.496   2.801   1.842  0.1916  0.7496 -2.1783
 1181TIP3    H224959   3.384   2.896   1.878 -0.0743 -0.3087 -0.0766
 1182TIP3   OH224960   2.484   4.901  11.786  0.2965 -0.4448  0.0007
 1182TIP3    H124961   2.577   4.920  11.775  0.3324 -0.5315  0.1563
 1182TIP3    H224962   2.464   4.837  11.717  0.0360  0.5870 -0.9271
 1183TIP3   OH224963   5.945   0.954  10.422  0.0543  0.1274  0.6008
 1183TIP3    H124964   5.967   0.869  10.383 -0.6260  0.1939  0.0604
 1183TIP3    H224965   5.850   0.952  10.429  0.0545  0.7721  0.7782
 1184TIP3   OH224966   4.787   4.243   4.429  0.7244  0.5588  0.5292
 1184TIP3    H124967   4.862   4.184   4.437  0.3012 -0.3361 -1.4884
 1184TIP3    H224968   4.719   4.191   4.387 -0.0228  2.1856 -0.3788
 1185TIP3   OH224969   1.841   4.370  16.949 -0.2228 -0.2050  0.1374
 1185TIP3    H124970   1.770   4.405  17.002  2.5722  1.4893  3.0881
 1185TIP3    H224971   1.884   4.306  17.005  1.9638  0.5410 -0.5629
 1186TIP3   OH224972   3.794   6.577  14.353  0.0672  0.5375  0.2357
 1186TIP3    H124973   3.751   6.511  14.408 -0.2967  1.5942  1.2741
 1186TIP3    H224974   3.801   6.654  14.409  0.6888  1.3201 -0.8681
 1187TIP3   OH224975   6.560   5.275   3.972  0.2953 -0.0363 -0.1204
 1187TIP3    H124976   6.513   5.286   3.889  0.4897  2.9296  0.0713
 1187TIP3    H224977   6.649   5.254   3.946  1.0283  3.4517 -0.9044
 1188TIP3   OH224978   2.895   0.369  13.198 -0.3830 -0.0817 -0.0974
 1188TIP3    H124979   2.944   0.291  13.227 -0.3659  0.0616  0.2703
 1188TIP3    H224980   2.929   0.440  13.253 -1.2643 -0.0492  0.4255
 1189TIP3   OH224981   2.283   6.445   2.791 -0.2216  0.0789 -0.2829
 1189TIP3    H124982   2.302   6.364   2.838 -1.6098 -0.2050 -0.1580
 1189TIP3    H224983   2.188   6.457   2.802 -0.3230  0.8072 -1.7346
 1190TIP3   OH224984   5.762   1.607   3.339  0.2578  0.3441  0.4061
 1190TIP3    H124985   5.734   1.552   3.412 -1.5004 -1.9316 -1.7730
 1190TIP3    H224986   5.850   1.577   3.318  0.8737  1.1823  1.6600
 1191TIP3   OH224987   0.923   1.518   4.774 -0.1977 -0.1619 -0.1713
 1191TIP3    H124988   0.835   1.548   4.751 -0.0883 -0.3905 -0.9272
 1191TIP3    H224989   0.947   1.570   4.851 -0.8227  0.1986 -0.2102
 1192TIP3   OH224990   6.016   0.740  13.831 -0.0120 -0.0177  0.2368
 1192TIP3    H124991   6.041   0.652  13.801  1.0489  0.4049 -0.1824
 1192TIP3    H224992   6.099   0.782  13.852 -0.3159  1.5106 -1.3482
 1193TIP3   OH224993   6.104   3.739  11.337 -0.2202 -0.4757  0.0167
 1193TIP3    H124994   6.151   3.659  11.359  1.0268  0.0241 -0.6793
 1193TIP3    H224995   6.031   3.710  11.282  1.8073 -0.9818 -2.6383
 1194TIP3   OH224996   2.503   3.826   3.368  0.5767  0.0279 -0.3354
 1194TIP3    H124997   2.420   3.780   3.357  0.8175 -0.4199 -0.2657
 1194TIP3    H224998   2.477   3.917   3.387  0.1138  0.0059 -0.8345
 1195TIP3   OH224999   0.290   2.176   2.698 -0.1310 -0.0505 -0.9294
 1195TIP3    H125000   0.295   2.129   2.781 -1.0774  0.3754 -0.6181
 1195TIP3    H225001   0.306   2.267   2.721 -1.3272  0.2060 -1.0581
 1196TIP3   OH225002   2.864   2.121   1.155  0.2427  0.0944  0.0592
 1196TIP3    H125003   2.959   2.110   1.165  0.3329  0.3584 -0.4957
 1196TIP3    H225004   2.853   2.161   1.069 -0.1621  3.4206  1.5319
 1197TIP3   OH225005   0.949   1.890   1.830 -0.5903  0.0954 -0.0121
 1197TIP3    H125006   0.983   1.925   1.913  0.4686 -0.4669 -0.2021
 1197TIP3    H225007   0.920   1.801   1.852  0.0286 -0.1833 -0.3268
 1198TIP3   OH225008   6.345   2.279   1.729  0.2977 -0.0374 -0.4430
 1198TIP3    H125009   6.432   2.241   1.742 -0.9920 -3.0721  0.1537
 1198TIP3    H225010   6.311   2.236   1.652 -1.6698 -0.9925  0.8832
 1199TIP3   OH225011   5.371   5.357   1.702 -0.3866  0.0805  0.0731
 1199TIP3    H125012   5.356   5.446   1.735  0.9832 -0.0785  1.2440
 1199TIP3    H225013   5.393   5.306   1.780  2.1804 -0.5015 -0.9119
 1200TIP3   OH225014   5.876   2.960  15.973  0.0644 -0.6613 -0.1288
 1200TIP3    H125015   5.789   2.946  15.936 -0.9504  1.7905  1.1105
 1200TIP3    H225016   5.877   2.905  16.052 -0.7061 -0.1379  0.2707
 1201TIP3   OH225017   5.469   2.544   2.219 -0.2961  0.3936 -0.2743
 1201TIP3    H125018   5.541   2.484   2.237 -0.4280  0.4625  0.5435
 1201TIP3    H225019   5.453   2.588   2.302 -0.9983  0.6865 -0.5513
 1202TIP3   OH225020   6.283   2.596  10.589  0.2142 -0.2023  0.1028
 1202TIP3    H125021   6.379   2.594  10.588  0.2656 -1.4156  2.5087
 1202TIP3    H225022   6.257   2.510  10.557  0.0270 -0.8216  1.8304
 1203TIP3   OH225023   5.610   3.837   2.724 -0.4418  0.9229 -0.1558
 1203TIP3    H125024   5.583   3.846   2.815 -2.3983 -1.4121 -0.4034
 1203TIP3    H225025   5.531   3.854   2.673 -0.8379 -2.8022 -1.0827
 1204TIP3   OH225026   5.910   1.461   6.133  0.3030 -0.9276  0.1014
 1204TIP3    H125027   5.947   1.377   6.160 -1.5975 -0.9100  3.3130
 1204TIP3    H225028   5.979   1.525   6.151  0.5591 -1.4452  1.0239
 1205TIP3   OH225029   2.375   2.319   2.955  0.2480  0.6381 -0.6792
 1205TIP3    H125030   2.411   2.343   3.041  0.0172 -0.0899 -0.3703
 1205TIP3    H225031   2.367   2.223   2.958 -0.8393  0.7012 -1.0827
 1206TIP3   OH225032   4.864   1.723  11.440 -0.0315  0.7671  0.2244
 1206TIP3    H125033   4.894   1.634  11.422  0.2205  0.2401  2.8348
 1206TIP3    H225034   4.945   1.775  11.444 -0.2381  1.3683 -2.2341
 1207TIP3   OH225035   0.623   0.720  16.500  0.0789 -0.5291  0.1708
 1207TIP3    H125036   0.618   0.787  16.569 -0.1893 -0.8057  0.4237
 1207TIP3    H225037   0.542   0.731  16.451  0.0856 -0.5979  0.1455
 1208TIP3   OH225038   6.091   5.433  12.326 -0.4131 -0.1827 -0.0261
 1208TIP3    H125039   6.007   5.389  12.313 -0.0795 -0.5025 -1.2424
 1208TIP3    H225040   6.152   5.362  12.347 -0.2300 -0.0874 -0.2319
 1209TIP3   OH225041   0.161   4.740   5.905  0.6796 -0.3155  0.4992
 1209TIP3    H125042   0.204   4.720   5.822  0.2385  0.4524  0.0745
 1209TIP3    H225043   0.187   4.830   5.926 -0.5961  0.1289  0.2835
 1210TIP3   OH225044   5.697   4.093   2.794 -0.0590 -0.3287 -0.4674
 1210TIP3    H125045   5.716   4.006   2.759  1.2021 -0.2036 -0.1527
 1210TIP3    H225046   5.736   4.093   2.881  0.5521  0.7628 -0.7155
 1211TIP3   OH225047   1.383   0.825  14.599 -0.2618 -0.3059  0.0773
 1211TIP3    H125048   1.325   0.752  14.620  0.7022 -1.2266 -0.4329
 1211TIP3    H225049   1.439   0.793  14.529 -0.4568  1.2511 -0.8366
 1212TIP3   OH225050   4.089   3.063   3.045  0.5410 -0.4842  0.3422
 1212TIP3    H125051   4.157   3.016   3.093  2.6187  0.9247 -1.0270
 1212TIP3    H225052   4.028   3.092   3.112  1.2603 -1.8409  1.6371
 1213TIP3   OH225053   5.116   2.305  14.921 -0.6223  0.8596 -0.2886
 1213TIP3    H125054   5.109   2.282  15.013 -0.4432  1.9044  0.0030
 1213TIP3    H225055   5.094   2.225  14.874 -0.0555  0.1245  0.6646
 1214TIP3   OH225056   4.982   5.783   5.245 -0.2243  0.5222  0.0947
 1214TIP3    H125057   5.029   5.833   5.311 -1.0677  0.4926  0.7373
 1214TIP3    H225058   5.046   5.721   5.211  0.3070  0.7537  0.6600
 1215TIP3   OH225059   1.805   0.772   5.187  0.3102 -0.7548 -0.1423
 1215TIP3    H125060   1.774   0.698   5.135  0.5275 -0.1340 -1.1894
 1215TIP3    H225061   1.827   0.734   5.272  0.5147 -1.9139 -0.6891
 1216TIP3   OH225062   4.002   2.715  16.867  0.8148 -0.2573  0.1156
 1216TIP3    H125063   4.003   2.676  16.954  0.4581  0.9266  0.6653
 1216TIP3    H225064   3.913   2.702  16.834  0.3579  1.0248  0.7609
 1217TIP3   OH225065   5.532   4.122   3.207 -0.7199 -0.2957 -0.1785
 1217TIP3    H125066   5.466   4.162   3.150  0.5245 -0.1845 -1.5725
 1217TIP3    H225067   5.482   4.096   3.285 -2.1559  1.0495 -0.5834
 1218TIP3   OH225068   0.840   3.449  13.919  0.0598  0.5281 -0.2620
 1218TIP3    H125069   0.745   3.455  13.915 -0.1932  0.7761  2.9311
 1218TIP3    H225070   0.859   3.359  13.894 -1.2341 -0.0502  0.6978
 1219TIP3   OH225071   6.670   5.985  15.182 -0.6280  0.5259 -0.0265
 1219TIP3    H125072   6.763   6.003  15.169 -0.8345  2.7187  1.1733
 1219TIP3    H225073   6.669   5.900  15.227  0.7465  0.1801 -0.5972
 1220TIP3   OH225074   2.650   1.517  13.302 -0.3419 -0.2021 -0.4757
 1220TIP3    H125075   2.622   1.470  13.380 -0.7403  0.4305 -0.2344
 1220TIP3    H225076   2.569   1.549  13.263 -0.0916  0.0658 -0.7796
 1221TIP3   OH225077   0.326   1.051   3.127 -0.4016  0.0769  0.6247
 1221TIP3    H125078   0.358   1.060   3.037 -0.9100 -0.8354  0.3453
 1221TIP3    H225079   0.233   1.072   3.121 -0.6915 -1.1175  0.7157
 1222TIP3   OH225080   5.747   3.373   0.468  0.1374  0.2956 -0.3799
 1222TIP3    H125081   5.682   3.357   0.537 -1.1463  0.1932 -1.5744
 1222TIP3    H225082   5.830   3.347   0.508 -0.9921 -3.4369 -0.0705
 1223TIP3   OH225083   4.699   5.492   6.957  0.6579 -0.5647 -0.2359
 1223TIP3    H125084   4.783   5.517   6.920 -0.0429  0.5437 -1.1290
 1223TIP3    H225085   4.671   5.417   6.906  1.1682 -1.0469  0.1787
 1224TIP3   OH225086   3.324   3.772  11.849 -0.6305  0.1544  0.5827
 1224TIP3    H125087   3.283   3.759  11.764 -0.5073 -0.4320  0.6052
 1224TIP3    H225088   3.411   3.806  11.829 -0.2211 -0.9525  0.4169
 1225TIP3   OH225089   4.879   3.572  14.424 -0.3334 -0.6281 -0.4268
 1225TIP3    H125090   4.969   3.574  14.456 -0.6274 -0.2055  0.3989
 1225TIP3    H225091   4.826   3.604  14.498 -1.1754 -1.0256 -0.8402
 1226TIP3   OH225092   4.796   3.687  13.949 -0.1287 -0.7652 -0.4819
 1226TIP3    H125093   4.711   3.695  13.994 -0.0416 -1.2163 -0.2354
 1226TIP3    H225094   4.836   3.774  13.959 -0.6683 -0.4689 -0.8200
 1227TIP3   OH225095   1.224   5.795  16.250  0.0384  0.0319 -0.0686
 1227TIP3    H125096   1.315   5.813  16.276  0.0169  1.0035 -0.6154
 1227TIP3    H225097   1.232   5.737  16.174  0.1293 -1.7746  1.2715
 1228TIP3   OH225098   1.020   1.048  14.643 -0.4195 -0.6023 -0.5294
 1228TIP3    H125099   0.980   1.134  14.645 -1.6880 -1.1666 -0.7738
 1228TIP3    H225100   1.114   1.065  14.643 -0.6029  0.7488  1.2412
 1229TIP3   OH225101   0.296   0.883  10.485  0.4937  0.2553 -0.0688
 1229TIP3    H125102   0.205   0.907  10.500  0.5835  0.8142 -0.4171
 1229TIP3    H225103   0.320   0.832  10.563 -0.1287  0.0521 -0.0037
 1230TIP3   OH225104   4.641   0.502   4.014 -0.0543 -0.7883  0.4331
 1230TIP3    H125105   4.661   0.529   3.925  1.1082 -0.4738  0.7720
 1230TIP3    H225106   4.622   0.583   4.061  1.0819 -0.7657  0.8803
 1231TIP3   OH225107   0.169   4.598  15.109 -0.1347  0.5361  0.4696
 1231TIP3    H125108   0.104   4.531  15.088 -1.2509  1.4696  0.8093
 1231TIP3    H225109   0.117   4.676  15.130  1.0808  1.1341  1.4004
 1232TIP3   OH225110   0.651   4.355   0.567  0.2450  0.0922  0.6365
 1232TIP3    H125111   0.606   4.438   0.553  0.7189  0.2565  0.0188
 1232TIP3    H225112   0.725   4.376   0.622  0.8749  0.2541 -0.2534
 1233TIP3   OH225113   1.560   3.115  12.881  0.1434 -0.2251 -0.4602
 1233TIP3    H125114   1.587   3.162  12.960  0.4953  0.1963 -0.8277
 1233TIP3    H225115   1.579   3.176  12.809 -0.8782 -0.2914 -0.8087
 1234TIP3   OH225116   0.275   4.376  11.568  0.0497 -0.5234 -0.8773
 1234TIP3    H125117   0.227   4.457  11.587  0.4709 -0.4299 -0.2047
 1234TIP3    H225118   0.283   4.376  11.473  0.8457  0.6957 -0.8401
 1235TIP3   OH225119   1.925   6.013  14.607 -0.3795 -0.5752 -0.0019
 1235TIP3    H125120   1.932   6.042  14.515  0.0399  0.1216  0.2411
 1235TIP3    H225121   1.912   6.094  14.656 -2.3439 -1.0868  0.3991
 1236TIP3   OH225122   1.571   1.809  14.915 -0.2045 -0.3982 -0.0547
 1236TIP3    H125123   1.520   1.889  14.927  1.2948  0.4464  1.1068
 1236TIP3    H225124   1.637   1.812  14.985  0.7457 -1.9689 -0.8221
 1237TIP3   OH225125   3.042   3.037   3.238 -0.3072 -0.2277  0.2255
 1237TIP3    H125126   2.959   3.079   3.217 -0.0730 -0.0729 -0.4207
 1237TIP3    H225127   3.044   2.959   3.183 -0.3213 -0.5886  0.7314
 1238TIP3   OH225128   6.458   4.744  13.751 -0.0433  0.4802 -0.0568
 1238TIP3    H125129   6.433   4.679  13.685  0.6150 -0.1144  0.2555
 1238TIP3    H225130   6.417   4.713  13.832  0.3281  0.3992  0.1069
 1239TIP3   OH225131   5.952   4.009   3.876 -0.3329 -0.3355 -0.0353
 1239TIP3    H125132   6.025   4.049   3.827 -1.0431  1.0085 -0.0420
 1239TIP3    H225133   5.873   4.041   3.832 -0.9882  0.7581  1.8282
 1240TIP3   OH225134   1.268   6.019  11.736  0.2783  0.0613  0.4772
 1240TIP3    H125135   1.283   5.924  11.737  0.5532  0.1005  2.3530
 1240TIP3    H225136   1.310   6.048  11.655  1.4086 -1.2218  0.5605
 1241TIP3   OH225137   5.580   2.682   0.352 -0.2118  0.9288 -0.0391
 1241TIP3    H125138   5.658   2.738   0.345 -0.2194  0.8755 -0.5342
 1241TIP3    H225139   5.581   2.653   0.443 -0.1943  1.7169  0.2218
 1242TIP3   OH225140   3.970   4.654  12.889 -0.1691  0.4986  0.0510
 1242TIP3    H125141   3.913   4.704  12.830 -1.5336  1.4627  2.0970
 1242TIP3    H225142   3.911   4.596  12.936  0.5789  1.1709  1.8931
 1243TIP3   OH225143   3.836   1.587   4.054  0.0695 -0.6533  0.4752
 1243TIP3    H125144   3.895   1.521   4.090  0.0771 -1.9603 -1.7244
 1243TIP3    H225145   3.762   1.537   4.020 -1.5685  0.8151  1.7086
 1244TIP3   OH225146   3.467   6.219  11.807 -0.8118  0.2730  0.1984
 1244TIP3    H125147   3.385   6.210  11.759  0.1489 -0.0171 -1.4750
 1244TIP3    H225148   3.494   6.130  11.827 -1.4572  0.4041  1.8021
 1245TIP3   OH225149   6.121   1.057  13.779 -0.0131  0.4183  0.1033
 1245TIP3    H125150   6.216   1.057  13.777  0.0127  1.5565  0.5031
 1245TIP3    H225151   6.097   1.148  13.799 -1.1178 -0.2534  2.1874
 1246TIP3   OH225152   3.393   1.005  13.891  0.3445 -0.5296  0.2932
 1246TIP3    H125153   3.462   1.004  13.957 -1.3573  0.6466  2.2078
 1246TIP3    H225154   3.374   0.913  13.875  1.1875 -0.8398  0.9947
 1247TIP3   OH225155   4.957   1.933   3.415  0.1285  0.1325  0.3668
 1247TIP3    H125156   4.988   1.893   3.333 -0.3248  2.3798 -0.9678
 1247TIP3    H225157   4.890   1.995   3.388  0.7882  1.7956  2.3099
 1248TIP3   OH225158   3.546   5.163  10.378 -0.7052  0.0088 -0.2986
 1248TIP3    H125159   3.540   5.070  10.355  1.5661 -0.1723 -0.3120
 1248TIP3    H225160   3.496   5.170  10.460  0.3436 -1.5462  0.5207
 1249TIP3   OH225161   3.873   5.532  16.295  0.1459  0.0140  0.0774
 1249TIP3    H125162   3.894   5.626  16.300  1.0676 -0.2423  1.7863
 1249TIP3    H225163   3.778   5.529  16.299 -0.0578  0.9537 -2.3361
 1250TIP3   OH225164   6.038   2.087   0.062 -0.3676  0.1948  0.2218
 1250TIP3    H125165   5.990   2.159   0.104  0.8658  0.4290  1.2978
 1250TIP3    H225166   6.123   2.085   0.107  0.6321 -0.2315 -1.6035
 1251TIP3   OH225167   0.101   3.475   5.243  0.5143  0.4423 -0.1836
 1251TIP3    H125168   0.140   3.520   5.318 -0.0387  0.7196 -0.0537
 1251TIP3    H225169   0.026   3.530   5.219  0.1210 -0.1503 -0.3352
 1252TIP3   OH225170   6.107   6.800   1.943  0.0455  0.3737  0.0858
 1252TIP3    H125171   6.138   6.755   1.865 -1.7491 -0.0200 -0.4353
 1252TIP3    H225172   6.116   6.893   1.923  0.9332  0.2792 -0.0021
 1253TIP3   OH225173   3.801   2.794  10.560  0.3553  0.8737  0.0445
 1253TIP3    H125174   3.776   2.702  10.568  1.7360  0.6029  1.9918
 1253TIP3    H225175   3.896   2.795  10.575  0.3176  2.6393  0.4316
 1254TIP3   OH225176   2.591   5.386   4.442  0.6072  0.9095  0.6243
 1254TIP3    H125177   2.534   5.417   4.372  0.4602  1.2488  0.8936
 1254TIP3    H225178   2.553   5.302   4.469  0.1560  1.2027  0.8984
 1255TIP3   OH225179   3.697   4.867   2.634 -0.0084 -0.1377 -0.2116
 1255TIP3    H125180   3.604   4.846   2.635  0.2978 -1.6113  0.9269
 1255TIP3    H225181   3.736   4.802   2.575  0.6201 -1.3104  1.4110
 1256TIP3   OH225182   1.023   6.193   3.340 -0.3504  0.5298 -0.6811
 1256TIP3    H125183   1.099   6.248   3.359 -1.2615  1.7803 -0.5861
 1256TIP3    H225184   0.956   6.253   3.309 -1.5952 -0.4258  0.0413
 1257TIP3   OH225185   4.832   0.278  14.240 -0.2172 -0.0938  0.9011
 1257TIP3    H125186   4.777   0.354  14.220 -2.4142 -1.8960 -0.3608
 1257TIP3    H225187   4.791   0.238  14.317 -0.0137 -0.8588  0.6190
 1258TIP3   OH225188   0.713   4.572   2.078  0.2240  0.6832 -0.1819
 1258TIP3    H125189   0.720   4.583   2.173  3.3737 -0.6936 -0.1225
 1258TIP3    H225190   0.624   4.539   2.064  0.0565 -0.1682  2.4185
 1259TIP3   OH225191   6.348   1.580  10.238 -0.5575 -0.2066  0.6865
 1259TIP3    H125192   6.328   1.629  10.318 -0.4105  0.9366  0.0486
 1259TIP3    H225193   6.267   1.585  10.187  0.2285  1.6375 -0.4955
 1260TIP3   OH225194   0.863   5.550   4.002  0.2286 -0.0485  0.1342
 1260TIP3    H125195   0.836   5.616   3.939  1.9764  1.1634  0.6006
 1260TIP3    H225196   0.782   5.502   4.022 -0.7617  0.8884 -1.4081
 1261TIP3   OH225197   3.694   5.983   1.488  0.9464 -0.4148 -0.6403
 1261TIP3    H125198   3.694   5.900   1.535 -0.2871  0.3884  0.8921
 1261TIP3    H225199   3.698   6.049   1.557 -1.1814  0.8451 -1.6258
 1262TIP3   OH225200   3.403   3.092   2.537  0.0236 -0.0638 -0.2342
 1262TIP3    H125201   3.374   3.173   2.494 -1.3441 -1.8429 -3.0115
 1262TIP3    H225202   3.381   3.104   2.629 -0.7098  2.4785 -0.6752
 1263TIP3   OH225203   5.151   2.501  10.748  0.4570 -0.2558  0.1682
 1263TIP3    H125204   5.177   2.409  10.737  0.1247 -0.4220  0.7532
 1263TIP3    H225205   5.119   2.506  10.838  1.5545  0.7061  0.5204
 1264TIP3   OH225206   1.061   1.485  15.175  0.2020  0.0141  0.1961
 1264TIP3    H125207   1.137   1.522  15.131 -0.4259 -1.2341 -2.1023
 1264TIP3    H225208   1.054   1.396  15.140 -1.6415 -0.2918  1.2018
 1265TIP3   OH225209   5.648   0.616  16.091 -0.2764 -0.1611 -0.7235
 1265TIP3    H125210   5.716   0.682  16.079  1.5240 -1.1836  2.4545
 1265TIP3    H225211   5.690   0.534  16.068  0.2212 -0.9793  2.5781
 1266TIP3   OH225212   1.733   2.788   3.922 -0.3727  0.1817  0.1184
 1266TIP3    H125213   1.785   2.788   3.842  0.3109  0.8168  0.5457
 1266TIP3    H225214   1.645   2.764   3.894 -0.0499 -0.0089 -0.7582
 1267TIP3   OH225215   0.418   1.986  10.804 -0.4080  0.4114  0.1555
 1267TIP3    H125216   0.338   1.944  10.774  0.3955 -0.4651 -0.8094
 1267TIP3    H225217   0.455   1.926  10.869  0.4039 -0.0948 -0.7501
 1268TIP3   OH225218   2.952   1.350  16.739 -0.4954 -0.4057  0.1512
 1268TIP3    H125219   2.873   1.317  16.783  0.2820 -0.2597  1.7303
 1268TIP3    H225220   2.986   1.275  16.692 -0.4784 -1.0337  1.1297
 1269TIP3   OH225221   2.211   6.280   1.695  0.1573 -0.4892 -0.6239
 1269TIP3    H125222   2.164   6.361   1.712  0.2189 -0.4400 -0.6888
 1269TIP3    H225223   2.302   6.306   1.686  0.2669 -0.6549  0.0239
 1270TIP3   OH225224   3.486   2.284   5.214  0.0046  0.1434 -0.0069
 1270TIP3    H125225   3.487   2.333   5.132  0.0749  0.5015  0.2053
 1270TIP3    H225226   3.565   2.311   5.260  0.6144 -0.9870 -0.3530
 1271TIP3   OH225227   2.057   5.638   2.521 -0.0372  0.9015  1.0918
 1271TIP3    H125228   2.043   5.732   2.517  1.5149  1.1088 -1.1164
 1271TIP3    H225229   2.100   5.623   2.605 -0.3518  2.1525  1.4866
 1272TIP3   OH225230   0.862   2.650  11.458  0.8646 -0.2874  0.1018
 1272TIP3    H125231   0.889   2.664  11.549 -1.0273  0.6295  0.5787
 1272TIP3    H225232   0.919   2.707  11.407  1.9010 -0.7534  0.6985
 1273TIP3   OH225233   1.170   3.457  12.345  0.0143 -0.0968 -0.3409
 1273TIP3    H125234   1.223   3.402  12.402 -0.3872 -0.1121  0.0263
 1273TIP3    H225235   1.189   3.547  12.373 -0.6127 -0.1273  0.2143
 1274TIP3   OH225236   1.673   0.824   4.579  0.4184 -0.5618 -0.0112
 1274TIP3    H125237   1.736   0.879   4.532  2.0245  0.3901  2.9850
 1274TIP3    H225238   1.603   0.809   4.516  2.3110  0.7096 -2.5981
 1275TIP3   OH225239   4.832   3.583  15.290 -0.5932  0.2829  0.0540
 1275TIP3    H125240   4.873   3.661  15.327 -0.4074  1.6422 -2.7439
 1275TIP3    H225241   4.742   3.586  15.322 -0.1978  0.8431  1.1457
 1276TIP3   OH225242   4.717   5.453   0.691  0.0043 -0.1838 -0.4090
 1276TIP3    H125243   4.665   5.410   0.622 -0.3976 -0.0230 -0.2093
 1276TIP3    H225244   4.713   5.546   0.669  3.0087 -0.3645 -2.3452
 1277TIP3   OH225245   1.642   6.653   3.806 -0.0872 -0.6750 -0.6161
 1277TIP3    H125246   1.718   6.701   3.774  0.1490 -1.3021 -1.0045
 1277TIP3    H225247   1.655   6.563   3.777 -0.5133 -0.9911  0.1211
 1278TIP3   OH225248   6.161   3.289   3.819 -0.9916 -0.0581 -0.1768
 1278TIP3    H125249   6.071   3.309   3.845 -0.5620  1.3096  0.3378
 1278TIP3    H225250   6.209   3.286   3.902 -0.6345 -1.2052 -0.4124
 1279TIP3   OH225251   0.021   5.348   1.116 -0.0727  0.2727  0.4662
 1279TIP3    H125252  -0.074   5.345   1.108  0.0275 -1.4686 -0.6068
 1279TIP3    H225253   0.052   5.348   1.025  0.9586  0.5786  0.8061
 1280TIP3   OH225254   5.998   5.257  15.442 -0.1872 -0.0235  0.6173
 1280TIP3    H125255   5.999   5.287  15.351  0.3304 -2.0639 -0.1208
 1280TIP3    H225256   5.993   5.337  15.494  1.3120  1.3108 -1.1573
 1281TIP3   OH225257   2.398   3.820   1.401 -0.4480 -0.0433 -0.6237
 1281TIP3    H125258   2.333   3.750   1.392 -0.1539 -0.1855 -1.8061
 1281TIP3    H225259   2.398   3.864   1.316  0.8859  0.0421 -0.6045
 1282TIP3   OH225260   1.197   5.943  17.050 -0.1573 -0.5844  0.1551
 1282TIP3    H125261   1.287   5.932  17.080  0.6566  1.9359 -1.0825
 1282TIP3    H225262   1.204   5.995  16.970 -2.8014  2.4440  1.6285
 1283TIP3   OH225263   6.655   1.308   1.468  0.3195  0.2590  0.0600
 1283TIP3    H125264   6.608   1.243   1.520 -0.0666 -0.4594 -1.1436
 1283TIP3    H225265   6.597   1.384   1.464  0.8629  0.7888  1.6554
 1284TIP3   OH225266   2.091   1.291  11.349 -0.3629 -0.4531  0.0463
 1284TIP3    H125267   2.120   1.203  11.323  0.1488  0.1125 -1.4128
 1284TIP3    H225268   2.024   1.314  11.285 -0.0476  0.4536  0.0238
 1285TIP3   OH225269   0.510   2.246  11.284 -0.6017 -0.1450  0.6012
 1285TIP3    H125270   0.471   2.266  11.199  1.4489  2.6458  0.1653
 1285TIP3    H225271   0.450   2.286  11.347 -0.8917 -0.0599  0.2755
 1286TIP3   OH225272   5.742   1.034   0.830  0.1936 -0.3476 -0.6820
 1286TIP3    H125273   5.684   0.988   0.891  0.5966 -0.3658 -0.3072
 1286TIP3    H225274   5.826   0.988   0.838 -0.1063 -1.2829 -2.2984
 1287TIP3   OH225275   1.034   5.239   0.309 -0.3589  0.0113  0.2881
 1287TIP3    H125276   0.965   5.218   0.246 -1.2333  0.3135  1.1261
 1287TIP3    H225277   0.991   5.293   0.375  0.7902  0.5850  0.5969
 1288TIP3   OH225278   5.025   0.250   4.371 -0.5598  0.6207  0.4898
 1288TIP3    H125279   5.097   0.187   4.373 -2.0357 -1.2935 -1.2785
 1288TIP3    H225280   5.015   0.272   4.278 -3.2508 -0.5240  0.4130
 1289TIP3   OH225281   2.910   2.832   3.112  0.7542  0.4160  0.4650
 1289TIP3    H125282   2.943   2.769   3.048  0.6496  1.4937 -0.6824
 1289TIP3    H225283   2.867   2.778   3.178  0.2045 -0.7054 -0.7558
 1290TIP3   OH225284   6.630   2.583   3.629 -0.0192 -0.3347 -0.4343
 1290TIP3    H125285   6.683   2.505   3.613 -0.7771 -0.7816 -0.7763
 1290TIP3    H225286   6.684   2.656   3.596  0.2890 -0.8036 -0.9748
 1291TIP3   OH225287   6.497   4.805   2.735  0.2887 -0.0218 -0.0336
 1291TIP3    H125288   6.419   4.780   2.785  0.2596 -0.2811 -0.2078
 1291TIP3    H225289   6.522   4.890   2.771  0.8317 -0.6340  1.0824
 1292TIP3   OH225290   5.297   3.523  13.040 -0.5688  0.4945  0.5589
 1292TIP3    H125291   5.302   3.543  12.947 -0.3007 -0.3541  0.3844
 1292TIP3    H225292   5.206   3.540  13.063 -1.1962 -1.3216 -0.3584
 1293TIP3   OH225293   6.801   2.758   5.223  0.4634  0.0399 -0.0903
 1293TIP3    H125294   6.792   2.719   5.135 -0.2858 -0.2989  0.1258
 1293TIP3    H225295   6.769   2.690   5.282  0.1505  0.5860  0.3779
 1294TIP3   OH225296   3.815   6.220  14.186 -0.5141 -0.2860  0.3321
 1294TIP3    H125297   3.844   6.260  14.268 -0.4667  0.6776 -0.1465
 1294TIP3    H225298   3.748   6.157  14.213 -0.2547 -0.2304  1.1379
 1295TIP3   OH225299   0.466   3.084   5.805  0.3875  0.5095  0.6772
 1295TIP3    H125300   0.493   3.041   5.723 -1.2693  0.7421 -0.0433
 1295TIP3    H225301   0.530   3.055   5.870  0.8407 -0.9536 -0.3633
 1296TIP3   OH225302   1.934   2.500  15.716 -0.4770 -0.1754  0.3401
 1296TIP3    H125303   1.947   2.509  15.810  1.7620  1.3503 -0.0192
 1296TIP3    H225304   1.972   2.580  15.679  0.0077 -1.3615 -1.9376
 1297TIP3   OH225305   6.338   3.936  13.016  0.2384  0.4554  0.1209
 1297TIP3    H125306   6.255   3.973  12.986  1.2695  2.3630 -0.5663
 1297TIP3    H225307   6.402   4.005  12.999  1.6114  0.0046  2.8476
 1298TIP3   OH225308   4.909   1.294  16.282 -0.2094 -0.5948 -0.1955
 1298TIP3    H125309   4.976   1.308  16.215 -0.6939 -2.2433 -1.0751
 1298TIP3    H225310   4.826   1.310  16.237 -0.4926  2.7473  1.2146
 1299TIP3   OH225311   6.568   3.248   1.564  0.2944 -0.4854 -0.0353
 1299TIP3    H125312   6.543   3.161   1.595  0.8941 -0.2502  1.1962
 1299TIP3    H225313   6.663   3.252   1.576  0.2844  0.3098 -0.1427
 1300TIP3   OH225314   2.110   6.251  11.434  0.2270 -0.4495  0.5528
 1300TIP3    H125315   2.025   6.231  11.397  0.3563 -0.8349  0.4603
 1300TIP3    H225316   2.160   6.289  11.362  0.2575 -0.5775  0.5054
 1301TIP3   OH225317   4.679   1.226  13.807  0.1669 -0.1765  0.2177
 1301TIP3    H125318   4.690   1.151  13.864  0.4970  0.9112  1.6251
 1301TIP3    H225319   4.742   1.212  13.736  0.7735 -0.8349  0.8739
 1302TIP3   OH225320   3.889   6.037  12.351  0.1172 -0.7592 -0.3110
 1302TIP3    H125321   3.813   6.032  12.293 -0.7577  1.5506  0.5074
 1302TIP3    H225322   3.962   6.007  12.297 -0.6383  1.2745 -2.7000
 1303TIP3   OH225323   2.390   5.732  14.607  0.2237  0.0713  0.3172
 1303TIP3    H125324   2.441   5.811  14.625  1.3204 -0.6064  0.2778
 1303TIP3    H225325   2.323   5.730  14.675 -0.0807  1.2480  0.0668
 1304TIP3   OH225326   1.787   1.971  16.043 -0.7426 -0.3858  0.0736
 1304TIP3    H125327   1.762   1.901  16.104  0.6011  0.3896  1.5849
 1304TIP3    H225328   1.872   1.944  16.008 -1.2281 -0.5304 -1.0368
 1305TIP3   OH225329   1.398   4.442  10.753  0.0368 -0.6055 -0.2012
 1305TIP3    H125330   1.466   4.396  10.704 -0.2691 -1.8907  0.5269
 1305TIP3    H225331   1.326   4.380  10.758 -0.5062  0.0579  0.5770
 1306TIP3   OH225332   0.136   1.015   6.177 -0.1352  0.1494 -0.2487
 1306TIP3    H125333   0.139   0.920   6.190  1.5997  0.2698  0.4593
 1306TIP3    H225334   0.125   1.051   6.265 -2.2651  0.6055 -0.6428
 1307TIP3   OH225335   1.477   0.764  15.946  0.4324 -0.0916 -0.2501
 1307TIP3    H125336   1.451   0.718  15.866  2.0174  1.1702 -1.5724
 1307TIP3    H225337   1.416   0.837  15.953  0.6381  0.1161 -0.6248
 1308TIP3   OH225338   0.425   3.503  12.432  0.4269  0.5696 -0.0213
 1308TIP3    H125339   0.435   3.596  12.452  0.8595  0.9448 -1.8012
 1308TIP3    H225340   0.514   3.467  12.438  0.2370  0.1983  0.8461
 1309TIP3   OH225341   1.161   2.975   4.877  0.4039 -0.0532  0.0272
 1309TIP3    H125342   1.158   2.968   4.973 -0.5719  0.8414  0.0835
 1309TIP3    H225343   1.243   3.021   4.859 -0.3003  1.5097  0.5952
 1310TIP3   OH225344   4.847   3.604  12.026  0.1058  0.2395  0.1287
 1310TIP3    H125345   4.856   3.564  12.112  1.0519 -0.0318 -0.0834
 1310TIP3    H225346   4.766   3.568  11.990  0.1374 -0.2723  0.5707
 1311TIP3   OH225347   6.654   2.170   5.638  0.2005  0.3531 -0.0996
 1311TIP3    H125348   6.592   2.161   5.711  0.2720  0.5983 -0.0059
 1311TIP3    H225349   6.691   2.083   5.626 -0.8519 -0.0222 -0.7739
 1312TIP3   OH225350   4.902   3.204  11.970 -0.4715 -1.0599  0.5975
 1312TIP3    H125351   4.955   3.127  11.950  1.5796  0.7294 -1.6679
 1312TIP3    H225352   4.955   3.254  12.032  1.4758  1.3694 -2.6414
 1313TIP3   OH225353   5.638   4.736  13.334 -0.0053 -0.9261 -0.5081
 1313TIP3    H125354   5.627   4.744  13.240 -1.4805 -0.8819 -0.3619
 1313TIP3    H225355   5.633   4.826  13.367 -0.9858 -1.0501 -0.2739
 1314TIP3   OH225356   2.183   1.260  11.695  0.3733  0.6188 -0.1616
 1314TIP3    H125357   2.139   1.219  11.769  0.4927  0.7165 -0.0346
 1314TIP3    H225358   2.201   1.189  11.634  0.2560  0.5422 -0.1061
 1315TIP3   OH225359   0.370   2.375   2.024 -0.0270 -0.0346  0.6604
 1315TIP3    H125360   0.312   2.451   2.027 -0.0243  0.1374 -1.7312
 1315TIP3    H225361   0.313   2.301   2.046 -0.1551  0.5488  2.4492
 1316TIP3   OH225362   2.856   4.991   1.188  0.3119  0.3041 -0.4228
 1316TIP3    H125363   2.768   4.961   1.165 -0.0730 -0.5032  1.8193
 1316TIP3    H225364   2.914   4.920   1.161 -0.0683 -0.3954  0.5331
 1317TIP3   OH225365   1.388   0.972  11.648 -0.0553  0.2110 -0.2089
 1317TIP3    H125366   1.364   1.002  11.736  0.5152  1.0810 -0.3380
 1317TIP3    H225367   1.332   1.024  11.589 -0.6615 -0.5932 -0.3543
 1318TIP3   OH225368   1.411   1.420   4.922 -0.4106 -0.2557  0.0950
 1318TIP3    H125369   1.439   1.468   4.844 -0.6059  0.1879  0.2952
 1318TIP3    H225370   1.482   1.359   4.939 -0.5657 -0.6756 -0.6962
 1319TIP3   OH225371   0.410   1.638  12.669  0.2395  0.3136  0.4566
 1319TIP3    H125372   0.350   1.647  12.595 -0.1092 -0.9373  0.5608
 1319TIP3    H225373   0.396   1.717  12.722  0.2458  1.0480 -0.6245
 1320TIP3   OH225374   3.266   0.547  16.427  0.6569 -0.1709  0.0913
 1320TIP3    H125375   3.357   0.518  16.425  0.1889 -1.7438 -1.5550
 1320TIP3    H225376   3.216   0.471  16.396 -1.2236  0.6388  0.9825
 1321TIP3   OH225377   4.463   3.678  14.995 -0.6284 -0.6037  0.0070
 1321TIP3    H125378   4.555   3.659  14.977 -0.2813  1.3219 -0.5336
 1321TIP3    H225379   4.464   3.717  15.083 -0.8888 -0.4430 -0.0581
 1322TIP3   OH225380   5.734   2.012   1.406  0.0300 -0.7131 -0.1231
 1322TIP3    H125381   5.821   1.979   1.383  2.0272  2.0153  2.6386
 1322TIP3    H225382   5.698   1.946   1.465  2.1244 -0.1649  1.9486
 1323TIP3   OH225383   3.142   1.126  12.333  0.0067 -0.1284 -0.7210
 1323TIP3    H125384   3.145   1.199  12.394  0.6065  0.2582 -1.2043
 1323TIP3    H225385   3.158   1.049  12.387  2.6844  0.3838 -0.6443
 1324TIP3   OH225386   0.668   2.078   3.086 -0.2214  0.2195  0.4469
 1324TIP3    H125387   0.573   2.091   3.089 -0.1895  1.3425 -1.5603
 1324TIP3    H225388   0.689   2.076   2.993  1.9704  2.0108  0.7973
 1325TIP3   OH225389   2.350   5.145   1.055 -0.5322 -0.8079 -0.0222
 1325TIP3    H125390   2.353   5.239   1.035  0.9037 -1.3363 -2.7630
 1325TIP3    H225391   2.393   5.138   1.141 -2.1171  1.1392  1.0148
 1326TIP3   OH225392   2.799   5.846  11.947  0.0951 -0.1199 -0.0853
 1326TIP3    H125393   2.830   5.886  12.028 -1.1282  0.3867  0.1712
 1326TIP3    H225394   2.737   5.911  11.912 -2.0065 -1.7658  0.3696
 1327TIP3   OH225395   4.563   4.583  13.344 -0.4020 -0.8218 -0.5151
 1327TIP3    H125396   4.570   4.638  13.421 -0.3778 -1.4357 -0.0663
 1327TIP3    H225397   4.642   4.528  13.347  0.4216  0.2203 -1.8418
 1328TIP3   OH225398   2.961   4.177  14.303  0.5019 -0.2051  0.4442
 1328TIP3    H125399   3.001   4.252  14.259  1.1913  0.0620  1.4985
 1328TIP3    H225400   2.880   4.212  14.341 -0.3408 -0.5482 -0.9764
 1329TIP3   OH225401   3.667   0.991  12.615  0.3883 -0.6185 -0.3449
 1329TIP3    H125402   3.675   1.014  12.708  0.2299 -0.9088 -0.2556
 1329TIP3    H225403   3.736   0.925  12.601 -0.2593 -1.3507 -0.1688
 1330TIP3   OH225404   1.464   5.739   0.201  0.3299 -0.4423  0.0232
 1330TIP3    H125405   1.374   5.754   0.229  1.1056  3.2989  1.0496
 1330TIP3    H225406   1.503   5.689   0.273 -0.2752  0.3473  0.9328
 1331TIP3   OH225407   4.051   1.650  15.332 -0.0228 -0.3229 -0.0899
 1331TIP3    H125408   4.076   1.685  15.418  4.1789  2.5660 -2.1230
 1331TIP3    H225409   3.962   1.682  15.319 -0.5043 -0.1827  2.8305
 1332TIP3   OH225410   6.437   2.770  11.235 -0.4266  0.5108  0.1953
 1332TIP3    H125411   6.408   2.682  11.258 -2.3655  0.1640 -2.9558
 1332TIP3    H225412   6.504   2.756  11.167  0.2836  1.4766  0.6744
 1333TIP3   OH225413   4.139   2.699   0.639 -0.3496  0.6430 -0.2287
 1333TIP3    H125414   4.142   2.786   0.678  1.2184  0.4213  0.2268
 1333TIP3    H225415   4.161   2.639   0.710 -1.1599 -0.1137 -0.5942
 1334TIP3   OH225416   4.206   6.051  14.752 -0.1843  0.2660  0.1032
 1334TIP3    H125417   4.252   5.969  14.773 -0.5013  0.2275  0.6604
 1334TIP3    H225418   4.223   6.108  14.826  0.8687  1.0864 -0.7251
 1335TIP3   OH225419   3.121   2.723  16.346  0.1661  0.0680 -0.1298
 1335TIP3    H125420   3.026   2.739  16.344 -0.1705 -1.7164  0.3126
 1335TIP3    H225421   3.135   2.654  16.282  1.4486  1.4030 -1.3882
 1336TIP3   OH225422   1.434   4.848  12.288  0.4349  0.5964  0.2826
 1336TIP3    H125423   1.351   4.894  12.273  0.6138  1.2551  1.2544
 1336TIP3    H225424   1.417   4.790  12.362  0.0004 -1.5065 -1.3767
 1337TIP3   OH225425   4.255   0.526   5.845 -0.3178 -0.3290 -0.6110
 1337TIP3    H125426   4.324   0.510   5.910 -0.4864 -0.2576 -0.4130
 1337TIP3    H225427   4.243   0.620   5.846  1.4134 -0.0024 -2.5343
 1338TIP3   OH225428   0.629   6.563  14.957 -0.4047  0.0496  0.1623
 1338TIP3    H125429   0.714   6.525  14.982 -0.6974 -1.1708 -0.5592
 1338TIP3    H225430   0.565   6.513  15.007 -0.7474  0.2464 -0.0778
 1339TIP3   OH225431   3.816   6.184   4.896 -0.5948 -0.2893  0.0891
 1339TIP3    H125432   3.909   6.183   4.922 -0.4012 -1.8897 -0.5464
 1339TIP3    H225433   3.771   6.221   4.972  0.3564 -1.3785  1.2371
 1340TIP3   OH225434   4.851   5.086  15.155 -0.1246  0.4923 -0.0103
 1340TIP3    H125435   4.934   5.048  15.126  0.1740  1.0343  0.1213
 1340TIP3    H225436   4.800   5.011  15.187 -0.6676 -0.2249 -2.3675
 1341TIP3   OH225437   3.473   3.750  14.324 -0.0645 -0.1892  0.0812
 1341TIP3    H125438   3.537   3.784  14.262  0.4675  0.1336  0.8001
 1341TIP3    H225439   3.514   3.673  14.361  0.3509  0.5854  1.2841
 1342TIP3   OH225440   2.141   5.252  11.790  0.0047  0.1063 -0.0062
 1342TIP3    H125441   2.156   5.162  11.820 -1.4068 -0.1826 -0.1341
 1342TIP3    H225442   2.065   5.246  11.733  1.4480  0.9560 -2.1605
 1343TIP3   OH225443   6.423   2.006  16.300  0.1981 -0.0746 -0.1775
 1343TIP3    H125444   6.516   2.005  16.276 -0.0097  0.4788 -1.0381
 1343TIP3    H225445   6.423   2.028  16.393  1.0264 -2.1178  0.3741
 1344TIP3   OH225446   3.762   6.656   3.729  0.5588 -0.2427 -0.1646
 1344TIP3    H125447   3.842   6.651   3.676  1.2613  3.7106  0.2040
 1344TIP3    H225448   3.750   6.750   3.744 -4.4208 -0.5836 -0.5224
 1345TIP3   OH225449   1.152   1.084   2.419 -0.8214  0.2651 -0.1856
 1345TIP3    H125450   1.141   1.038   2.502 -0.3777  0.1692 -0.1784
 1345TIP3    H225451   1.227   1.143   2.434 -0.7008  0.2026 -0.5343
 1346TIP3   OH225452   6.291   3.954  15.152  0.3926  0.1712  0.5386
 1346TIP3    H125453   6.371   3.907  15.176 -0.4013 -2.5052 -1.5792
 1346TIP3    H225454   6.221   3.890  15.162 -0.9073  1.1476 -1.5125
 1347TIP3   OH225455   0.497   0.848   2.162  0.3794 -0.2738  0.4410
 1347TIP3    H125456   0.590   0.867   2.153  0.3685  0.4163  1.5399
 1347TIP3    H225457   0.468   0.907   2.232 -1.5916  1.8595 -1.9624
 1348TIP3   OH225458   3.682   6.387  14.004 -0.1653  0.3793 -0.3087
 1348TIP3    H125459   3.726   6.402  13.921 -0.4552 -0.9889 -0.7322
 1348TIP3    H225460   3.743   6.334  14.055 -0.4913  0.1839 -0.1138
 1349TIP3   OH225461   3.328   1.094   5.564  0.4700 -0.0710  0.5726
 1349TIP3    H125462   3.349   1.167   5.621  2.6753  1.8706 -2.3969
 1349TIP3    H225463   3.406   1.038   5.568 -0.8975 -2.0056  2.2377
 1350TIP3   OH225464   4.911   3.119  12.596  0.2664 -0.2733  0.3020
 1350TIP3    H125465   4.821   3.098  12.619  0.0055  0.7293  0.2137
 1350TIP3    H225466   4.957   3.121  12.680  0.9337 -3.8054  0.1946
 1351TIP3   OH225467   2.141   0.681   5.716  0.2215  0.1682  0.0931
 1351TIP3    H125468   2.118   0.687   5.624  2.5780  0.5138 -0.5364
 1351TIP3    H225469   2.057   0.682   5.762 -0.9548  2.6910 -1.8829
 1352TIP3   OH225470   3.987   5.759   1.452 -0.5529  0.2652 -0.6016
 1352TIP3    H125471   3.965   5.751   1.359  0.1688 -0.0256 -0.7532
 1352TIP3    H225472   4.071   5.714   1.461 -2.4717 -3.4923  0.9929
 1353TIP3   OH225473   3.834   2.783  12.610 -0.2369  0.0936 -0.0138
 1353TIP3    H125474   3.883   2.864  12.599  3.4912 -1.8985  0.0996
 1353TIP3    H225475   3.799   2.787  12.698  2.0204  0.6512  0.9295
 1354TIP3   OH225476   3.917   4.711  16.841  0.0508 -0.3106  0.6539
 1354TIP3    H125477   3.982   4.754  16.896  0.9543  0.5274 -1.0013
 1354TIP3    H225478   3.969   4.657  16.781 -0.7411  0.6855 -0.9679
 1355TIP3   OH225479   4.514   0.715  16.553 -0.0918  0.4372 -0.2641
 1355TIP3    H125480   4.474   0.770  16.486 -1.4690 -0.6504 -0.3567
 1355TIP3    H225481   4.556   0.644  16.504  2.3195  1.7115 -0.1953
 1356TIP3   OH225482   4.618   2.240  15.394 -0.2602 -0.1430  0.1673
 1356TIP3    H125483   4.594   2.175  15.328  0.8066  1.1996 -1.6054
 1356TIP3    H225484   4.692   2.201  15.440 -1.8019 -1.6492  1.5678
 1357TIP3   OH225485   1.847   3.911  15.217 -0.8578  0.2188  0.0766
 1357TIP3    H125486   1.805   3.962  15.286 -0.7224  0.6113 -0.1294
 1357TIP3    H225487   1.858   3.824  15.255  0.1323  0.6930  0.9115
 1358TIP3   OH225488   0.144   3.284   0.306 -0.2721  0.1300 -0.9810
 1358TIP3    H125489   0.234   3.281   0.337 -0.0986  2.4069 -1.0939
 1358TIP3    H225490   0.152   3.310   0.214 -1.0238  0.4216 -0.9708
 1359TIP3   OH225491   6.197   4.703   3.080  0.0031 -0.2743 -0.2961
 1359TIP3    H125492   6.235   4.615   3.085  1.0131  0.1972  1.2148
 1359TIP3    H225493   6.176   4.724   3.171 -2.8544 -0.0118 -0.9168
 1360TIP3   OH225494   4.128   0.670   1.886  0.2950  0.1829 -0.0467
 1360TIP3    H125495   4.170   0.726   1.952 -0.8464  0.2468  0.6572
 1360TIP3    H225496   4.036   0.669   1.911  0.0186 -0.6777 -1.0301
 1361TIP3   OH225497   5.547   5.717   5.251  0.6110 -0.6893 -0.2403
 1361TIP3    H125498   5.454   5.733   5.266  1.0539  0.5080  1.5795
 1361TIP3    H225499   5.556   5.716   5.156 -1.0405  0.5338 -0.4595
 1362TIP3   OH225500   4.331   2.515  13.875 -0.1628 -0.1000  0.1964
 1362TIP3    H125501   4.313   2.540  13.966  0.6035  0.3776  0.2252
 1362TIP3    H225502   4.366   2.426  13.881 -2.8178 -1.2586  0.1049
 1363TIP3   OH225503   0.397   3.464  10.844  0.5436  0.3501 -0.2703
 1363TIP3    H125504   0.371   3.394  10.784  0.9702 -0.6525  0.6805
 1363TIP3    H225505   0.482   3.436  10.877 -0.1882  0.3021  1.6546
 1364TIP3   OH225506   5.001   4.338   2.757  0.7556  0.5404  0.0577
 1364TIP3    H125507   4.965   4.308   2.840  1.9981  1.5617  1.0034
 1364TIP3    H225508   5.092   4.310   2.758  1.1536  1.7359 -0.3429
 1365TIP3   OH225509   2.828   4.439   3.915  0.0295 -0.4644  0.7081
 1365TIP3    H125510   2.844   4.513   3.973 -0.5696  0.2427 -0.0111
 1365TIP3    H225511   2.901   4.379   3.932  2.2015  1.5735 -0.7391
 1366TIP3   OH225512   0.703   6.759   2.450  0.1427  0.5145 -0.2088
 1366TIP3    H125513   0.657   6.843   2.445 -1.6011 -0.4030 -0.3227
 1366TIP3    H225514   0.723   6.737   2.360 -2.1935 -0.6110 -0.5295
 1367TIP3   OH225515   0.886   5.666  16.890  0.2061  0.1912  0.0109
 1367TIP3    H125516   0.935   5.597  16.936  1.3518  1.5818  0.9680
 1367TIP3    H225517   0.877   5.633  16.801  1.7501 -0.7122  0.1499
 1368TIP3   OH225518   1.195   3.567   6.128  0.3411 -0.5287 -0.0828
 1368TIP3    H125519   1.230   3.614   6.204  2.2264 -0.3553 -1.0109
 1368TIP3    H225520   1.101   3.581   6.133  0.4285 -0.2707  2.0503
 1369TIP3   OH225521   1.931   0.318  13.321 -0.0323  0.3740 -0.0215
 1369TIP3    H125522   1.981   0.266  13.258  0.3695  1.0222 -0.2546
 1369TIP3    H225523   1.849   0.271  13.332 -0.0422  0.1762 -0.9146
 1370TIP3   OH225524   5.133   1.330   2.458  0.1621  0.1759  0.3519
 1370TIP3    H125525   5.052   1.378   2.439  0.0806  0.0927  0.4910
 1370TIP3    H225526   5.131   1.318   2.553 -0.0425 -0.5091  0.2645
 1371TIP3   OH225527   4.244   5.517   5.230 -0.4869 -0.1337 -0.3580
 1371TIP3    H125528   4.240   5.605   5.267 -0.4186  0.3253 -1.4234
 1371TIP3    H225529   4.318   5.476   5.275 -0.2953  0.4676 -0.1077
 1372TIP3   OH225530   3.106   3.534   4.085  0.1370 -0.0337 -0.4064
 1372TIP3    H125531   3.121   3.580   4.003  1.6815 -2.1614 -1.4172
 1372TIP3    H225532   3.184   3.550   4.138  0.7870 -1.5555 -0.8509
 1373TIP3   OH225533   0.379   4.560   2.907 -0.4853 -0.3257  0.5973
 1373TIP3    H125534   0.373   4.649   2.944 -0.5726  0.7795 -1.8880
 1373TIP3    H225535   0.469   4.533   2.925  0.0566  0.9741 -0.0186
 1374TIP3   OH225536   3.987   3.257   3.251 -0.4984 -0.1649  0.0876
 1374TIP3    H125537   4.070   3.300   3.230  0.2842 -0.9119  1.5331
 1374TIP3    H225538   3.993   3.237   3.344 -2.9686  1.1836  0.6304
 1375TIP3   OH225539   4.555   2.878  14.081 -0.0983 -0.0783  0.2125
 1375TIP3    H125540   4.560   2.824  14.002 -0.2729  0.9679 -0.5351
 1375TIP3    H225541   4.463   2.902  14.088  0.2486  1.6244 -0.5290
 1376TIP3   OH225542   3.681   4.813  16.725 -0.1919 -0.2954  0.2022
 1376TIP3    H125543   3.697   4.847  16.637 -0.7954 -1.6450 -0.4693
 1376TIP3    H225544   3.768   4.787  16.757 -0.0451 -0.3818 -0.2561
 1377TIP3   OH225545   0.897   6.303  11.332  0.1017 -0.0827  0.3191
 1377TIP3    H125546   0.970   6.244  11.351  0.6511  1.1984  2.7302
 1377TIP3    H225547   0.845   6.304  11.413 -0.1470  2.2634  0.2155
 1378TIP3   OH225548   3.051   6.790   4.734  0.0754  0.0290  0.1362
 1378TIP3    H125549   3.001   6.726   4.683  1.4462 -0.2605 -0.9164
 1378TIP3    H225550   3.126   6.811   4.678  0.6916  1.0708  1.3058
 1379TIP3   OH225551   3.105   6.767   3.382  0.1729 -0.4982 -0.2865
 1379TIP3    H125552   3.022   6.765   3.334  1.0375  0.0931 -1.8859
 1379TIP3    H225553   3.096   6.698   3.447 -2.8742  1.6837  1.9375
 1380TIP3   OH225554   0.454   3.875   2.438 -0.2093 -0.5190  0.0781
 1380TIP3    H125555   0.365   3.863   2.471  0.6745 -1.7523  2.2285
 1380TIP3    H225556   0.502   3.798   2.469  1.4699 -0.2175 -1.5981
 1381TIP3   OH225557   1.028   2.759  10.933 -0.0610 -0.0337 -0.2270
 1381TIP3    H125558   0.947   2.708  10.923 -0.6724  0.7520  0.4922
 1381TIP3    H225559   1.008   2.844  10.894 -0.4690  1.0169  2.0774
 1382TIP3   OH225560   4.021   5.301   3.152  0.0495 -0.4138 -0.0527
 1382TIP3    H125561   3.980   5.220   3.123  0.3161 -1.0785  1.3343
 1382TIP3    H225562   4.001   5.306   3.246  3.7660 -1.2378  0.9610
 1383TIP3   OH225563   0.210   0.320  14.031 -0.2120 -0.5018 -0.2117
 1383TIP3    H125564   0.124   0.279  14.020 -0.7295  0.5939 -0.4695
 1383TIP3    H225565   0.205   0.399  13.978  0.3408  0.4690  1.1189
 1384TIP3   OH225566   1.871   2.111   3.263 -0.0060 -0.4434  0.7430
 1384TIP3    H125567   1.823   2.061   3.197 -0.5799  2.5143 -1.2345
 1384TIP3    H225568   1.803   2.142   3.323 -0.1707  1.0252 -0.1809
 1385TIP3   OH225569   0.745   1.388   1.390  0.1486  0.3542 -0.0014
 1385TIP3    H125570   0.718   1.332   1.317 -2.3327  0.5862  0.6402
 1385TIP3    H225571   0.771   1.327   1.459 -2.9956 -0.1702  0.8640
 1386TIP3   OH225572   1.608   6.439  12.919  0.4180  0.0904 -0.0793
 1386TIP3    H125573   1.602   6.409  12.828  2.9306  0.5453 -0.4744
 1386TIP3    H225574   1.600   6.359  12.971  1.9762 -0.6571 -0.8890
 1387TIP3   OH225575   5.576   2.294   4.739 -0.2472  0.4037 -0.0080
 1387TIP3    H125576   5.538   2.377   4.767 -3.5424 -1.1794  0.7509
 1387TIP3    H225577   5.552   2.232   4.809  1.2268 -1.3947 -1.0044
 1388TIP3   OH225578   5.570   3.019   5.573 -0.5714 -0.2996  0.0857
 1388TIP3    H125579   5.583   3.106   5.535 -0.6247 -0.1503  0.4072
 1388TIP3    H225580   5.540   3.036   5.662 -1.0123 -0.6473  0.0070
 1389TIP3   OH225581   2.928   3.150   2.817  0.3586  0.2524 -0.8082
 1389TIP3    H125582   2.867   3.099   2.871  1.5174 -0.9500 -0.5883
 1389TIP3    H225583   2.988   3.085   2.781  1.8801  1.4710 -0.5511
 1390TIP3   OH225584   2.835   5.882   2.219  0.2659 -0.0849 -0.3406
 1390TIP3    H125585   2.929   5.867   2.205  0.7406  2.1383  0.1016
 1390TIP3    H225586   2.798   5.884   2.130  1.1608  1.7630 -0.7305
 1391TIP3   OH225587   5.201   5.180  11.099  0.0997  0.3018  0.4109
 1391TIP3    H125588   5.284   5.136  11.076 -0.0904  0.6275 -0.9618
 1391TIP3    H225589   5.225   5.272  11.111 -0.0929  0.4303 -0.1795
 1392TIP3   OH225590   3.194   6.571  16.374 -0.5621 -0.0674  0.0730
 1392TIP3    H125591   3.224   6.492  16.420 -1.7640 -2.1261 -2.4278
 1392TIP3    H225592   3.102   6.581  16.401 -0.4902  0.3339  0.1765
 1393TIP3   OH225593   1.155   0.922   2.638 -0.5300  0.3060  0.5413
 1393TIP3    H125594   1.212   0.860   2.681 -0.5627  1.3227  2.1223
 1393TIP3    H225595   1.141   0.992   2.702 -0.7977  1.7637 -1.0131
 1394TIP3   OH225596   2.909   4.533  11.170  0.4232  0.2592  0.3257
 1394TIP3    H125597   2.880   4.533  11.261 -2.5534  1.7539 -0.4856
 1394TIP3    H225598   2.916   4.440  11.147  0.4041 -0.1446  1.8368
 1395TIP3   OH225599   4.739   2.598  11.489  0.4104  0.0525 -0.7776
 1395TIP3    H125600   4.688   2.658  11.435 -0.1132  0.4663  0.1660
 1395TIP3    H225601   4.692   2.593  11.571 -0.5880 -3.0808 -1.4229
 1396TIP3   OH225602   6.479   5.681  11.934  0.3028 -0.1517  0.8362
 1396TIP3    H125603   6.536   5.740  11.885  0.3757 -0.6119  0.3637
 1396TIP3    H225604   6.506   5.593  11.908  0.6347 -0.4138  2.0357
 1397TIP3   OH225605   2.643   6.056  11.859  0.1496  0.4306  0.1035
 1397TIP3    H125606   2.644   6.088  11.768  1.0139 -0.0480 -0.0680
 1397TIP3    H225607   2.565   6.002  11.865  1.0129 -1.0113 -0.9044
 1398TIP3   OH225608   3.227   1.940  15.611 -0.3099 -0.3318  0.2060
 1398TIP3    H125609   3.297   1.916  15.550  1.2134 -1.4116  2.2588
 1398TIP3    H225610   3.259   2.020  15.653 -0.6048 -0.4690  0.6901
 1399TIP3   OH225611   6.053   1.903  14.025 -0.3501  0.2605 -0.0161
 1399TIP3    H125612   5.987   1.856  14.075 -0.4422  0.6393  0.2239
 1399TIP3    H225613   6.108   1.945  14.092  1.1634 -1.4037 -0.1371
 1400TIP3   OH225614   6.358   2.849  14.027 -0.0803 -0.1198  0.3270
 1400TIP3    H125615   6.272   2.813  14.003 -0.5593 -0.5623  2.4910
 1400TIP3    H225616   6.338   2.926  14.080  0.9343  1.3827 -1.3467
 1401TIP3   OH225617   6.740   6.416  11.997 -0.1026 -0.4037  0.2707
 1401TIP3    H125618   6.658   6.367  12.005  0.8823 -2.7058 -2.2077
 1401TIP3    H225619   6.712   6.506  11.980 -2.2049 -1.2849 -1.5425
 1402TIP3   OH225620   0.552   5.854   3.747  0.0612 -0.2623  0.0348
 1402TIP3    H125621   0.586   5.942   3.763  0.1352 -0.2798 -0.0241
 1402TIP3    H225622   0.457   5.862   3.757  0.1110 -0.2897  0.5753
 1403TIP3   OH225623   4.337   5.157  13.360 -0.1526 -0.2249  0.5611
 1403TIP3    H125624   4.342   5.222  13.430 -0.4085  0.2247  0.1658
 1403TIP3    H225625   4.307   5.077  13.403 -0.0981 -0.0097  1.0030
 1404TIP3   OH225626   2.403   2.994   4.881  0.3873 -0.0027  0.0726
 1404TIP3    H125627   2.441   2.908   4.863 -0.8801 -0.6074  0.1105
 1404TIP3    H225628   2.335   3.004   4.814 -0.5859  0.2164  1.0527
 1405TIP3   OH225629   5.536   4.047  11.409 -0.0683 -0.5947 -0.1882
 1405TIP3    H125630   5.508   3.960  11.380  1.5592 -0.2784 -3.0328
 1405TIP3    H225631   5.625   4.056  11.376 -0.2926  2.2939 -0.2534
 1406TIP3   OH225632   6.374   6.559  16.456 -0.2704 -0.4554  0.2932
 1406TIP3    H125633   6.286   6.529  16.435 -0.3853 -1.1948  1.7019
 1406TIP3    H225634   6.432   6.500  16.407 -0.5298 -2.0891  1.8480
 1407TIP3   OH225635   1.062   0.563   6.087 -0.1673  0.4805  0.4760
 1407TIP3    H125636   1.038   0.571   6.179  0.8259 -4.5894  1.4481
 1407TIP3    H225637   0.981   0.539   6.042 -0.4527  2.0104  0.1074
 1408TIP3   OH225638   0.258   5.664  12.556  0.3497  0.2684 -0.1838
 1408TIP3    H125639   0.317   5.734  12.529 -0.9129  1.3633 -0.2250
 1408TIP3    H225640   0.261   5.600  12.485 -1.0288  1.9217 -1.8298
 1409TIP3   OH225641   4.286   3.834  15.324  0.4172  0.4500  0.0449
 1409TIP3    H125642   4.380   3.837  15.306  0.7539 -0.3721  1.4981
 1409TIP3    H225643   4.249   3.778  15.256  1.3784 -1.2611  0.8873
 1410TIP3   OH225644   5.357   4.229   5.035 -0.3749  0.3176  0.2815
 1410TIP3    H125645   5.284   4.291   5.049 -1.6876 -0.9215 -0.7327
 1410TIP3    H225646   5.420   4.278   4.982 -2.5260  0.1569 -2.7326
 1411TIP3   OH225647   1.444   5.044  11.062  0.1971  0.2626 -0.4506
 1411TIP3    H125648   1.366   5.063  11.114 -0.5218 -2.4729 -0.3773
 1411TIP3    H225649   1.460   5.124  11.013 -0.0853  2.4172  2.6411
 1412TIP3   OH225650   4.882   4.277   3.690 -0.0276 -0.0360 -0.1241
 1412TIP3    H125651   4.826   4.338   3.643  0.5888 -0.1277 -0.9926
 1412TIP3    H225652   4.858   4.191   3.657  0.7699 -0.0564 -0.6709
 1413TIP3   OH225653   1.639   6.433   5.898  0.3427  0.0903 -0.5831
 1413TIP3    H125654   1.655   6.395   5.812  1.6808  2.5290 -1.5043
 1413TIP3    H225655   1.674   6.522   5.892 -1.4096  1.0547  1.8305
 1414TIP3   OH225656   6.666   6.616  13.612 -0.0080 -0.0989 -0.7162
 1414TIP3    H125657   6.723   6.689  13.589 -1.8732  1.2344 -1.3384
 1414TIP3    H225658   6.649   6.628  13.706 -1.8513  1.5116 -1.1777
 1415TIP3   OH225659   1.077   4.513  15.960  0.1735 -0.2657 -0.4443
 1415TIP3    H125660   1.060   4.426  15.924  0.4701 -0.0367 -1.1513
 1415TIP3    H225661   1.132   4.497  16.037 -1.6985 -0.8783  0.8355
 1416TIP3   OH225662   1.793   3.941   2.563  0.8031 -0.1049 -0.1296
 1416TIP3    H125663   1.855   3.989   2.618  0.8664 -0.2048 -0.1127
 1416TIP3    H225664   1.822   3.850   2.569  0.7809 -0.1226 -0.2913
 1417TIP3   OH225665   5.250   4.381   0.789  0.3234  0.5551 -0.3164
 1417TIP3    H125666   5.278   4.370   0.698 -0.5213  2.5523 -0.8936
 1417TIP3    H225667   5.169   4.330   0.795  0.5213  0.2032 -0.6181
 1418TIP3   OH225668   1.500   5.994   4.052  0.5933  0.8452 -0.2362
 1418TIP3    H125669   1.490   6.055   4.125  1.7170  0.0031  0.6578
 1418TIP3    H225670   1.445   5.919   4.075  0.5661  0.7849 -0.4942
 1419TIP3   OH225671   5.665   4.286  12.946 -0.6347  0.1988 -0.5268
 1419TIP3    H125672   5.570   4.297  12.941 -0.5486  0.8153 -0.8572
 1419TIP3    H225673   5.681   4.256  13.036 -1.1964 -0.6003 -0.6816
 1420TIP3   OH225674   3.505   4.265   3.795  0.0470 -0.1706 -0.7018
 1420TIP3    H125675   3.484   4.356   3.814 -0.1956 -0.6587  1.5828
 1420TIP3    H225676   3.588   4.249   3.839  0.7325 -0.7394 -2.1334
 1421TIP3   OH225677   3.413   4.528   2.374 -0.2863  0.2157  0.4841
 1421TIP3    H125678   3.370   4.553   2.292  0.9037  1.1972  0.1389
 1421TIP3    H225679   3.431   4.434   2.363  0.6025  0.5021 -0.7534
 1422TIP3   OH225680   1.662   1.332   4.687  0.6756 -0.6826 -0.6198
 1422TIP3    H125681   1.668   1.322   4.782 -0.2467  1.1813 -0.3289
 1422TIP3    H225682   1.742   1.379   4.663  0.0333  0.5223 -0.4729
 1423TIP3   OH225683   3.679   2.905  13.547 -0.1773 -0.1145 -0.4420
 1423TIP3    H125684   3.583   2.899  13.551 -0.1217 -2.1721 -0.8671
 1423TIP3    H225685   3.709   2.844  13.615  0.8213 -0.1163 -0.8769
 1424TIP3   OH225686   2.037   1.999  15.850  0.3880 -0.0850 -0.1685
 1424TIP3    H125687   2.117   2.038  15.884 -0.4159  1.4864  0.0253
 1424TIP3    H225688   2.062   1.911  15.824  2.2127  0.4337 -0.2888
 1425TIP3   OH225689   5.021   0.646   0.449  0.3385  0.0144  0.5739
 1425TIP3    H125690   5.096   0.689   0.490 -0.0067 -0.6836  2.0141
 1425TIP3    H225691   5.050   0.556   0.435 -0.2010 -0.2528  1.1134
 1426TIP3   OH225692   4.199   4.263   4.228 -0.4037  0.4164 -0.6386
 1426TIP3    H125693   4.180   4.173   4.201 -2.3439  0.7033 -0.3822
 1426TIP3    H225694   4.285   4.259   4.270 -0.9295 -1.5192  0.3292
 1427TIP3   OH225695   4.461   3.298  13.925  0.0661 -0.0332 -0.0717
 1427TIP3    H125696   4.387   3.277  13.983  0.0450  2.5705  0.9548
 1427TIP3    H225697   4.426   3.363  13.864  1.0163 -0.2309 -0.8607
 1428TIP3   OH225698   4.332   3.173   5.273  0.1569  0.1103  0.2652
 1428TIP3    H125699   4.388   3.095   5.272  1.4946  1.0447 -0.4332
 1428TIP3    H225700   4.243   3.139   5.268  0.5611 -1.4821  2.3457
 1429TIP3   OH225701   4.705   6.780   5.003 -0.8461 -0.0214  0.2639
 1429TIP3    H125702   4.685   6.688   5.016 -1.7703  0.2163  0.5871
 1429TIP3    H225703   4.749   6.783   4.918  1.8834 -1.1101  1.5296
 1430TIP3   OH225704   0.296   6.429   2.895  0.1730  1.0473  0.3448
 1430TIP3    H125705   0.383   6.397   2.917  0.0785 -0.5237 -1.4080
 1430TIP3    H225706   0.307   6.524   2.890  1.8559  0.8677 -0.0861
 1431TIP3   OH225707   1.053   1.327   4.122 -0.4902 -0.2656  0.3817
 1431TIP3    H125708   1.092   1.394   4.067 -0.6385 -0.5141 -0.0310
 1431TIP3    H225709   1.038   1.370   4.206 -2.3550  0.7828 -0.4355
 1432TIP3   OH225710   1.498   3.561  13.949  0.2630  0.4148 -0.1693
 1432TIP3    H125711   1.534   3.506  14.018  0.6294 -0.2309 -0.8494
 1432TIP3    H225712   1.556   3.637  13.946 -0.5244  1.0809  1.0931
 1433TIP3   OH225713   4.273   0.228   2.305  0.1613  0.0078 -0.5259
 1433TIP3    H125714   4.216   0.246   2.380 -0.3043 -0.4479 -0.7614
 1433TIP3    H225715   4.253   0.299   2.243  0.6265  0.4464 -0.1798
 1434TIP3   OH225716   3.620   5.113  16.519 -0.2927 -0.4532  0.6436
 1434TIP3    H125717   3.594   5.186  16.575 -1.1147 -0.8453  0.7939
 1434TIP3    H225718   3.556   5.114  16.448 -0.5421 -1.2507  0.8472
 1435TIP3   OH225719   5.599   4.950   3.261  0.0291 -0.1360 -0.2410
 1435TIP3    H125720   5.655   5.013   3.215 -0.2454  0.1968 -0.1220
 1435TIP3    H225721   5.546   5.003   3.320 -0.6876 -0.4102 -0.6281
 1436TIP3   OH225722   1.834   2.191  15.837  0.3926  0.2474 -0.3658
 1436TIP3    H125723   1.917   2.144  15.847  0.4940  0.4448 -0.2788
 1436TIP3    H225724   1.818   2.229  15.923  0.2144  0.2135 -0.3844
 1437TIP3   OH225725   0.479   5.092   2.174 -0.0653  0.0973 -0.5391
 1437TIP3    H125726   0.448   5.178   2.147 -2.3225  0.1867  1.9494
 1437TIP3    H225727   0.402   5.049   2.211  1.4128 -2.3057 -0.0040
 1438TIP3   OH225728   4.029   0.139  12.637 -0.4508  0.6595 -0.4376
 1438TIP3    H125729   4.020   0.229  12.666 -4.0532 -0.1958  1.6784
 1438TIP3    H225730   3.987   0.137  12.551  1.5932  1.2983 -1.5297
 1439TIP3   OH225731   5.054   6.677   2.627 -0.3055  0.7808  0.0105
 1439TIP3    H125732   5.131   6.659   2.680  0.1721  1.1638 -0.5363
 1439TIP3    H225733   5.034   6.769   2.643 -0.7055  0.6634  0.2136
 1440TIP3   OH225734   2.846   6.700  15.474  0.2642  0.5888  0.3453
 1440TIP3    H125735   2.775   6.708  15.538 -0.9803 -1.7317 -0.6102
 1440TIP3    H225736   2.926   6.712  15.524 -0.7244  0.4246  2.0317
 1441TIP3   OH225737   1.527   2.809  13.800 -0.5143  0.1250 -0.1152
 1441TIP3    H125738   1.437   2.778  13.797  0.1993 -2.0965 -1.4395
 1441TIP3    H225739   1.579   2.730  13.814  1.3185  1.1334 -0.8536
 1442TIP3   OH225740   5.792   5.945  13.137  0.0834 -0.2329 -0.1526
 1442TIP3    H125741   5.868   5.945  13.196  0.4675 -1.3818 -0.6195
 1442TIP3    H225742   5.736   6.015  13.171  2.2647  2.1299 -1.0333
 1443TIP3   OH225743   3.991   5.882  17.015  0.0034 -0.0615  0.9511
 1443TIP3    H125744   4.003   5.968  16.975  1.3743  0.2809  2.0128
 1443TIP3    H225745   3.909   5.890  17.064 -0.4514  0.2633  0.1596
 1444TIP3   OH225746   4.807   0.872  15.244 -0.1992  0.3863  0.6393
 1444TIP3    H125747   4.786   0.916  15.327  0.5480 -0.2075  1.1654
 1444TIP3    H225748   4.876   0.926  15.205 -0.3361  0.5001  0.5555
 1445TIP3   OH225749   6.056   6.254  14.545 -0.1590 -0.2604 -0.0954
 1445TIP3    H125750   6.032   6.296  14.462  0.1769  0.9123  0.3846
 1445TIP3    H225751   6.151   6.244  14.541 -0.1434 -0.2172  0.1406
 1446TIP3   OH225752   0.977   3.394   0.160  0.0049  0.4660  0.4845
 1446TIP3    H125753   0.952   3.407   0.252  0.8984  0.6844  0.7090
 1446TIP3    H225754   1.029   3.314   0.160  0.9338  1.0528  0.3608
 1447TIP3   OH225755   4.841   1.766  12.224  0.1269  0.1077  0.1850
 1447TIP3    H125756   4.861   1.674  12.208  1.4967  0.3443  0.3673
 1447TIP3    H225757   4.806   1.798  12.141 -0.6310 -0.6409  0.2116
 1448TIP3   OH225758   0.294   1.794   5.529 -0.2751  0.7556 -0.1388
 1448TIP3    H125759   0.236   1.803   5.453  1.0637 -0.7874 -1.4100
 1448TIP3    H225760   0.348   1.873   5.528  0.5814  0.1979 -1.5948
 1449TIP3   OH225761   4.852   3.404  11.801 -0.2208 -0.0430  0.1014
 1449TIP3    H125762   4.860   3.323  11.851  0.9303  0.0655  0.1354
 1449TIP3    H225763   4.925   3.458  11.832 -1.1321  1.1293  0.2891
 1450TIP3   OH225764   6.048   1.443  12.168 -0.0510 -0.7374 -0.3463
 1450TIP3    H125765   5.998   1.505  12.221 -0.8623 -0.2038 -1.6862
 1450TIP3    H225766   6.138   1.454  12.197 -0.2415  0.7450 -0.2253
 1451TIP3   OH225767   1.800   5.476   4.996 -0.0221 -0.1251  0.6796
 1451TIP3    H125768   1.737   5.502   4.929 -0.3261  0.2723  1.1093
 1451TIP3    H225769   1.814   5.382   4.980 -1.4935 -0.4696  1.1792
 1452TIP3   OH225770   5.391   5.395   2.838 -0.2092  0.0972  0.0732
 1452TIP3    H125771   5.465   5.345   2.804 -2.5872 -3.0909 -0.9021
 1452TIP3    H225772   5.373   5.460   2.770  1.5580  0.8829  0.2975
 1453TIP3   OH225773   3.979   4.722  14.261 -0.1262  0.3201 -0.3819
 1453TIP3    H125774   3.893   4.721  14.218 -0.9030 -1.5377  1.1033
 1453TIP3    H225775   3.975   4.651  14.325  2.6390 -0.0255 -0.4704
 1454TIP3   OH225776   2.796   6.521  15.743  0.0540  0.4979 -0.3309
 1454TIP3    H125777   2.833   6.574  15.813  0.0605 -1.8397  1.5342
 1454TIP3    H225778   2.862   6.454  15.726 -0.2703  0.5767 -2.1019
 1455TIP3   OH225779   0.296   0.197   3.030  0.1097  0.1851  0.3121
 1455TIP3    H125780   0.256   0.277   3.065 -0.7790 -0.0213 -0.1851
 1455TIP3    H225781   0.369   0.179   3.088 -0.2221  0.8649  0.9627
 1456TIP3   OH225782   4.847   4.591   2.151 -0.3142 -0.0391 -0.2531
 1456TIP3    H125783   4.919   4.578   2.089 -1.8051  1.3933 -2.4582
 1456TIP3    H225784   4.769   4.593   2.096 -1.9908 -0.7711  1.9694
 1457TIP3   OH225785   0.940   6.393   5.259  0.1868  0.4301 -0.2448
 1457TIP3    H125786   0.962   6.312   5.305  0.6370  0.1159 -0.9980
 1457TIP3    H225787   0.993   6.391   5.179 -1.6775  0.2513 -1.5421
 1458TIP3   OH225788   1.811   3.507  12.022 -1.0770  0.0446 -0.0438
 1458TIP3    H125789   1.830   3.601  12.015  2.4955 -0.3215  2.0492
 1458TIP3    H225790   1.897   3.466  12.030 -2.3471 -3.7216 -2.7424
 1459TIP3   OH225791   4.839   5.216  10.697 -0.6178  0.4392  0.1833
 1459TIP3    H125792   4.856   5.309  10.703  0.0378  0.2904  0.8260
 1459TIP3    H225793   4.893   5.177  10.766 -0.8254 -0.4188 -0.1176
 1460TIP3   OH225794   3.859   0.477   4.857  0.1535  0.2877  0.3920
 1460TIP3    H125795   3.852   0.571   4.871 -0.0577  0.0887  1.8138
 1460TIP3    H225796   3.943   0.454   4.898  0.4838 -0.0554 -0.4668
 1461TIP3   OH225797   6.359   0.718  11.306 -0.1935 -0.4287 -0.5907
 1461TIP3    H125798   6.406   0.706  11.224 -1.1302  3.3538 -1.9199
 1461TIP3    H225799   6.267   0.728  11.280 -0.5097  0.9789  0.8269
 1462TIP3   OH225800   5.109   1.033   1.265  0.0587 -0.0548 -0.2153
 1462TIP3    H125801   5.198   1.047   1.232  0.7333  1.4398  1.9689
 1462TIP3    H225802   5.055   1.093   1.214  0.7706  0.9405  0.1590
 1463TIP3   OH225803   4.388   2.320   4.300  0.0960  0.1093 -0.3588
 1463TIP3    H125804   4.305   2.365   4.316 -0.1246 -0.3321 -0.2388
 1463TIP3    H225805   4.375   2.275   4.217 -0.0524 -0.5582  0.0171
 1464TIP3   OH225806   4.081   3.740  13.506  0.3481 -0.0463  0.0555
 1464TIP3    H125807   4.005   3.777  13.552  1.2565  0.9339  0.8431
 1464TIP3    H225808   4.073   3.646  13.519 -1.1373 -0.0376 -0.5532
 1465TIP3   OH225809   2.756   4.935   0.820 -0.3648  0.1449  0.3560
 1465TIP3    H125810   2.712   4.850   0.811 -1.1612  0.5593  0.2376
 1465TIP3    H225811   2.838   4.924   0.773 -0.2284 -0.7214  0.7708
 1466TIP3   OH225812   3.091   2.018  12.705  0.2860  0.4143 -0.1205
 1466TIP3    H125813   3.074   2.093  12.648 -0.0868  0.9051  0.6264
 1466TIP3    H225814   3.093   2.055  12.794 -2.2466 -0.7710  0.5180
 1467TIP3   OH225815   5.803   0.802  11.809  0.2415  0.1866  0.1753
 1467TIP3    H125816   5.743   0.778  11.880  2.3490 -0.7838  1.7384
 1467TIP3    H225817   5.823   0.894  11.825  0.6735 -0.0157  0.8367
 1468TIP3   OH225818   5.067   5.452  11.349 -0.0682  0.7946 -0.1580
 1468TIP3    H125819   5.101   5.424  11.264 -0.1767  0.7893 -0.1995
 1468TIP3    H225820   4.973   5.435  11.344  0.0845 -0.2720  0.3835
 1469TIP3   OH225821   3.486   1.892   4.542 -0.6230  0.0769  0.2262
 1469TIP3    H125822   3.458   1.825   4.605  0.7219 -0.9393 -0.2308
 1469TIP3    H225823   3.411   1.901   4.483 -0.5172 -1.6941 -0.2365
 1470TIP3   OH225824   2.020   5.120   1.658 -0.2898 -0.5918 -0.1448
 1470TIP3    H125825   1.929   5.134   1.630 -0.2025  0.1889 -0.0664
 1470TIP3    H225826   2.013   5.106   1.753 -0.3142 -0.3968 -0.1179
 1471TIP3   OH225827   3.211   6.725  16.969 -0.0023  0.4082  0.5003
 1471TIP3    H125828   3.201   6.638  17.008 -2.1967  0.2960 -0.1806
 1471TIP3    H225829   3.301   6.726  16.937  0.2120 -1.4544  0.9076
 1472TIP3   OH225830   0.521   3.326  14.986 -0.0144  0.2488 -0.1219
 1472TIP3    H125831   0.449   3.304  15.045 -0.8141  3.2130  0.1381
 1472TIP3    H225832   0.483   3.384  14.921  1.3384 -1.2508 -2.4053
 1473TIP3   OH225833   3.092   3.250  12.825  0.0782 -0.0392 -0.1295
 1473TIP3    H125834   3.015   3.195  12.839 -0.5300  0.8742  0.1861
 1473TIP3    H225835   3.068   3.335  12.861  1.1888  0.3021 -0.1550
 1474TIP3   OH225836   6.708   6.438   4.338  0.2890  0.1574  0.3065
 1474TIP3    H125837   6.625   6.412   4.297 -0.3404  0.0017  1.6068
 1474TIP3    H225838   6.763   6.359   4.333  0.8547  0.6424 -1.6923
 1475TIP3   OH225839   2.020   5.681   5.007  0.1379  0.4065  0.0134
 1475TIP3    H125840   1.938   5.652   5.047 -0.7132  2.4865 -0.0908
 1475TIP3    H225841   2.075   5.602   5.005 -0.8977 -0.4917  2.4471
 1476TIP3   OH225842   2.547   6.549   1.883 -0.1061  0.0289  0.3007
 1476TIP3    H125843   2.563   6.643   1.872  0.5875 -0.0285  0.7757
 1476TIP3    H225844   2.628   6.515   1.920 -0.5458 -0.6710  0.6327
 1477TIP3   OH225845   1.464   3.952  15.502  0.1274 -0.0465 -0.0632
 1477TIP3    H125846   1.422   3.952  15.588  0.0906  0.0480 -0.0808
 1477TIP3    H225847   1.484   4.045  15.485  0.7285 -0.1331  0.1319
 1478TIP3   OH225848   3.335   3.279  16.515 -0.1461 -0.4597  0.0055
 1478TIP3    H125849   3.419   3.235  16.530 -1.4944 -2.7692  1.3787
 1478TIP3    H225850   3.276   3.209  16.487 -1.8810  0.9219  0.0293
 1479TIP3   OH225851   2.453   2.182   5.441 -0.1571 -0.1100 -0.0770
 1479TIP3    H125852   2.391   2.255   5.440  0.4689  0.4235 -0.0725
 1479TIP3    H225853   2.490   2.184   5.529  0.3671 -0.0070 -0.3016
 1480TIP3   OH225854   2.549   0.893   3.316  0.2399  0.4533  0.2710
 1480TIP3    H125855   2.631   0.942   3.314  0.1311  0.6375 -2.0903
 1480TIP3    H225856   2.496   0.937   3.383  1.3323  1.5470  0.4419
 1481TIP3   OH225857   1.304   1.689  13.243 -0.5330 -0.0049  0.1008
 1481TIP3    H125858   1.238   1.621  13.226 -1.0280  0.6325 -0.5881
 1481TIP3    H225859   1.370   1.676  13.175 -0.4208 -0.0654  0.2230
 1482TIP3   OH225860   3.229   6.528  14.440 -0.5373 -0.1165  0.7951
 1482TIP3    H125861   3.143   6.544  14.480  0.0559  1.9045  1.4219
 1482TIP3    H225862   3.286   6.592  14.482  0.9545 -0.4455 -0.6431
 1483TIP3   OH225863   2.427   0.917   6.438  0.0175  0.2676  0.2209
 1483TIP3    H125864   2.477   0.997   6.420 -2.1954  1.5535 -0.5006
 1483TIP3    H225865   2.464   0.852   6.377  1.3326  0.9110  0.2883
 1484TIP3   OH225866   3.496   0.767  12.534 -0.5278  0.0003 -0.0692
 1484TIP3    H125867   3.508   0.758  12.629 -1.1166 -0.5139 -0.0351
 1484TIP3    H225868   3.510   0.860  12.517 -0.4446  0.1020  0.5291
 1485TIP3   OH225869   6.194   2.694   0.512  0.1359  0.1809  0.1533
 1485TIP3    H125870   6.159   2.671   0.426  0.9679 -0.1666 -0.1005
 1485TIP3    H225871   6.277   2.739   0.493  1.5693 -2.0123  0.8004
 1486TIP3   OH225872   2.940   0.058  14.440  0.0158 -0.3308 -0.3359
 1486TIP3    H125873   3.028   0.032  14.413  0.7757  1.5917  0.0849
 1486TIP3    H225874   2.881   0.015  14.378  1.3632 -0.3150 -1.6816
 1487TIP3   OH225875   5.129   1.549  12.334 -0.0457 -0.6565  0.3094
 1487TIP3    H125876   5.054   1.516  12.286  1.5214 -1.7984 -1.4809
 1487TIP3    H225877   5.194   1.479  12.329  1.2926  0.4340  1.4662
 1488TIP3   OH225878   4.723   5.145   2.283 -0.1430 -0.2764  0.4219
 1488TIP3    H125879   4.735   5.231   2.241  0.1838 -0.4713  0.1065
 1488TIP3    H225880   4.783   5.087   2.236 -2.6720 -1.4709 -1.6151
 1489TIP3   OH225881   5.331   3.198  12.461 -0.2993  0.3627 -0.1133
 1489TIP3    H125882   5.399   3.149  12.415  2.0753  2.7756  0.5931
 1489TIP3    H225883   5.249   3.157  12.432  1.3131 -1.6777 -2.2277
 1490TIP3   OH225884   0.254   3.055   2.164  0.3300  0.0702 -0.0055
 1490TIP3    H125885   0.283   3.124   2.103 -0.1935 -0.2185 -0.5896
 1490TIP3    H225886   0.304   3.072   2.243  1.5277  0.0467 -0.7336
 1491TIP3   OH225887   3.637   4.902   3.896 -0.6603 -0.3036 -0.0932
 1491TIP3    H125888   3.709   4.965   3.902 -0.9035 -0.1362  1.5113
 1491TIP3    H225889   3.560   4.951   3.923 -0.8794 -1.2279  1.0561
 1492TIP3   OH225890   0.433   2.823  11.878 -0.4824  0.7763 -0.3226
 1492TIP3    H125891   0.379   2.750  11.848  0.4742 -0.2468  0.3527
 1492TIP3    H225892   0.523   2.789  11.874  0.2100  2.6037 -1.9546
 1493TIP3   OH225893   3.513   4.555   4.567  0.0225 -0.3324 -0.2381
 1493TIP3    H125894   3.442   4.507   4.609 -0.3575  0.3453 -0.1029
 1493TIP3    H225895   3.526   4.510   4.483  1.4311 -2.2909  0.9450
 1494TIP3   OH225896   4.941   6.145   1.722  0.2519 -0.1576 -0.2983
 1494TIP3    H125897   4.906   6.082   1.659  0.1189 -0.2943 -0.0904
 1494TIP3    H225898   4.919   6.107   1.807 -0.3106  0.4334 -0.1698
 1495TIP3   OH225899   6.712   3.168   3.018 -0.1270  0.4982  0.1587
 1495TIP3    H125900   6.691   3.172   2.924 -1.3323  0.7366  0.4231
 1495TIP3    H225901   6.786   3.108   3.023  0.1025  0.6636 -0.9749
 1496TIP3   OH225902   4.836   0.808   0.586 -0.1541  0.4125  0.1679
 1496TIP3    H125903   4.915   0.773   0.544 -0.4147  1.2191 -1.0619
 1496TIP3    H225904   4.772   0.738   0.578 -0.0252  0.3379 -0.2847
 1497TIP3   OH225905   1.499   6.650  14.886 -0.2777 -0.4842 -0.5261
 1497TIP3    H125906   1.495   6.617  14.976 -0.7716 -1.2105 -0.8021
 1497TIP3    H225907   1.523   6.742  14.895 -0.2186 -0.5777  0.3445
 1498TIP3   OH225908   3.251   6.444   3.973 -0.7161  0.0183  0.0036
 1498TIP3    H125909   3.184   6.379   3.994  0.3725 -1.5601 -1.1334
 1498TIP3    H225910   3.297   6.407   3.897  0.2692  1.9044 -0.3798
 1499TIP3   OH225911   3.501   0.628  11.737  0.9867 -0.6237  0.2656
 1499TIP3    H125912   3.565   0.672  11.792 -1.2808  2.2644  0.7742
 1499TIP3    H225913   3.470   0.554  11.790  3.1397 -1.5594  0.3357
 1500TIP3   OH225914   0.637   4.077  13.661  0.6412 -0.5822  0.1132
 1500TIP3    H125915   0.694   4.140  13.706 -0.9030  2.5245 -1.8812
 1500TIP3    H225916   0.549   4.097  13.694  0.2894 -3.2668  0.9854
 1501TIP3   OH225917   2.338   0.033   5.184  0.1314  0.3867  0.2549
 1501TIP3    H125918   2.431   0.016   5.201  0.0099 -1.3872 -0.7179
 1501TIP3    H225919   2.295   0.014   5.267  0.4058 -0.8246  0.1309
 1502TIP3   OH225920   3.995   3.828   4.367 -0.3717  0.2507 -0.1234
 1502TIP3    H125921   4.025   3.822   4.458  1.2796  0.3450 -0.6214
 1502TIP3    H225922   3.907   3.866   4.373 -1.4646 -2.2893  1.5780
 1503TIP3   OH225923   1.015   4.155  11.758 -0.0358 -0.4301 -0.1284
 1503TIP3    H125924   0.973   4.090  11.815  0.9646 -0.0040  1.1647
 1503TIP3    H225925   1.106   4.157  11.788 -0.0393  1.5402 -0.1166
 1504TIP3   OH225926   5.843   6.198   1.954  0.4483  0.4536 -0.1022
 1504TIP3    H125927   5.858   6.146   1.875  2.1128  2.5123 -1.2531
 1504TIP3    H225928   5.899   6.157   2.020  1.8138  0.7552 -1.0128
 1505TIP3   OH225929   3.872   0.033  12.053  0.1427  0.5025  0.8735
 1505TIP3    H125930   3.836   0.086  12.124 -2.0298  0.0852  0.1680
 1505TIP3    H225931   3.852   0.081  11.974  0.7778  0.0251  0.4135
 1506TIP3   OH225932   1.392   4.622   1.707 -0.5689 -0.0513  0.5067
 1506TIP3    H125933   1.366   4.664   1.789  0.1470  2.0703 -0.2569
 1506TIP3    H225934   1.405   4.696   1.646 -1.9004 -1.5745 -1.7766
 1507TIP3   OH225935   0.765   2.962  14.377 -0.3165 -0.0398 -0.3368
 1507TIP3    H125936   0.830   3.026  14.409  0.1044 -0.2722 -0.7185
 1507TIP3    H225937   0.688   3.014  14.358 -0.2871  0.2279  0.2319
 1508TIP3   OH225938   1.505   2.002  13.883  0.1372  0.7385 -0.3434
 1508TIP3    H125939   1.463   1.964  13.960 -3.1465  0.9041 -1.8614
 1508TIP3    H225940   1.548   2.080  13.915 -1.7134  1.1782  1.2831
 1509TIP3   OH225941   1.280   1.813  15.101 -0.3415  0.0146  0.5993
 1509TIP3    H125942   1.303   1.890  15.049  0.5343  0.8885  2.2044
 1509TIP3    H225943   1.184   1.816  15.108 -0.3095  1.0387  0.7326
 1510TIP3   OH225944   5.043   2.743  11.530 -0.0239 -0.4846  0.4564
 1510TIP3    H125945   4.964   2.767  11.482  1.5708  0.9269 -1.6708
 1510TIP3    H225946   5.046   2.647  11.525 -0.4388 -0.4441 -1.4860
 1511TIP3   OH225947   5.360   6.163   4.569  0.2503  0.0740  0.0427
 1511TIP3    H125948   5.293   6.231   4.569  2.1063  2.0874 -1.8238
 1511TIP3    H225949   5.361   6.130   4.479  2.6383  1.1512 -0.4117
 1512TIP3   OH225950   2.811   0.222   0.005  0.0311 -0.1409 -0.2738
 1512TIP3    H125951   2.755   0.257  -0.065 -1.2113 -1.6264 -0.0818
 1512TIP3    H225952   2.805   0.287   0.075  1.0777  1.2377 -1.4154
 1513TIP3   OH225953   4.915   2.262   3.743 -0.0790 -0.2149  0.4664
 1513TIP3    H125954   4.858   2.312   3.685  0.1435 -0.5834 -0.0723
 1513TIP3    H225955   4.884   2.284   3.831 -0.0311  0.8200  0.2416
 1514TIP3   OH225956   3.792   3.839   6.387  0.3985 -0.3059 -0.5792
 1514TIP3    H125957   3.760   3.764   6.437 -1.7298  0.0357 -1.3377
 1514TIP3    H225958   3.741   3.913   6.420 -0.3465  0.0958 -2.5165
 1515TIP3   OH225959   1.782   4.982  14.637  0.5175  0.1813  0.1085
 1515TIP3    H125960   1.730   5.052  14.598  0.3646 -0.0702 -0.1409
 1515TIP3    H225961   1.771   4.995  14.732 -0.5931 -0.2984  0.0654
 1516TIP3   OH225962   2.355   0.553   1.293  0.3246 -0.0004  0.0846
 1516TIP3    H125963   2.414   0.628   1.287  1.2276 -0.7049 -0.1482
 1516TIP3    H225964   2.300   0.571   1.369 -0.4367  1.5542 -0.8044
 1517TIP3   OH225965   5.019   3.783  12.979  0.0446 -0.0024  0.2248
 1517TIP3    H125966   5.027   3.774  13.074 -1.1377  0.7469  0.4141
 1517TIP3    H225967   4.939   3.834  12.966 -0.3236 -0.8808 -1.2165
 1518TIP3   OH225968   2.228   6.269   5.634 -0.0172  0.0063  0.4157
 1518TIP3    H125969   2.246   6.184   5.673 -1.2282 -0.7579 -0.6472
 1518TIP3    H225970   2.145   6.258   5.587 -1.3374  2.3226  1.9813
 1519TIP3   OH225971   0.787   6.493  10.579  0.0444 -0.4012  0.2242
 1519TIP3    H125972   0.800   6.450  10.494 -0.3131  0.8608 -0.4959
 1519TIP3    H225973   0.873   6.528  10.601  0.2412 -1.1082  0.6146
 1520TIP3   OH225974   4.549   3.608  15.609  0.1915  0.3281 -0.0828
 1520TIP3    H125975   4.490   3.541  15.575  0.3542  0.9623 -1.7135
 1520TIP3    H225976   4.493   3.683  15.628  0.1248  0.0312  0.9422
 1521TIP3   OH225977   3.178   5.586   2.970 -0.3301  0.2681  0.4487
 1521TIP3    H125978   3.269   5.583   2.943 -0.2387 -0.4390  0.8043
 1521TIP3    H225979   3.182   5.592   3.066 -0.5915 -3.8074  0.8988
 1522TIP3   OH225980   0.116   5.640  13.746 -0.5255  0.0353 -0.3359
 1522TIP3    H125981   0.065   5.704  13.695 -0.6831  0.0930 -0.1081
 1522TIP3    H225982   0.188   5.616  13.688 -0.4556  0.4313 -0.4196
 1523TIP3   OH225983   3.812   0.107   0.223  0.0152 -0.3330  0.2758
 1523TIP3    H125984   3.852   0.105   0.309  1.1123 -3.0969 -0.1935
 1523TIP3    H225985   3.787   0.198   0.210  1.6700  0.5514  2.6503
 1524TIP3   OH225986   6.235   1.702  16.011 -0.3124 -0.1712 -0.3737
 1524TIP3    H125987   6.164   1.702  16.075 -0.4200 -1.0511 -0.4893
 1524TIP3    H225988   6.247   1.794  15.990 -1.8792 -0.0531 -0.8733
 1525TIP3   OH225989   0.091   2.407   0.628 -0.6770 -0.0595  0.0097
 1525TIP3    H125990   0.015   2.353   0.648 -0.7727 -0.2716 -0.8508
 1525TIP3    H225991   0.066   2.455   0.549  0.2177 -0.4227 -0.5127
 1526TIP3   OH225992   6.681   2.444  16.586  0.3576 -0.0891  0.5313
 1526TIP3    H125993   6.609   2.505  16.601 -0.5502 -1.5482  2.5257
 1526TIP3    H225994   6.740   2.457  16.660  1.7045  0.3914 -0.5713
 1527TIP3   OH225995   4.836   4.253   2.555  0.1873 -0.5230 -0.2718
 1527TIP3    H125996   4.853   4.300   2.473 -0.8617 -1.7159 -1.2160
 1527TIP3    H225997   4.910   4.277   2.611 -0.0163  1.8170 -0.8683
 1528TIP3   OH225998   2.307   3.944  12.550  0.5508 -0.0326 -0.0700
 1528TIP3    H125999   2.300   3.892  12.470 -1.6505 -0.4149  0.3158
 1528TIP3    H226000   2.399   3.969  12.554  0.6840  0.3247 -2.9342
 1529TIP3   OH226001   0.933   2.837   5.823 -0.2009  0.0735  0.2709
 1529TIP3    H126002   1.021   2.845   5.860 -0.4955 -1.3613  1.3830
 1529TIP3    H226003   0.945   2.849   5.729  0.9265  1.5426  0.5725
 1530TIP3   OH226004   3.841   3.585   1.077 -0.2128  0.0105  0.1880
 1530TIP3    H126005   3.804   3.497   1.074 -1.6369  0.5594  0.4195
 1530TIP3    H226006   3.771   3.641   1.042  0.5987  1.0644  0.1864
 1531TIP3   OH226007   6.690   0.921   1.916 -0.0564  0.6866 -0.5749
 1531TIP3    H126008   6.751   0.992   1.893  1.2199 -0.2770 -0.3255
 1531TIP3    H226009   6.737   0.870   1.982 -0.1022 -1.4851 -2.1151
 1532TIP3   OH226010   1.500   4.579   4.126  0.6494 -0.4345  0.0245
 1532TIP3    H126011   1.593   4.559   4.111  0.5382 -0.5337 -0.5683
 1532TIP3    H226012   1.501   4.649   4.190  1.1779  0.3345 -0.8014
 1533TIP3   OH226013   1.179   1.079   3.149  0.1751 -0.4036 -0.1419
 1533TIP3    H126014   1.255   1.038   3.188 -0.2742  0.4360  1.7392
 1533TIP3    H226015   1.110   1.013   3.156  0.1198 -0.2898  0.4312
 1534TIP3   OH226016   1.984   1.099  16.109 -0.6432  0.3254 -0.0724
 1534TIP3    H126017   1.910   1.151  16.140 -0.5395  0.8974 -0.7506
 1534TIP3    H226018   1.957   1.070  16.021 -0.2793  0.0837 -0.1046
 1535TIP3   OH226019   3.316   2.127  13.177 -0.2880  0.2188 -0.4365
 1535TIP3    H126020   3.313   2.204  13.120  1.3852  0.9072  0.3501
 1535TIP3    H226021   3.323   2.053  13.117 -1.6085  0.6606 -1.1955
 1536TIP3   OH226022   3.165   1.846  10.389 -0.5955 -0.1642  0.0365
 1536TIP3    H126023   3.080   1.880  10.417 -1.5828 -2.1022 -0.3913
 1536TIP3    H226024   3.191   1.903  10.317 -0.8981  1.2245  0.9787
 1537TIP3   OH226025   4.544   1.425   4.003 -0.4578 -0.4723 -0.0313
 1537TIP3    H126026   4.633   1.458   4.009 -0.4688 -0.6587  1.4483
 1537TIP3    H226027   4.545   1.367   3.926  0.5296 -0.0438 -0.3593
 1538TIP3   OH226028   6.150   1.890   3.430  0.3171 -0.6876  0.5105
 1538TIP3    H126029   6.190   1.977   3.433 -1.2894  0.1629 -0.7780
 1538TIP3    H226030   6.147   1.862   3.522 -0.9598  1.5366  1.2340
 1539TIP3   OH226031   3.178   0.635  15.951 -0.1044  0.2573  0.1862
 1539TIP3    H126032   3.109   0.573  15.976  0.3395 -0.2160  0.2717
 1539TIP3    H226033   3.133   0.718  15.939 -0.5315  0.2135  1.3326
 1540TIP3   OH226034   0.400   1.393   5.816 -0.0885  0.3343  0.9028
 1540TIP3    H126035   0.377   1.413   5.726  0.3901  0.2711  0.7631
 1540TIP3    H226036   0.317   1.370   5.858 -0.3308  0.5046  0.5170
 1541TIP3   OH226037   2.962   3.736  16.857 -0.2731 -0.5387  0.0253
 1541TIP3    H126038   2.901   3.809  16.844 -1.0646 -1.3069 -0.7316
 1541TIP3    H226039   2.951   3.681  16.780  1.0529 -0.9521  0.0997
 1542TIP3   OH226040   3.706   3.471  14.952 -0.1261  0.3489  0.4948
 1542TIP3    H126041   3.632   3.516  14.910  2.2834  1.4751 -2.9823
 1542TIP3    H226042   3.698   3.380  14.922 -0.2512  0.3967  0.3830
 1543TIP3   OH226043   2.411   1.366  11.376  0.2250  0.1253 -0.7468
 1543TIP3    H126044   2.356   1.336  11.304 -0.4171  1.3887 -0.8148
 1543TIP3    H226045   2.349   1.406  11.438  0.6829 -1.3955  0.7829
 1544TIP3   OH226046   0.351   0.562   1.949  0.1964  0.3701 -0.0726
 1544TIP3    H126047   0.265   0.560   1.991  0.7338 -1.2900  1.0269
 1544TIP3    H226048   0.336   0.521   1.864  0.1610 -1.3336  0.7180
 1545TIP3   OH226049   4.630   3.360   5.453  0.4508  0.1159  0.3690
 1545TIP3    H126050   4.699   3.373   5.518  1.5275 -0.4692 -0.6337
 1545TIP3    H226051   4.622   3.444   5.408  0.8430  0.0426  0.1647
 1546TIP3   OH226052   2.501   5.892  15.708  0.0064  0.5148 -0.2555
 1546TIP3    H126053   2.548   5.865  15.787 -2.2626  1.0303  1.3770
 1546TIP3    H226054   2.514   5.820  15.646 -0.9983 -1.6204  1.8579
 1547TIP3   OH226055   6.385   4.734  13.170  0.1492 -0.1994  0.5495
 1547TIP3    H126056   6.317   4.739  13.103  0.4956  0.6518  0.2464
 1547TIP3    H226057   6.457   4.687  13.127  1.4198  2.6033 -0.6672
 1548TIP3   OH226058   2.394   0.761  16.106  0.0052  0.0047  0.2899
 1548TIP3    H126059   2.370   0.726  16.192  1.6732  1.4226  1.4158
 1548TIP3    H226060   2.391   0.856  16.117  1.7218  0.2260 -0.7361
 1549TIP3   OH226061   2.805   1.313   2.741 -0.5241  0.3328  0.2654
 1549TIP3    H126062   2.791   1.287   2.832 -0.7648 -0.5227 -0.0092
 1549TIP3    H226063   2.862   1.390   2.747  0.1640 -0.2162  1.1041
 1550TIP3   OH226064   0.032   2.683  14.044 -0.1212  0.1647  0.0734
 1550TIP3    H126065  -0.037   2.616  14.042  0.2102 -0.1648 -0.7335
 1550TIP3    H226066   0.032   2.720  13.956  2.3332 -1.5225 -0.7514
 1551TIP3   OH226067   0.530   1.672   5.801  0.0553 -0.3306  0.2828
 1551TIP3    H126068   0.502   1.581   5.809 -0.6572 -0.2964 -1.4142
 1551TIP3    H226069   0.600   1.670   5.736 -3.1820  0.7907 -3.6652
 1552TIP3   OH226070   1.866   1.532   0.246 -0.2014  0.2525  0.1780
 1552TIP3    H126071   1.805   1.494   0.310 -0.3792 -0.9661 -0.6802
 1552TIP3    H226072   1.843   1.624   0.242 -3.4784 -0.4917 -1.6556
 1553TIP3   OH226073   5.984   4.789   5.594 -0.0282  0.8629  0.5566
 1553TIP3    H126074   5.937   4.755   5.517  0.1585  1.4766  0.1676
 1553TIP3    H226075   5.952   4.878   5.605  1.2415  1.4061  0.0965
 1554TIP3   OH226076   0.589   6.052  11.707  0.0027 -0.0285 -0.1309
 1554TIP3    H126077   0.586   5.958  11.725  0.7868  0.0346  0.3794
 1554TIP3    H226078   0.531   6.091  11.772  0.4914 -0.0754  0.3441
 1555TIP3   OH226079   0.861   5.779   0.976 -0.3594 -0.1985 -0.1070
 1555TIP3    H126080   0.864   5.854   1.036 -1.1141 -0.8563  0.7679
 1555TIP3    H226081   0.848   5.703   1.032  1.4981 -1.1404 -0.8906
 1556TIP3   OH226082   6.491   2.695  11.831 -0.3079  0.4080  0.1281
 1556TIP3    H126083   6.398   2.700  11.851 -0.1444 -0.2507  1.1770
 1556TIP3    H226084   6.523   2.621  11.884  0.8265  0.7064 -0.1048
 1557TIP3   OH226085   1.962   1.979  15.205 -0.8925 -0.6038 -0.3429
 1557TIP3    H126086   2.036   1.938  15.249 -0.7674 -0.9677 -0.8932
 1557TIP3    H226087   1.997   2.060  15.169 -0.5292 -1.2087 -1.3842
 1558TIP3   OH226088   1.881   1.633   5.008  0.5196 -0.3060 -0.4616
 1558TIP3    H126089   1.813   1.595   5.064  0.8901  0.8417  0.8088
 1558TIP3    H226090   1.949   1.565   5.003 -0.5844 -1.3989 -1.6085
 1559TIP3   OH226091   1.637   6.117   3.152 -0.4562 -0.0324 -0.3450
 1559TIP3    H126092   1.707   6.051   3.146  0.1544  0.6627 -1.2173
 1559TIP3    H226093   1.558   6.070   3.123 -0.4366 -0.9074  0.9361
 1560TIP3   OH226094   1.143   5.618   1.811 -0.4112 -0.3928  0.1060
 1560TIP3    H126095   1.143   5.713   1.821 -0.2750 -0.4858  1.1121
 1560TIP3    H226096   1.103   5.586   1.892  0.6104 -1.2352  0.2900
 1561TIP3   OH226097   5.391   3.719  12.845 -0.0691 -0.5710  0.2862
 1561TIP3    H126098   5.340   3.785  12.893  0.8136  1.0470 -0.9020
 1561TIP3    H226099   5.482   3.746  12.858  0.3090 -1.5406 -0.2743
 1562TIP3   OH226100   2.013   0.492   1.655 -0.2633  0.0871  0.4513
 1562TIP3    H126101   2.052   0.553   1.592 -1.6348 -0.7292 -1.2735
 1562TIP3    H226102   2.086   0.437   1.683  0.5565  1.0646  0.3180
 1563TIP3   OH226103   3.794   2.168  15.641 -0.2270  0.0871 -0.5222
 1563TIP3    H126104   3.745   2.087  15.625 -0.6101  0.2601 -0.2337
 1563TIP3    H226105   3.732   2.238  15.621 -0.4705  0.3090  0.9431
 1564TIP3   OH226106   4.733   3.794   3.370 -0.0026  0.0227 -0.3481
 1564TIP3    H126107   4.702   3.761   3.286 -0.7121  1.4744 -0.6838
 1564TIP3    H226108   4.687   3.877   3.382  1.7777  0.9577  0.4015
 1565TIP3   OH226109   2.046   4.770  16.079  0.5396  0.8695 -0.1636
 1565TIP3    H126110   2.135   4.785  16.047  0.4533  2.0452  0.1162
 1565TIP3    H226111   1.996   4.747  16.000  0.4432  3.2123 -0.8488
 1566TIP3   OH226112   5.464   5.619   1.485 -0.0460  0.1769 -0.1256
 1566TIP3    H126113   5.543   5.642   1.437 -0.5996  1.3345 -0.5270
 1566TIP3    H226114   5.412   5.567   1.424 -0.3536  0.8905 -0.4812
 1567TIP3   OH226115   1.204   0.592   3.868  0.3011  0.2476 -0.3028
 1567TIP3    H126116   1.299   0.597   3.881  0.0910  0.0296  1.5328
 1567TIP3    H226117   1.173   0.531   3.935 -1.4440  2.4014  0.9944
 1568TIP3   OH226118   1.047   4.234  16.690  0.1609  0.9084 -0.0066
 1568TIP3    H126119   0.986   4.305  16.674 -0.1935  1.1923  2.3294
 1568TIP3    H226120   1.130   4.277  16.711  0.9436  0.5317 -2.0274
 1569TIP3   OH226121   3.697   0.419   4.632 -0.5822 -0.2992 -0.8414
 1569TIP3    H126122   3.652   0.335   4.631  0.9875 -1.2821  1.2106
 1569TIP3    H226123   3.718   0.434   4.724 -0.5575  2.2408 -1.1692
 1570TIP3   OH226124   6.222   1.359  14.218  0.0224  0.4352 -0.6116
 1570TIP3    H126125   6.313   1.382  14.201  0.3962  0.4301  1.1296
 1570TIP3    H226126   6.227   1.291  14.285 -1.2437 -0.5045 -1.4275
 1571TIP3   OH226127   1.130   4.234   0.169  0.1961  0.0047  0.1053
 1571TIP3    H126128   1.094   4.161   0.119  1.8052 -1.8557  1.5378
 1571TIP3    H226129   1.212   4.255   0.125  2.2550 -2.4632  2.4715
 1572TIP3   OH226130   1.025   5.297  15.441 -0.5212 -0.3183  0.1674
 1572TIP3    H126131   1.114   5.305  15.406 -0.9842  1.1358 -0.7265
 1572TIP3    H226132   0.971   5.350  15.383 -1.6278  0.6983  2.0220
 1573TIP3   OH226133   2.579   4.202  11.919 -0.1213 -0.0830  0.2961
 1573TIP3    H126134   2.636   4.136  11.957 -0.6462 -0.3289  0.6760
 1573TIP3    H226135   2.497   4.194  11.968 -0.4390  0.3481 -0.1511
 1574TIP3   OH226136   1.205   3.009   5.606  0.2879 -0.2034  0.4755
 1574TIP3    H126137   1.118   3.049   5.611  0.5784  0.5082 -0.1475
 1574TIP3    H226138   1.192   2.931   5.552  0.1774  0.3028 -0.2395
 1575TIP3   OH226139   0.805   3.576  12.739 -0.4174 -0.7018  0.2590
 1575TIP3    H126140   0.724   3.550  12.695  1.0889 -1.0917 -2.5271
 1575TIP3    H226141   0.795   3.670  12.754 -1.2573 -0.6777 -0.3540
 1576TIP3   OH226142   2.580   4.416  16.106  0.2484 -0.2006  0.5045
 1576TIP3    H126143   2.581   4.330  16.148  1.1696  0.2141  1.3599
 1576TIP3    H226144   2.500   4.458  16.136 -0.7097 -1.1004 -0.6734
 1577TIP3   OH226145   3.626   2.274   5.723 -0.3318 -0.1407  0.2075
 1577TIP3    H126146   3.661   2.192   5.757  0.2606  0.0537  0.0800
 1577TIP3    H226147   3.626   2.261   5.628 -0.4977 -0.0955  0.2019
 1578TIP3   OH226148   0.279   0.400  15.468  0.3893 -0.4349  0.6657
 1578TIP3    H126149   0.185   0.417  15.460  0.0783 -2.3071 -0.1339
 1578TIP3    H226150   0.303   0.360  15.384  1.1662 -3.0672  2.0581
 1579TIP3   OH226151   6.095   5.710   2.399  0.9913  0.1697 -0.5745
 1579TIP3    H126152   6.103   5.632   2.454 -0.5895  0.6005  0.3024
 1579TIP3    H226153   6.147   5.777   2.444  2.1525 -0.2699 -1.2046
 1580TIP3   OH226154   3.297   3.226  14.312 -0.1778  0.0635  0.2823
 1580TIP3    H126155   3.294   3.145  14.261  1.3953  0.2449 -0.1303
 1580TIP3    H226156   3.296   3.197  14.403 -1.3784 -0.3228  0.1708
 1581TIP3   OH226157   4.833   6.039   4.075  0.6815  0.3259  0.3484
 1581TIP3    H126158   4.830   6.092   3.996  0.1152 -1.6175 -1.0032
 1581TIP3    H226159   4.900   5.973   4.057  0.9560  0.1914  1.7320
 1582TIP3   OH226160   0.056   6.280   3.004 -0.1836 -0.2871  0.4213
 1582TIP3    H126161   0.131   6.309   2.953 -1.5144  0.6650 -1.0758
 1582TIP3    H226162   0.081   6.194   3.037  2.2299  0.7245  1.4529
 1583TIP3   OH226163   4.533   6.670  15.970 -0.3157 -0.0818 -0.0759
 1583TIP3    H126164   4.464   6.719  16.015  0.7720  0.7781  0.7193
 1583TIP3    H226165   4.507   6.670  15.878 -1.2302  0.4553  0.1705
 1584TIP3   OH226166   5.587   2.347  15.755 -0.5363  0.0138  0.2733
 1584TIP3    H126167   5.634   2.279  15.803 -0.2105 -0.0648 -0.1447
 1584TIP3    H226168   5.613   2.333  15.664 -1.5906 -0.1986 -0.0013
 1585TIP3   OH226169   3.143   6.690   6.595 -0.3518 -0.0207  0.8196
 1585TIP3    H126170   3.205   6.659   6.662  1.2768  0.3642 -0.4339
 1585TIP3    H226171   3.069   6.631   6.601 -0.3544  0.1206  3.0876
 1586TIP3   OH226172   5.804   0.347   4.619 -0.2769  0.6342 -0.3621
 1586TIP3    H126173   5.753   0.278   4.661 -0.4624  1.1627  0.3008
 1586TIP3    H226174   5.776   0.428   4.664  2.7728  0.7119  1.6700
 1587TIP3   OH226175   1.512   0.675   3.372  0.3718 -0.1701  0.0201
 1587TIP3    H126176   1.426   0.637   3.354 -0.3612  1.7955 -0.9678
 1587TIP3    H226177   1.569   0.641   3.304 -0.0250 -0.2695 -0.2645
 1588TIP3   OH226178   1.594   4.193   0.537 -0.0206  0.3098 -0.8096
 1588TIP3    H126179   1.528   4.156   0.479 -0.5028  0.5066 -0.3918
 1588TIP3    H226180   1.555   4.275   0.568  0.0512 -0.0066  0.1336
 1589TIP3   OH226181   2.389   0.690   5.595  0.4617 -0.4795 -0.0025
 1589TIP3    H126182   2.318   0.700   5.659  0.6295 -0.0180  0.1113
 1589TIP3    H226183   2.445   0.623   5.634  0.0954 -0.8426 -0.0890
 1590TIP3   OH226184   3.184   4.860   0.862 -0.1552 -0.1837 -0.0179
 1590TIP3    H126185   3.167   4.767   0.847  0.6121 -0.4265  0.5485
 1590TIP3    H226186   3.235   4.889   0.786 -0.0935 -0.3143 -0.0256
 1591TIP3   OH226187   2.259   5.548   0.294 -0.4301  0.0100 -0.8178
 1591TIP3    H126188   2.213   5.500   0.363  0.1497 -0.1333 -0.5229
 1591TIP3    H226189   2.330   5.490   0.268 -1.7129 -0.7627 -2.8625
 1592TIP3   OH226190   4.048   2.304   2.304  0.1623  0.4316 -0.1163
 1592TIP3    H126191   4.041   2.392   2.266 -1.3185 -0.1333 -1.2636
 1592TIP3    H226192   3.993   2.250   2.248  0.8822 -1.2050  0.6924
 1593TIP3   OH226193   3.369   1.381   2.282 -0.4115 -0.1300  0.2435
 1593TIP3    H126194   3.463   1.385   2.265 -0.3960  0.9329  0.5053
 1593TIP3    H226195   3.360   1.397   2.376 -0.9213  1.2105 -0.0109
 1594TIP3   OH226196   3.678   5.061   5.835 -0.4353 -0.4310  0.4414
 1594TIP3    H126197   3.607   4.997   5.843 -1.1657  0.3856  0.6337
 1594TIP3    H226198   3.690   5.070   5.740 -2.3077  1.2281  0.2857
 1595TIP3   OH226199   6.659   1.604  16.805  0.4620  0.4572  0.0427
 1595TIP3    H126200   6.750   1.633  16.812 -0.1522  2.7100 -0.3861
 1595TIP3    H226201   6.626   1.649  16.727 -1.2994  0.5859  0.8211
 1596TIP3   OH226202   5.233   4.018   2.991 -0.2453  0.0241 -0.3161
 1596TIP3    H126203   5.141   4.018   2.964 -0.7068  2.6568  0.9086
 1596TIP3    H226204   5.237   3.952   3.061 -1.0239 -0.6034 -0.8413
 1597TIP3   OH226205   5.823   1.734  14.078  0.1106 -0.3061 -0.1818
 1597TIP3    H126206   5.822   1.642  14.106 -1.5491 -0.0429  0.7428
 1597TIP3    H226207   5.820   1.729  13.982  0.1496 -1.2242 -0.1448
 1598TIP3   OH226208   1.471   1.598  13.874  0.2501  0.4172 -0.1883
 1598TIP3    H126209   1.518   1.671  13.914 -2.2350  0.7994  2.3300
 1598TIP3    H226210   1.529   1.523  13.884  1.1595  1.2353  0.9541
 1599TIP3   OH226211   1.854   6.365  16.385 -0.1372  0.3759 -0.1434
 1599TIP3    H126212   1.915   6.436  16.366  0.6379  0.1975  1.4869
 1599TIP3    H226213   1.817   6.386  16.471 -0.5167 -0.7619  0.0025
 1600TIP3   OH226214   1.088   0.897  14.106 -0.4719 -0.1375 -0.4462
 1600TIP3    H126215   1.099   0.989  14.131 -2.0012 -0.0903  0.1691
 1600TIP3    H226216   1.040   0.901  14.023 -3.8769 -0.3103  1.3248
 1601TIP3   OH226217   2.355   3.574  11.993  0.1004 -0.4437  0.4537
 1601TIP3    H126218   2.341   3.575  12.087 -1.4279  0.0814  0.2493
 1601TIP3    H226219   2.415   3.501  11.978  0.8238 -0.1662  1.8750
 1602TIP3   OH226220   0.255   1.944   0.925 -0.2128  0.7733 -0.1536
 1602TIP3    H126221   0.291   2.022   0.968  0.4584 -0.7979  2.3283
 1602TIP3    H226222   0.329   1.905   0.879 -0.2377  0.9102 -0.3089
 1603TIP3   OH226223   2.017   3.112  15.324  0.7203  0.0790  0.8618
 1603TIP3    H126224   2.102   3.150  15.302  0.4022  1.5162  1.9389
 1603TIP3    H226225   1.974   3.180  15.377 -1.3409 -0.3675 -0.1486
 1604TIP3   OH226226   3.707   5.797  16.673  0.5483 -0.0734  0.3438
 1604TIP3    H126227   3.661   5.815  16.590  0.3067  0.9559  0.6921
 1604TIP3    H226228   3.704   5.701  16.681 -1.3368 -0.0691  0.2235
 1605TIP3   OH226229   6.588   1.019   4.586 -0.0263  0.2483  0.0721
 1605TIP3    H126230   6.650   1.014   4.514 -0.6092 -1.0619 -0.3526
 1605TIP3    H226231   6.510   0.974   4.555 -0.1568 -0.6774  1.6471
 1606TIP3   OH226232   2.436   5.633   3.516 -0.0056 -0.7794 -0.2330
 1606TIP3    H126233   2.342   5.616   3.511  0.0010 -0.6196 -1.0340
 1606TIP3    H226234   2.466   5.626   3.425  0.6542 -0.2545 -0.0604
 1607TIP3   OH226235   3.987   3.778  13.813 -0.2355  0.2053  0.6845
 1607TIP3    H126236   3.963   3.790  13.905 -0.0199 -0.3955  0.8202
 1607TIP3    H226237   4.051   3.847  13.797 -0.2382  0.2845  0.9948
 1608TIP3   OH226238   0.787   1.651   6.057  0.1373  0.2068 -0.5057
 1608TIP3    H126239   0.779   1.614   5.969 -0.0000  2.0460 -1.3141
 1608TIP3    H226240   0.843   1.728   6.046  0.3478  0.3121  1.0674
 1609TIP3   OH226241   3.695   2.339  16.908 -0.4133  0.2007 -0.2092
 1609TIP3    H126242   3.764   2.395  16.873 -0.4276  0.8492  0.7820
 1609TIP3    H226243   3.723   2.317  16.996 -1.8055  1.1301  0.5216
 1610TIP3   OH226244   3.487   0.361  11.867 -0.3073  0.6514  0.1598
 1610TIP3    H126245   3.470   0.352  11.961 -0.4331  0.4711  0.1201
 1610TIP3    H226246   3.579   0.338  11.857  0.0480  1.8828  0.4128
 1611TIP3   OH226247   4.238   6.734  12.644 -0.6374  0.6041  0.1198
 1611TIP3    H126248   4.202   6.667  12.702  0.4106  0.4882  0.6501
 1611TIP3    H226249   4.193   6.814  12.670 -1.2546  0.2748  0.0823
 1612TIP3   OH226250   5.164   4.640   5.893  0.0170 -0.1999 -0.1582
 1612TIP3    H126251   5.197   4.664   5.980  0.7507 -1.7062  0.0086
 1612TIP3    H226252   5.094   4.578   5.910 -0.5769  0.3326 -0.6262
 1613TIP3   OH226253   4.942   0.439   2.549 -0.0186 -0.0298  0.2490
 1613TIP3    H126254   4.893   0.509   2.505  0.7219  0.1623 -0.2939
 1613TIP3    H226255   4.995   0.400   2.480  1.6002  0.6631  1.0634
 1614TIP3   OH226256   3.594   2.982  10.343  0.3731 -0.3135  0.2462
 1614TIP3    H126257   3.548   2.909  10.384  2.1464 -0.6650  1.7193
 1614TIP3    H226258   3.679   2.985  10.387  0.8642  1.8010 -0.7205
 1615TIP3   OH226259   0.130   1.584  14.199  0.3183  0.3051 -0.5449
 1615TIP3    H126260   0.049   1.565  14.153 -0.7347 -0.0008  1.3222
 1615TIP3    H226261   0.153   1.502  14.242  1.0731  0.6535 -0.2665
 1616TIP3   OH226262   5.902   0.451  15.818  0.2777  0.3701  0.0078
 1616TIP3    H126263   5.860   0.441  15.903  0.2517  1.7484  0.1738
 1616TIP3    H226264   5.975   0.389  15.820  1.8081  2.1238  2.0344
 1617TIP3   OH226265   5.704   1.510  12.042 -0.1601 -0.1026 -0.1254
 1617TIP3    H126266   5.737   1.421  12.051  0.3964  0.2286  1.4424
 1617TIP3    H226267   5.725   1.534  11.952  0.1297 -1.3701 -0.4131
 1618TIP3   OH226268   2.543   5.856  11.148 -0.0015 -0.4459  0.0495
 1618TIP3    H126269   2.529   5.904  11.067  1.2117 -0.6473 -0.3100
 1618TIP3    H226270   2.509   5.914  11.217  0.8291  0.6578 -0.4299
 1619TIP3   OH226271   1.912   2.413  16.266  0.4731  0.0151 -0.3352
 1619TIP3    H126272   1.912   2.508  16.252  1.0337 -0.0521 -0.8325
 1619TIP3    H226273   1.878   2.377  16.184 -0.3041 -0.1860  0.0747
 1620TIP3   OH226274   0.793   0.506   5.751 -0.7082 -0.6733 -0.3570
 1620TIP3    H126275   0.697   0.502   5.752 -0.7156 -3.3734  1.2981
 1620TIP3    H226276   0.817   0.503   5.844  1.0469  2.9209 -0.5526
 1621TIP3   OH226277   2.561   5.135   5.759 -0.0116  0.5351  0.2789
 1621TIP3    H126278   2.614   5.110   5.835  0.7608  1.0639 -0.0637
 1621TIP3    H226279   2.600   5.085   5.687 -0.4607  0.3699  0.1484
 1622TIP3   OH226280   1.757   4.379  16.681  0.2777 -0.0445 -0.4387
 1622TIP3    H126281   1.811   4.397  16.758 -1.0442  1.2319  0.2504
 1622TIP3    H226282   1.772   4.453  16.623 -2.7178  1.8798  0.9781
 1623TIP3   OH226283   5.877   3.877   1.307 -0.4937 -0.6374  0.5066
 1623TIP3    H126284   5.912   3.961   1.277  0.1266  0.2878  3.4319
 1623TIP3    H226285   5.931   3.811   1.264  1.9539  0.6439  1.4045
 1624TIP3   OH226286   3.079   6.431   0.289 -0.1709  0.4309 -0.0381
 1624TIP3    H126287   3.106   6.348   0.251 -0.4420 -0.0020  0.7110
 1624TIP3    H226288   3.001   6.456   0.239 -1.4007 -0.8626  1.1461
 1625TIP3   OH226289   0.982   2.267   4.730  0.2502  0.0255 -0.8419
 1625TIP3    H126290   0.999   2.293   4.821  1.0407 -0.9521 -0.7042
 1625TIP3    H226291   0.931   2.340   4.694 -1.3412 -0.2073  0.8004
 1626TIP3   OH226292   3.902   6.080  11.009 -0.0689 -0.0486  0.0844
 1626TIP3    H126293   3.945   6.016  11.066 -1.8621 -1.1383  0.3130
 1626TIP3    H226294   3.893   6.036  10.925 -2.5256 -0.7104  0.6129
 1627TIP3   OH226295   4.491   4.233  11.884 -0.3859 -0.2966  0.4217
 1627TIP3    H126296   4.407   4.275  11.905  0.1348  1.5884 -1.0275
 1627TIP3    H226297   4.467   4.159  11.829 -1.0625  1.4163 -1.7348
 1628TIP3   OH226298   0.443   4.211   3.724  0.0212 -0.3977 -0.2586
 1628TIP3    H126299   0.408   4.137   3.774 -2.3962 -0.7997 -2.4122
 1628TIP3    H226300   0.392   4.214   3.644  0.9230  2.8312 -0.8764
 1629TIP3   OH226301   3.936   2.093   4.248  0.0033 -0.5681  0.1333
 1629TIP3    H126302   3.968   2.003   4.237 -0.0958 -0.5480 -0.3572
 1629TIP3    H226303   3.843   2.088   4.227  0.1032 -0.2597 -0.4154
 1630TIP3   OH226304   5.345   6.549   5.064  0.8525  0.6692 -0.3405
 1630TIP3    H126305   5.378   6.549   4.974 -0.6411  0.2748 -0.9253
 1630TIP3    H226306   5.276   6.614   5.064 -2.7938 -2.7774 -1.0080
 1631TIP3   OH226307   5.095   1.346  14.415  0.5574  0.1930  0.0274
 1631TIP3    H126308   5.105   1.391  14.499  2.3914  0.7250 -0.4219
 1631TIP3    H226309   5.027   1.281  14.430  0.3242  0.7836  1.7084
 1632TIP3   OH226310   6.686   0.424   4.127 -0.8851  0.5996 -0.4676
 1632TIP3    H126311   6.612   0.382   4.083 -2.4105  1.1045  1.4886
 1632TIP3    H226312   6.666   0.518   4.123 -1.1651  0.6503  1.3654
 1633TIP3   OH226313   6.445   4.246   0.248 -0.4968  0.1120  0.3944
 1633TIP3    H126314   6.449   4.217   0.339 -1.8686  0.9219  0.7368
 1633TIP3    H226315   6.536   4.266   0.225 -0.0465 -0.8073  1.3422
 1634TIP3   OH226316   2.686   1.093  14.428  0.1981  0.9093 -0.6058
 1634TIP3    H126317   2.773   1.056  14.418 -0.0755 -0.3058  1.1377
 1634TIP3    H226318   2.676   1.106  14.523 -2.3190 -1.1129 -0.4872
 1635TIP3   OH226319   3.148   5.990   3.446 -1.1242 -0.9730 -0.4321
 1635TIP3    H126320   3.138   5.989   3.541 -0.4466 -0.8858 -0.3611
 1635TIP3    H226321   3.239   6.014   3.431 -1.2223 -1.0005 -1.1057
 1636TIP3   OH226322   0.621   0.681  15.758  0.7098  0.1349 -0.2761
 1636TIP3    H126323   0.612   0.775  15.746  0.3367  0.0830 -0.4120
 1636TIP3    H226324   0.605   0.644  15.671  3.0272  0.0831 -0.7399
 1637TIP3   OH226325   5.137   5.071  11.843  1.0716 -0.7955  0.0645
 1637TIP3    H126326   5.174   4.982  11.842  0.5725 -1.0068  0.0451
 1637TIP3    H226327   5.190   5.120  11.780  1.0070 -1.2243 -0.3313
 1638TIP3   OH226328   4.463   3.784   1.563 -0.1387 -0.5026  0.6220
 1638TIP3    H126329   4.393   3.727   1.531  0.0686 -0.9312  0.9243
 1638TIP3    H226330   4.506   3.815   1.484 -0.8640  0.0187  0.4170
 1639TIP3   OH226331   1.266   6.327   0.215  0.3063  0.3399  0.0548
 1639TIP3    H126332   1.298   6.374   0.138 -2.2078  0.0776 -1.2546
 1639TIP3    H226333   1.262   6.235   0.187 -1.8672  0.4107 -0.0246
 1640TIP3   OH226334   5.476   0.290  15.422  0.0831  0.0275 -0.2350
 1640TIP3    H126335   5.468   0.380  15.455  0.6747  0.9599 -2.4323
 1640TIP3    H226336   5.417   0.239  15.476 -0.3758  1.7687  0.9903
 1641TIP3   OH226337   1.815   3.514  16.134  0.0940  0.0430  0.2806
 1641TIP3    H126338   1.851   3.426  16.133  1.0177  0.4141 -0.3691
 1641TIP3    H226339   1.842   3.550  16.219 -0.4394 -0.3473  0.6219
 1642TIP3   OH226340   5.114   0.892   5.188 -0.0882 -0.0946  0.3531
 1642TIP3    H126341   5.068   0.811   5.211  2.3082 -1.3983  0.8957
 1642TIP3    H226342   5.105   0.898   5.093 -3.1486  0.9279  0.5866
 1643TIP3   OH226343   3.949   5.851   4.153 -0.0604 -0.3718 -0.4520
 1643TIP3    H126344   3.933   5.914   4.083  1.4427  1.1605  0.5238
 1643TIP3    H226345   3.875   5.861   4.213  1.4153  2.4701  1.0615
 1644TIP3   OH226346   5.277   5.574   1.282 -0.1160 -0.1487 -0.3113
 1644TIP3    H126347   5.272   5.497   1.225 -1.0998 -1.2738  1.2477
 1644TIP3    H226348   5.185   5.598   1.298  0.1580  1.6863 -1.1421
 1645TIP3   OH226349   5.586   1.272  16.430  0.4261  0.0197  0.0328
 1645TIP3    H126350   5.597   1.332  16.356  1.1733 -1.0798 -0.7877
 1645TIP3    H226351   5.501   1.295  16.467 -0.2140  0.2484 -1.5000
 1646TIP3   OH226352   0.664   1.938   4.132  0.2034  0.4599  0.0904
 1646TIP3    H126353   0.674   2.022   4.178 -1.2263  0.6913 -0.0022
 1646TIP3    H226354   0.576   1.909   4.154  1.0333 -1.5522  0.9681
 1647TIP3   OH226355   3.345   1.628   0.920  0.5582  0.7494 -0.7932
 1647TIP3    H126356   3.277   1.651   0.856  0.3745 -1.7204 -1.6135
 1647TIP3    H226357   3.299   1.621   1.003  0.0063  0.2252 -1.1321
 1648TIP3   OH226358   3.024   2.946  14.711 -0.1210  0.5804  0.0077
 1648TIP3    H126359   3.044   3.040  14.713  0.0024  0.6029 -1.3750
 1648TIP3    H226360   3.061   2.912  14.793  1.6336  1.3913 -0.3896
 1649TIP3   OH226361   3.418   0.643   0.717 -0.3367  0.4505  0.0450
 1649TIP3    H126362   3.398   0.551   0.699  1.1825  0.1235 -0.0947
 1649TIP3    H226363   3.335   0.689   0.702 -1.4034 -1.0202  1.1750
 1650TIP3   OH226364   2.781   5.882   6.928 -0.3923 -0.3363  0.7459
 1650TIP3    H126365   2.838   5.843   6.862  0.2174 -0.3362  1.2610
 1650TIP3    H226366   2.693   5.854   6.904 -0.1865 -0.2575 -0.1143
 1651TIP3   OH226367   2.225   0.326  12.189  0.5118 -0.0766  0.0051
 1651TIP3    H126368   2.173   0.264  12.138  1.8729 -2.2341  1.0793
 1651TIP3    H226369   2.297   0.351  12.131  0.2670  0.0900 -0.2321
 1652TIP3   OH226370   1.278   3.929  15.810 -0.2425  0.5852 -0.2282
 1652TIP3    H126371   1.193   3.895  15.782 -0.2789  1.1821 -0.8795
 1652TIP3    H226372   1.257   3.993  15.878 -0.5041  2.1029 -1.6454
 1653TIP3   OH226373   2.699   4.762   1.350  0.8958 -0.0893 -0.2941
 1653TIP3    H126374   2.648   4.688   1.318  0.6854 -1.5711  3.0411
 1653TIP3    H226375   2.789   4.731   1.352  0.8493 -0.2082  0.8109
 1654TIP3   OH226376   0.877   1.374   2.998 -0.0863  0.4891 -0.2331
 1654TIP3    H126377   0.924   1.315   2.939  0.7049  0.5462  0.3218
 1654TIP3    H226378   0.887   1.334   3.084  0.8296  1.6369  0.2251
 1655TIP3   OH226379   2.182   4.721   3.703  0.0184 -0.5220  0.2865
 1655TIP3    H126380   2.104   4.673   3.674 -0.3544  0.6228 -0.6684
 1655TIP3    H226381   2.254   4.679   3.656 -0.1112 -1.0671  0.5609
 1656TIP3   OH226382   0.166   3.410   4.996 -0.5183  0.5339  0.4473
 1656TIP3    H126383   0.259   3.391   4.982 -1.1290 -2.0139 -0.7970
 1656TIP3    H226384   0.156   3.412   5.091  0.4502 -1.6587  0.6612
 1657TIP3   OH226385   4.847   1.170   0.625 -0.2228 -0.0945 -0.4199
 1657TIP3    H126386   4.801   1.158   0.709 -0.0033  3.0415  0.2791
 1657TIP3    H226387   4.940   1.156   0.647 -0.3408 -1.3656 -0.6646
 1658TIP3   OH226388   4.043   0.705   2.650 -0.1221  0.2402  0.2424
 1658TIP3    H126389   4.060   0.748   2.734  1.9834 -0.3355  0.1768
 1658TIP3    H226390   4.120   0.650   2.636 -1.9714 -2.3427 -0.4361
 1659TIP3   OH226391   1.845   0.441   5.579  0.5756 -0.0166  0.0636
 1659TIP3    H126392   1.771   0.395   5.617  1.2801 -0.7335  0.5995
 1659TIP3    H226393   1.811   0.528   5.558 -0.6465 -0.6216 -0.5419
 1660TIP3   OH226394   2.770   6.783   0.158  0.2242  0.2985  0.2561
 1660TIP3    H126395   2.768   6.864   0.106 -1.1315 -0.1197 -0.3882
 1660TIP3    H226396   2.705   6.727   0.116  0.8008 -0.9469  1.0007
 1661TIP3   OH226397   1.320   6.256   0.841  0.3878 -0.3785 -0.7671
 1661TIP3    H126398   1.373   6.220   0.912  0.6827  0.0065 -0.7854
 1661TIP3    H226399   1.268   6.325   0.882 -1.0454 -1.5939 -0.4932
 1662TIP3   OH226400   3.463   5.440   2.696 -0.0642 -0.6353  0.1610
 1662TIP3    H126401   3.399   5.398   2.638 -0.3610 -0.2041  0.1685
 1662TIP3    H226402   3.542   5.386   2.688 -0.3516 -1.0352 -0.0354
 1663TIP3   OH226403   0.678   4.005   0.642  0.0481 -0.0914  0.6856
 1663TIP3    H126404   0.730   3.925   0.633  0.3581  0.0492  1.1662
 1663TIP3    H226405   0.683   4.048   0.557  0.9866  0.0790  0.8233
 1664TIP3   OH226406   0.844   5.344  11.350  0.2724  0.4970  0.6342
 1664TIP3    H126407   0.812   5.331  11.440 -1.1445  1.7942  0.3563
 1664TIP3    H226408   0.779   5.300  11.295  1.1646 -0.3390  0.2109
 1665TIP3   OH226409   6.780   2.675   4.435  0.8557 -0.3550  0.1462
 1665TIP3    H126410   6.750   2.645   4.521 -2.7769  0.3082 -0.7254
 1665TIP3    H226411   6.713   2.644   4.374  2.1428  1.1013 -2.1517
 1666TIP3   OH226412   4.444   3.658  13.098 -0.0169 -0.1131  0.0040
 1666TIP3    H126413   4.361   3.608  13.098 -0.3042  0.3093  1.6393
 1666TIP3    H226414   4.452   3.691  13.008 -1.8587  0.2027 -0.0862
 1667TIP3   OH226415   2.927   2.500  10.780 -0.2351 -0.3416  0.0966
 1667TIP3    H126416   2.918   2.595  10.769  1.2431 -0.2603 -0.5422
 1667TIP3    H226417   2.863   2.478  10.849  3.0485  1.9647  4.3816
 1668TIP3   OH226418   5.539   1.744   1.349  0.5841  0.2551 -0.8541
 1668TIP3    H126419   5.500   1.692   1.419 -0.6033 -0.9555 -2.3392
 1668TIP3    H226420   5.633   1.724   1.352  0.4207 -0.4299 -0.1359
 1669TIP3   OH226421   2.458   2.660   0.016  0.2997 -0.7345  0.4664
 1669TIP3    H126422   2.513   2.738   0.026  1.9797 -1.9559  1.3425
 1669TIP3    H226423   2.415   2.651   0.101  0.8210 -1.2498  0.6824
 1670TIP3   OH226424   3.484   2.585  14.655 -0.0314  0.2467  0.0280
 1670TIP3    H126425   3.496   2.630  14.571  0.1116  0.0593 -0.0520
 1670TIP3    H226426   3.439   2.649  14.710 -1.1927 -0.0279 -0.5552
 1671TIP3   OH226427   1.430   0.729  13.656  0.0157 -0.8271  0.2015
 1671TIP3    H126428   1.438   0.804  13.716 -0.2765 -0.0692 -0.6755
 1671TIP3    H226429   1.520   0.699  13.643  0.2357 -0.0617 -0.1190
 1672TIP3   OH226430   5.079   4.213  15.259 -0.0574 -0.1243 -0.2037
 1672TIP3    H126431   5.025   4.274  15.209  1.8714  0.8413 -1.2071
 1672TIP3    H226432   5.056   4.126  15.225 -1.1365  0.2294 -0.4104
 1673TIP3   OH226433   0.745   2.553   3.875 -0.6897  0.6808  0.9365
 1673TIP3    H126434   0.828   2.519   3.909 -0.7072  1.6535  2.0147
 1673TIP3    H226435   0.752   2.648   3.886 -1.7796  0.7985  0.6650
 1674TIP3   OH226436   2.441   2.358   3.221  0.4563  0.5366  0.0809
 1674TIP3    H126437   2.531   2.362   3.254  1.0300  1.1620 -1.4551
 1674TIP3    H226438   2.387   2.384   3.296  1.6012  0.7227  0.8690
 1675TIP3   OH226439   2.029   0.262  16.357 -0.1764 -0.0295 -0.4740
 1675TIP3    H126440   2.075   0.178  16.357  0.3604  0.2528  0.3108
 1675TIP3    H226441   2.083   0.320  16.304 -0.4844 -0.1397 -0.9153
 1676TIP3   OH226442   1.268   6.352  16.927 -0.3905  0.1147  0.2533
 1676TIP3    H126443   1.214   6.419  16.885  0.5365  1.2101  0.7682
 1676TIP3    H226444   1.313   6.398  16.997 -1.2492 -1.4819  1.9376
 1677TIP3   OH226445   1.153   1.015   0.446  0.3504  0.3276  0.3326
 1677TIP3    H126446   1.114   0.945   0.395 -3.4312  1.9703  0.6554
 1677TIP3    H226447   1.112   1.095   0.413  1.7781  2.0284  2.3801
 1678TIP3   OH226448   6.606   4.587  11.001 -0.5727 -0.5812  0.2602
 1678TIP3    H126449   6.590   4.661  11.059  0.4135 -0.2421  0.1056
 1678TIP3    H226450   6.701   4.576  11.001 -0.5390 -0.5276 -1.3427
 1679TIP3   OH226451   2.248   4.675   0.493 -0.1792 -0.2087 -0.2588
 1679TIP3    H126452   2.302   4.694   0.416  1.1740 -1.1918  0.3882
 1679TIP3    H226453   2.184   4.611   0.462 -0.1961  0.0576 -0.7776
 1680TIP3   OH226454   5.079   2.719  14.747  0.0229 -0.1798  0.0006
 1680TIP3    H126455   5.174   2.731  14.746 -0.0501  0.5974  1.0169
 1680TIP3    H226456   5.061   2.671  14.828 -0.5685  0.8235  0.4760
 1681TIP3   OH226457   5.526   5.990  14.802 -0.2632  0.6320 -0.3943
 1681TIP3    H126458   5.591   5.974  14.870  1.1651 -1.6959 -2.1477
 1681TIP3    H226459   5.523   6.085  14.793  1.5630  0.8751  0.9789
 1682TIP3   OH226460   5.200   6.511  16.872 -0.2689 -0.6735  0.5812
 1682TIP3    H126461   5.290   6.524  16.904 -0.3649  1.8396 -0.0284
 1682TIP3    H226462   5.146   6.564  16.929 -0.8837  0.8950 -1.3538
 1683TIP3   OH226463   4.158   1.971   3.384 -0.4227 -0.7257  0.0384
 1683TIP3    H126464   4.234   1.928   3.345 -0.4582 -0.8640  0.1212
 1683TIP3    H226465   4.159   2.060   3.348  0.1660 -0.5115  0.5524
 1684TIP3   OH226466   1.730   4.409   3.842 -0.8866  0.1807  0.4588
 1684TIP3    H126467   1.703   4.412   3.750 -1.7181 -2.0312  0.5685
 1684TIP3    H226468   1.684   4.333   3.878  1.9152 -0.9792  1.8707
 1685TIP3   OH226469   5.453   1.187  13.820 -0.4258 -0.0649  0.1114
 1685TIP3    H126470   5.437   1.260  13.879 -0.3636  1.0039 -1.1608
 1685TIP3    H226471   5.373   1.134  13.825 -0.7975  0.5175  0.4422
 1686TIP3   OH226472   5.090   4.728  12.971 -0.1021 -0.1784  0.5015
 1686TIP3    H126473   5.030   4.770  12.911 -0.0336  0.4089  0.8422
 1686TIP3    H226474   5.124   4.653  12.922 -1.3000 -0.6734  0.3981
 1687TIP3   OH226475   4.986   1.539  11.703 -0.3079 -0.1915 -0.2971
 1687TIP3    H126476   4.995   1.466  11.764 -0.3786 -0.5021 -0.6540
 1687TIP3    H226477   4.910   1.516  11.650 -0.6890  0.4233 -0.0280
 1688TIP3   OH226478   6.425   4.630   3.314  0.6779 -0.0976  0.3084
 1688TIP3    H126479   6.387   4.698   3.259  1.2264  0.4347  0.5876
 1688TIP3    H226480   6.483   4.581   3.255 -0.5133 -1.0067 -0.1575
 1689TIP3   OH226481   2.886   6.599   4.952 -0.1056 -0.0357 -0.0482
 1689TIP3    H126482   2.898   6.535   4.881 -0.8632 -1.8709  1.3854
 1689TIP3    H226483   2.959   6.660   4.942  0.9319 -1.4000 -1.2327
 1690TIP3   OH226484   3.466   2.418   0.021  0.3170  0.2676  0.2149
 1690TIP3    H126485   3.393   2.356   0.014 -0.3153  0.7003  2.2204
 1690TIP3    H226486   3.448   2.484  -0.047 -1.9429  1.0581  1.4341
 1691TIP3   OH226487   5.826   2.880   2.764  0.0879  0.3021  0.8013
 1691TIP3    H126488   5.878   2.899   2.686 -2.3296  1.6895 -0.5877
 1691TIP3    H226489   5.740   2.918   2.746 -0.9211 -0.3139  3.7006
 1692TIP3   OH226490   5.453   2.905   2.001 -0.1895  0.1860  0.2028
 1692TIP3    H126491   5.534   2.859   1.978 -0.0325  1.1621 -1.3596
 1692TIP3    H226492   5.475   2.998   1.990 -1.5400  0.4572 -0.3045
 1693TIP3   OH226493   2.412   4.339  15.417  0.4592 -0.1824  0.5889
 1693TIP3    H126494   2.445   4.422  15.384 -1.4082 -0.0665 -1.1762
 1693TIP3    H226495   2.369   4.361  15.500 -0.7246  0.7992 -0.2554
 1694TIP3   OH226496   4.110   2.346  16.020 -0.1426 -0.8305  0.1662
 1694TIP3    H126497   4.076   2.310  16.102  1.1618  0.1479  1.1766
 1694TIP3    H226498   4.188   2.294  16.001 -0.3923 -1.0030 -0.4468
 1695TIP3   OH226499   2.750   0.210  11.446 -0.0988  0.3147 -0.3163
 1695TIP3    H126500   2.832   0.256  11.431  0.6211 -0.5874  0.7286
 1695TIP3    H226501   2.771   0.117  11.432 -1.0625  0.1179 -0.5402
 1696TIP3   OH226502   3.850   1.814   1.540 -0.3356 -0.1437 -0.4522
 1696TIP3    H126503   3.850   1.723   1.510  2.4672 -0.2870 -0.2511
 1696TIP3    H226504   3.757   1.838   1.543 -1.2683 -3.3723  0.6922
 1697TIP3   OH226505   1.064   4.038   2.656  0.0558  0.1073 -0.2160
 1697TIP3    H126506   1.159   4.036   2.664 -0.0113  0.3113  0.7034
 1697TIP3    H226507   1.036   4.105   2.719 -0.6066  0.9777 -1.3918
 1698TIP3   OH226508   3.564   3.295  12.087 -0.1159  0.3671 -0.0293
 1698TIP3    H126509   3.519   3.363  12.036 -0.9952  0.5448  0.9380
 1698TIP3    H226510   3.495   3.259  12.143  1.1561  1.4308  2.3540
 1699TIP3   OH226511   5.502   6.005  13.364  0.6152 -0.0495 -0.4814
 1699TIP3    H126512   5.431   5.949  13.397  1.3345 -0.0458  1.1479
 1699TIP3    H226513   5.495   5.998  13.269 -1.5667 -0.0519 -0.3708
 1700TIP3   OH226514   2.554   5.066  17.023 -0.2300  0.3004  0.9665
 1700TIP3    H126515   2.523   4.988  16.977  0.8034  0.7214 -0.5322
 1700TIP3    H226516   2.625   5.035  17.079 -1.4707 -0.2139  2.2845
 1701TIP3   OH226517   0.679   2.655  15.170 -0.5119 -0.1003 -0.0893
 1701TIP3    H126518   0.609   2.684  15.229 -1.9207 -1.5486 -0.9572
 1701TIP3    H226519   0.709   2.572  15.207  0.2288  0.1255 -0.1598
 1702TIP3   OH226520   6.737   0.710  15.815  0.3196  0.0222 -0.2497
 1702TIP3    H126521   6.713   0.634  15.762 -2.8812  0.9799 -0.4207
 1702TIP3    H226522   6.691   0.696  15.898 -1.1558  2.0985 -0.6237
 1703TIP3   OH226523   6.676   4.970  12.228 -0.0618 -0.5984 -0.8553
 1703TIP3    H126524   6.601   4.920  12.196 -0.0493 -0.4317 -1.1433
 1703TIP3    H226525   6.745   4.905  12.240 -0.5393 -0.9158  0.3509
 1704TIP3   OH226526   2.331   5.746  13.894  0.3989  0.1375 -0.6947
 1704TIP3    H126527   2.316   5.658  13.928  1.5698 -0.6629 -2.0961
 1704TIP3    H226528   2.407   5.736  13.836  3.1376  2.8215  2.0266
 1705TIP3   OH226529   4.643   6.768  10.630  0.0123 -0.0132 -0.4036
 1705TIP3    H126530   4.738   6.775  10.644 -0.3273  1.1658  1.8194
 1705TIP3    H226531   4.619   6.687  10.676 -0.3118  0.8055  0.9222
 1706TIP3   OH226532   2.749   1.781   2.495 -0.2446  0.0010 -0.2645
 1706TIP3    H126533   2.790   1.840   2.559 -1.2332  0.6416 -0.2111
 1706TIP3    H226534   2.687   1.836   2.448  1.6037 -0.0431 -2.9547
 1707TIP3   OH226535   0.346   2.041  16.525  0.2014  0.0573 -0.0235
 1707TIP3    H126536   0.253   2.030  16.542  0.0888 -1.3690 -1.3736
 1707TIP3    H226537   0.351   2.081  16.438  0.8506 -0.1073 -0.0729
 1708TIP3   OH226538   1.147   2.576   3.697 -0.0450 -0.2147  0.2865
 1708TIP3    H126539   1.174   2.646   3.638  0.2751  0.4351  1.1673
 1708TIP3    H226540   1.052   2.575   3.691 -0.0744  0.4904  0.4595
 1709TIP3   OH226541   4.780   0.137   0.227  0.2302 -0.7029  0.2689
 1709TIP3    H126542   4.692   0.100   0.219  0.2193 -0.4086 -1.4052
 1709TIP3    H226543   4.770   0.209   0.289 -0.6211 -0.9596  0.4453
 1710TIP3   OH226544   1.941   3.197  13.932 -0.0280 -0.4653  0.2575
 1710TIP3    H126545   1.913   3.230  13.847 -0.8577 -0.5005  0.5094
 1710TIP3    H226546   1.893   3.115  13.943  0.7605 -0.9194  0.3668
 1711TIP3   OH226547   5.034   0.489  14.270 -0.1704 -0.1354  0.2292
 1711TIP3    H126548   5.061   0.397  14.265  0.4828 -0.0329  1.5427
 1711TIP3    H226549   4.939   0.487  14.261 -0.0663 -0.8390 -0.8002
 1712TIP3   OH226550   2.615   4.657  14.157  0.1338 -0.1936 -0.5514
 1712TIP3    H126551   2.569   4.673  14.239 -1.1191  1.3343 -1.5129
 1712TIP3    H226552   2.565   4.587  14.115 -0.5661  0.5661 -1.0049
 1713TIP3   OH226553   2.527   0.185   0.374  0.2304 -0.6123 -0.3093
 1713TIP3    H126554   2.597   0.122   0.387  0.1990 -0.7977 -0.9768
 1713TIP3    H226555   2.468   0.143   0.312 -0.2752 -0.3049 -0.0418
 1714TIP3   OH226556   5.492   3.178  11.042 -0.0770 -0.3705 -0.0326
 1714TIP3    H126557   5.491   3.202  10.949 -2.6379  0.4305  0.1526
 1714TIP3    H226558   5.403   3.192  11.072  0.8479  0.1612  2.7816
 1715TIP3   OH226559   4.416   5.825  16.428 -0.7070 -0.2315 -0.1127
 1715TIP3    H126560   4.495   5.808  16.377 -0.9501 -1.6197 -0.0765
 1715TIP3    H226561   4.345   5.825  16.363 -0.6412  1.5491 -0.2191
 1716TIP3   OH226562   4.408   2.802  16.414  0.2029 -0.0639 -0.2390
 1716TIP3    H126563   4.319   2.802  16.450  0.6482 -0.5681  0.9159
 1716TIP3    H226564   4.446   2.719  16.444  1.2030  0.3426 -0.3419
 1717TIP3   OH226565   0.723   3.089  10.650  0.4360 -0.4514  0.0433
 1717TIP3    H126566   0.794   3.062  10.592 -0.6629 -0.3571 -1.4039
 1717TIP3    H226567   0.721   3.185  10.642  0.7740 -0.3540  0.8917
 1718TIP3   OH226568   4.272   1.904  12.313 -0.8842 -0.6102 -0.0895
 1718TIP3    H126569   4.318   1.975  12.268 -0.5220 -0.0922  1.0506
 1718TIP3    H226570   4.263   1.935  12.403 -0.3677 -2.1764  0.5299
 1719TIP3   OH226571   0.452   0.360  13.838  0.7995  0.8952 -0.0789
 1719TIP3    H126572   0.465   0.430  13.774 -1.6284  1.0311 -0.5046
 1719TIP3    H226573   0.381   0.391  13.893  2.4630  0.5447  2.4352
 1720TIP3   OH226574   2.487   1.977   4.373 -0.1744 -0.3659 -0.4455
 1720TIP3    H126575   2.470   1.904   4.432 -0.3600  1.4297  1.9076
 1720TIP3    H226576   2.498   2.053   4.431  0.0954  1.4762 -2.7233
 1721TIP3   OH226577   0.434   1.767   2.533 -0.9187 -0.1914  0.2485
 1721TIP3    H126578   0.370   1.838   2.524  1.1609  1.7737 -0.0581
 1721TIP3    H226579   0.475   1.784   2.618 -0.3385 -1.0050  0.1316
 1722TIP3   OH226580   0.242   1.974  14.188 -0.6773 -0.4895  0.1976
 1722TIP3    H126581   0.230   2.068  14.200  0.7204 -0.3580  0.8150
 1722TIP3    H226582   0.190   1.952  14.110 -0.2930  0.9682 -0.5007
 1723TIP3   OH226583   2.458   3.905  13.994 -0.6939 -0.0172 -0.4818
 1723TIP3    H126584   2.427   3.959  14.067  1.1256  0.6407 -0.1185
 1723TIP3    H226585   2.388   3.842  13.978 -2.6425  2.0167 -0.4788
 1724TIP3   OH226586   3.232   5.640   1.311 -0.0963  0.2985 -0.4927
 1724TIP3    H126587   3.263   5.723   1.347  0.1730 -0.7738  1.9899
 1724TIP3    H226588   3.185   5.664   1.232  0.1794  2.7820  0.0059
 1725TIP3   OH226589   2.701   3.548  11.262  0.5093 -0.0501  0.0373
 1725TIP3    H126590   2.646   3.624  11.243  1.1264  0.2038 -0.7851
 1725TIP3    H226591   2.682   3.487  11.191  2.2676  0.5886 -1.0485
 1726TIP3   OH226592   1.288   1.095  14.687 -0.1750  0.6548 -0.0063
 1726TIP3    H126593   1.309   1.007  14.718 -0.6160  0.4947 -0.1485
 1726TIP3    H226594   1.368   1.126  14.645 -0.2451  0.0307 -0.6109
 1727TIP3   OH226595   0.121   6.392   2.679 -0.5031  0.3937 -0.0849
 1727TIP3    H126596   0.190   6.413   2.742 -0.1664 -0.7987 -0.0400
 1727TIP3    H226597   0.166   6.393   2.594 -0.0117 -1.9683  0.0811
 1728TIP3   OH226598   0.225   4.068   3.237  0.1781 -0.2782  0.1591
 1728TIP3    H126599   0.248   3.975   3.242  0.8162 -0.0951  0.8962
 1728TIP3    H226600   0.304   4.113   3.266 -0.7053  0.4292  1.5745
 1729TIP3   OH226601   6.541   1.172  15.618  0.0266 -0.4588  0.2983
 1729TIP3    H126602   6.585   1.121  15.686 -0.6384  1.1991  2.0783
 1729TIP3    H226603   6.581   1.259  15.624 -0.7407 -0.0066 -0.7844
 1730TIP3   OH226604   0.701   0.450   0.953  0.7697 -0.1184 -0.0447
 1730TIP3    H126605   0.675   0.535   0.987 -0.9760 -0.4835 -0.3343
 1730TIP3    H226606   0.732   0.402   1.029 -1.2815 -0.2729  0.7627
 1731TIP3   OH226607   6.124   1.179  16.869  0.2025  0.2744 -0.2031
 1731TIP3    H126608   6.149   1.202  16.959 -3.5268 -0.4711  1.2387
 1731TIP3    H226609   6.084   1.259  16.835 -2.1650 -0.5161  0.4842
 1732TIP3   OH226610   5.815   1.216  13.696  0.1989 -0.4367  0.1053
 1732TIP3    H126611   5.867   1.196  13.774 -1.5171  1.4239  1.8519
 1732TIP3    H226612   5.858   1.292  13.658 -0.0573 -0.1491  0.3814
 1733TIP3   OH226613   1.908   5.445  11.102  0.4130 -0.1870  0.2141
 1733TIP3    H126614   1.880   5.474  11.016 -1.3740 -0.5562  0.6161
 1733TIP3    H226615   1.828   5.448  11.155  1.5539  0.4710  1.9873
 1734TIP3   OH226616   2.864   5.282  11.883  0.2335 -0.6887 -0.5635
 1734TIP3    H126617   2.881   5.256  11.974 -0.4176 -0.2469 -0.3056
 1734TIP3    H226618   2.819   5.366  11.890 -2.4565 -1.9685 -1.1489
 1735TIP3   OH226619   5.261   4.510  13.646 -0.2391  0.0595 -0.1134
 1735TIP3    H126620   5.190   4.570  13.667 -0.0588 -0.1242  1.0954
 1735TIP3    H226621   5.255   4.498  13.551 -2.9216 -1.3149  0.1352
 1736TIP3   OH226622   2.061   5.680   3.843 -0.0366 -0.2987 -0.3123
 1736TIP3    H126623   2.000   5.750   3.821  0.7828 -0.3750 -3.2047
 1736TIP3    H226624   2.113   5.715   3.916 -0.0649  1.8805 -1.2634
 1737TIP3   OH226625   1.737   5.075  15.345 -0.4161  0.2573 -0.0687
 1737TIP3    H126626   1.828   5.047  15.347 -0.5733 -0.5047 -1.7942
 1737TIP3    H226627   1.740   5.167  15.374  0.9673  0.3949 -0.5385
 1738TIP3   OH226628   1.876   4.996  14.904  0.6683  0.2407 -0.4428
 1738TIP3    H126629   1.952   4.969  14.955 -0.0908  1.7357  1.6504
 1738TIP3    H226630   1.847   5.077  14.946 -2.6453 -0.7506 -0.5308
 1739TIP3   OH226631   4.274   6.756   0.933  0.8645  0.4675 -0.2028
 1739TIP3    H126632   4.261   6.716   0.847  1.4355  0.5652 -0.3430
 1739TIP3    H226633   4.187   6.780   0.963  0.3603 -1.8107  0.3464
 1740TIP3   OH226634   3.481   4.036  12.558  0.2816 -0.2925  0.2593
 1740TIP3    H126635   3.432   3.958  12.585 -2.0626  1.2459  0.7700
 1740TIP3    H226636   3.414   4.104  12.546  2.3314  2.3940  2.4229
 1741TIP3   OH226637   0.289   2.031  15.511  0.6486  0.4149  0.2950
 1741TIP3    H126638   0.348   1.964  15.546  1.9755  0.5465 -1.5531
 1741TIP3    H226639   0.236   1.986  15.447  0.5251  0.8273  0.1016
 1742TIP3   OH226640   0.010   3.310   3.221  0.2200  0.2611 -0.2116
 1742TIP3    H126641  -0.041   3.264   3.154  0.9961  1.2502 -1.5071
 1742TIP3    H226642  -0.046   3.383   3.248 -0.7511 -0.9951  1.4041
 1743TIP3   OH226643   0.068   4.879   2.131 -0.4472  0.4482 -0.2748
 1743TIP3    H126644   0.111   4.870   2.046 -1.2214  1.2768 -0.7723
 1743TIP3    H226645   0.134   4.920   2.187  0.3369 -0.8208 -0.2399
 1744TIP3   OH226646   0.564   5.496   0.169  0.1063 -0.8272  0.0494
 1744TIP3    H126647   0.523   5.521   0.252  1.8412 -0.6235  0.9028
 1744TIP3    H226648   0.574   5.578   0.121 -1.0625 -0.9686 -0.4672
 1745TIP3   OH226649   0.656   6.407   3.496 -0.1380  0.2219  0.3958
 1745TIP3    H126650   0.726   6.370   3.442  1.8730  1.8503  1.7333
 1745TIP3    H226651   0.691   6.409   3.584 -2.7732 -0.9431  1.6001
 1746TIP3   OH226652   5.611   5.914   3.214 -0.2460 -0.7548 -0.8279
 1746TIP3    H126653   5.595   5.866   3.134  2.1517  0.9297 -2.4630
 1746TIP3    H226654   5.649   5.997   3.185  0.1388  0.1754  2.0242
 1747TIP3   OH226655   2.614   1.526   3.325 -0.3263  0.6401 -0.0815
 1747TIP3    H126656   2.585   1.546   3.414 -0.2524  1.6522 -0.2730
 1747TIP3    H226657   2.689   1.584   3.311 -0.7902  1.0324 -1.0560
 1748TIP3   OH226658   6.525   3.595  14.920  0.0954  0.4114 -0.1231
 1748TIP3    H126659   6.591   3.622  14.983 -0.4736  0.2915  0.5321
 1748TIP3    H226660   6.462   3.545  14.971  0.8534 -1.7669 -1.2111
 1749TIP3   OH226661   1.885   4.979  16.255  0.5598  0.0375  0.7686
 1749TIP3    H126662   1.894   5.028  16.337  2.1851  1.1271 -0.0051
 1749TIP3    H226663   1.945   5.022  16.195 -1.7837  0.3586 -1.5362
 1750TIP3   OH226664   1.390   1.687  16.438  0.3262 -0.0610 -0.3042
 1750TIP3    H126665   1.423   1.598  16.423  2.1813  0.7656 -1.4712
 1750TIP3    H226666   1.375   1.722  16.350 -2.7034  0.0202  0.1694
 1751TIP3   OH226667   3.541   5.284   1.176  0.4456  0.3897 -0.4493
 1751TIP3    H126668   3.561   5.374   1.201  1.9592 -0.4586  1.6903
 1751TIP3    H226669   3.624   5.248   1.146 -0.3137 -0.1112 -2.0959
 1752TIP3   OH226670   2.676   0.184  14.098  0.5317 -0.0911 -0.6113
 1752TIP3    H126671   2.681   0.147  14.009  1.2865  0.0175 -0.6207
 1752TIP3    H226672   2.736   0.130  14.149  1.2442  0.7842 -0.5026
 1753TIP3   OH226673   5.156   2.638   6.433 -1.0155 -0.0660 -0.5170
 1753TIP3    H126674   5.139   2.694   6.357 -0.6576  0.1063 -0.4760
 1753TIP3    H226675   5.134   2.550   6.403  0.3035 -0.1832 -1.2402
 1754TIP3   OH226676   2.206   4.784   4.991  0.2742 -0.2852 -0.2837
 1754TIP3    H126677   2.253   4.800   5.073 -0.3610  0.5835 -0.0731
 1754TIP3    H226678   2.238   4.699   4.961 -0.6625 -1.4261  1.7092
 1755TIP3   OH226679   5.975   1.352  13.512 -0.8316  0.6687 -0.4573
 1755TIP3    H126680   5.993   1.444  13.493 -0.5898  0.1038 -3.5783
 1755TIP3    H226681   6.057   1.307  13.490 -1.8009 -0.5292 -1.8339
 1756TIP3   OH226682   3.827   5.246   2.215  0.5485  0.0613 -0.2197
 1756TIP3    H126683   3.901   5.306   2.226 -0.4320  1.3359 -0.3680
 1756TIP3    H226684   3.807   5.215   2.304  1.4693 -0.5931 -0.2199
 1757TIP3   OH226685   1.284   2.285  12.062 -0.4669  0.2627 -0.2687
 1757TIP3    H126686   1.221   2.325  12.002 -0.7665 -0.7002 -0.6151
 1757TIP3    H226687   1.336   2.227  12.006 -0.6288 -0.5075  0.3593
 1758TIP3   OH226688   2.638   5.857   4.353 -0.4088  0.5896 -0.2028
 1758TIP3    H126689   2.635   5.764   4.332  0.3806  0.4565  0.2111
 1758TIP3    H226690   2.696   5.895   4.287  3.7365 -0.1582  2.5809
 1759TIP3   OH226691   0.168   3.532  16.480 -0.2633  0.1456 -0.4249
 1759TIP3    H126692   0.204   3.567  16.398 -2.1008 -0.4956 -1.5655
 1759TIP3    H226693   0.240   3.481  16.517  0.8249  0.9950 -1.2960
 1760TIP3   OH226694   0.779   2.631  13.861  0.4812  0.0903 -0.3587
 1760TIP3    H126695   0.760   2.645  13.768 -0.3092 -0.1780 -0.2442
 1760TIP3    H226696   0.703   2.584  13.894 -0.0809  1.7380  0.8211
 1761TIP3   OH226697   1.331   4.074  16.587 -0.1410 -0.3680  0.1479
 1761TIP3    H126698   1.415   4.121  16.582 -0.4028  0.1945  0.8801
 1761TIP3    H226699   1.265   4.143  16.585 -0.6029 -0.8203 -0.5802
 1762TIP3   OH226700   2.997   6.446   4.732 -0.1859  0.0834 -0.0294
 1762TIP3    H126701   3.005   6.472   4.641 -0.2396 -0.5647 -0.2298
 1762TIP3    H226702   2.956   6.359   4.728  0.8280 -0.4402  0.5554
 1763TIP3   OH226703   0.332   2.862   3.168  0.2007 -0.3231 -1.1106
 1763TIP3    H126704   0.284   2.781   3.153  0.7142 -0.4248 -2.2761
 1763TIP3    H226705   0.422   2.842   3.143  0.6845  0.1329  0.1814
 1764TIP3   OH226706   1.148   6.344  14.989  0.2456  0.4916  0.1899
 1764TIP3    H126707   1.236   6.331  14.952 -1.3119 -0.7907 -3.5409
 1764TIP3    H226708   1.106   6.406  14.930 -2.4030 -1.5182 -0.2329
 1765TIP3   OH226709   0.058   6.723  15.136  0.4587  0.3994  0.0089
 1765TIP3    H126710  -0.027   6.692  15.168 -0.2439  1.1616 -1.0379
 1765TIP3    H226711   0.091   6.650  15.083 -0.1615  0.5792 -0.6448
 1766TIP3   OH226712   2.536   0.936  11.660  0.5076  0.2530  0.5575
 1766TIP3    H126713   2.529   0.865  11.595 -0.5402  0.8533 -0.0030
 1766TIP3    H226714   2.521   0.893  11.744  0.2227 -0.2524  0.2533
 1767TIP3   OH226715   1.633   1.887  15.802 -0.1248  0.1387  0.3786
 1767TIP3    H126716   1.716   1.877  15.850  0.6151  0.0370 -0.8752
 1767TIP3    H226717   1.623   1.804  15.755 -1.4151 -0.2030  1.1920
 1768TIP3   OH226718   5.851   5.083   3.508 -0.1577  0.0712 -0.1887
 1768TIP3    H126719   5.867   5.136   3.429  1.3256 -0.0482  0.0056
 1768TIP3    H226720   5.933   5.035   3.521 -1.2562 -1.8407 -0.0101
 1769TIP3   OH226721   4.244   5.604   1.434  0.0216 -0.4981  0.5017
 1769TIP3    H126722   4.249   5.509   1.423 -1.0113 -0.4687 -0.3698
 1769TIP3    H226723   4.302   5.638   1.366 -1.2358 -0.4748 -0.5930
 1770TIP3   OH226724   5.244   3.811   1.277  0.2896  0.0096 -0.6395
 1770TIP3    H126725   5.200   3.854   1.351  2.8234  2.5254 -0.4416
 1770TIP3    H226726   5.212   3.858   1.200  2.1364  1.5734 -0.5272
 1771TIP3   OH226727   3.282   1.404   4.971  0.3843  0.3106  0.4183
 1771TIP3    H126728   3.261   1.432   4.882 -0.1991 -2.9795 -0.6201
 1771TIP3    H226729   3.377   1.413   4.978  0.7717 -1.5917 -1.4907
 1772TIP3   OH226730   2.385   2.656  14.143  0.1575  0.1461  0.0352
 1772TIP3    H126731   2.301   2.695  14.117  0.4636  0.6188 -0.2486
 1772TIP3    H226732   2.447   2.684  14.076  0.0380 -2.2718 -1.1830
 1773TIP3   OH226733   3.954   6.425   3.190  0.1751  0.5128 -0.0782
 1773TIP3    H126734   3.872   6.452   3.148  0.1109  1.2430  0.4927
 1773TIP3    H226735   3.931   6.344   3.236 -0.6166  1.4242  1.2203
 1774TIP3   OH226736   6.352   0.449   1.522  0.6170  0.3097  0.1791
 1774TIP3    H126737   6.372   0.537   1.489 -0.6845 -0.0386 -1.7165
 1774TIP3    H226738   6.258   0.437   1.504  0.3261 -0.8105  2.0745
 1775TIP3   OH226739   6.219   0.698   3.109  0.2897 -0.4351  0.0596
 1775TIP3    H126740   6.146   0.678   3.167 -1.4951  0.1197 -1.8627
 1775TIP3    H226741   6.291   0.642   3.140 -0.9231 -0.9767  2.0336
 1776TIP3   OH226742   1.084   6.581  11.043 -0.1440 -0.0305 -0.3431
 1776TIP3    H126743   1.090   6.560  10.950  1.6527  1.8631 -0.7313
 1776TIP3    H226744   1.144   6.655  11.054 -1.2189  0.5483  2.0955
 1777TIP3   OH226745   6.113   0.971   0.996  0.9974  0.4247 -0.9129
 1777TIP3    H126746   6.101   1.007   1.083 -0.5218 -0.0755 -0.8839
 1777TIP3    H226747   6.128   0.878   1.011  2.5224  0.6183 -1.1103
 1778TIP3   OH226748   5.309   5.373  13.804  0.2074  0.2051 -0.5808
 1778TIP3    H126749   5.325   5.388  13.711  1.0354 -2.5238 -0.9675
 1778TIP3    H226750   5.284   5.281  13.809 -1.3895  0.6792  1.7511
 1779TIP3   OH226751   5.066   6.238   3.752 -0.1329 -0.0038 -0.3768
 1779TIP3    H126752   5.149   6.271   3.719  0.2110  1.7475  1.9491
 1779TIP3    H226753   5.004   6.310   3.737 -0.6252 -0.3204  0.0811
 1780TIP3   OH226754   1.281   6.172  13.810  0.6559 -0.1412 -0.2692
 1780TIP3    H126755   1.305   6.265  13.811 -1.2096  0.3731 -0.2103
 1780TIP3    H226756   1.258   6.152  13.901  0.4143 -0.4971 -0.4084
 1781TIP3   OH226757   2.297   3.974  13.358 -0.3614 -0.3984 -0.5066
 1781TIP3    H126758   2.350   4.015  13.426 -1.5189 -0.1250  0.2684
 1781TIP3    H226759   2.335   4.005  13.276  0.8151 -0.4172  0.0169
 1782TIP3   OH226760   6.286   5.287  10.979 -0.0270 -0.0624 -0.1841
 1782TIP3    H126761   6.219   5.284  11.048  0.7602 -1.9671  0.5640
 1782TIP3    H226762   6.241   5.327  10.904 -1.4837  0.2714  0.8180
 1783TIP3   OH226763   3.004   3.423   4.945 -0.4832 -0.0377 -0.3856
 1783TIP3    H126764   3.029   3.476   4.869 -1.0570  0.2425 -0.3807
 1783TIP3    H226765   2.909   3.418   4.941 -0.4891 -0.3895  0.0737
 1784TIP3   OH226766   6.511   4.481   1.753  0.1545 -0.1982 -0.2733
 1784TIP3    H126767   6.585   4.423   1.773  0.3223 -0.9430 -2.6602
 1784TIP3    H226768   6.546   4.569   1.765  0.6265 -0.5520  1.0970
 1785TIP3   OH226769   2.828   6.036  15.640  0.3370 -0.3037 -0.2538
 1785TIP3    H126770   2.820   6.014  15.733 -1.0171  0.1880 -0.2375
 1785TIP3    H226771   2.887   5.970  15.605  0.1257 -1.0553  0.7663
 1786TIP3   OH226772   0.951   5.475   0.444 -0.3719 -0.4128 -0.0573
 1786TIP3    H126773   1.006   5.533   0.498 -0.8285  0.6873 -0.7392
 1786TIP3    H226774   0.884   5.443   0.504 -1.0391  1.0158  0.0065
 1787TIP3   OH226775   6.570   0.308  16.131  0.0297  0.0128 -0.1217
 1787TIP3    H126776   6.513   0.372  16.088  0.6995  0.5749 -0.2147
 1787TIP3    H226777   6.557   0.227  16.082 -1.7939 -0.2964  0.7887
 1788TIP3   OH226778   6.481   1.435  14.873  0.2120  0.0940  0.2589
 1788TIP3    H126779   6.491   1.522  14.910 -3.7802 -0.0429  2.2174
 1788TIP3    H226780   6.494   1.447  14.779  2.1433  2.2259  0.7111
 1789TIP3   OH226781   6.406   5.301   3.090  0.0283  0.0207  0.1353
 1789TIP3    H126782   6.499   5.318   3.106  0.4120 -2.6863  1.3012
 1789TIP3    H226783   6.404   5.252   3.008 -0.4775  0.6899 -0.2654
 1790TIP3   OH226784   4.116   5.310   2.543 -0.7262  0.0039 -0.4480
 1790TIP3    H126785   4.207   5.321   2.571 -0.5639  0.2282 -1.0372
 1790TIP3    H226786   4.075   5.394   2.564 -0.9928 -0.3510  0.5002
 1791TIP3   OH226787   4.225   3.108   1.738 -0.3222  0.0367 -0.0341
 1791TIP3    H126788   4.306   3.062   1.760  0.1601  0.8552 -0.0807
 1791TIP3    H226789   4.205   3.081   1.649  0.9479  1.2956 -0.7327
 1792TIP3   OH226790   2.482   4.895  13.781 -0.2055  0.2515  0.3938
 1792TIP3    H126791   2.486   4.906  13.685 -0.3443  1.7023  0.5302
 1792TIP3    H226792   2.468   4.802  13.793  0.7592 -0.1084 -0.9826
 1793TIP3   OH226793   1.911   6.372   2.368  0.1676  0.1532  0.2761
 1793TIP3    H126794   2.002   6.371   2.338 -0.0461 -0.3457 -0.3735
 1793TIP3    H226795   1.885   6.280   2.370 -0.3834  0.3044  0.2775
 1794TIP3   OH226796   4.055   3.736   5.183 -0.3114  0.4531 -0.0469
 1794TIP3    H126797   4.142   3.719   5.219 -0.3646 -0.7963 -0.5008
 1794TIP3    H226798   4.052   3.687   5.101 -1.7900 -0.3369  0.4484
 1795TIP3   OH226799   1.601   4.497   1.132  0.4737  0.2786  0.6872
 1795TIP3    H126800   1.638   4.425   1.181  0.2866  0.4783  1.1268
 1795TIP3    H226801   1.629   4.576   1.179  1.7365  0.5781 -0.4915
 1796TIP3   OH226802   1.078   4.513  12.969  0.0173 -0.2684  0.3611
 1796TIP3    H126803   1.144   4.552  13.026  0.4421  1.2123 -1.0644
 1796TIP3    H226804   1.128   4.458  12.908 -0.0411  0.8067 -0.6806
 1797TIP3   OH226805   6.230   1.789  15.594  0.4491  1.0138 -0.1459
 1797TIP3    H126806   6.203   1.791  15.502 -0.9899  0.1403  0.2143
 1797TIP3    H226807   6.321   1.819  15.593  0.6885  0.3803 -1.9268
 1798TIP3   OH226808   6.054   1.791   0.390 -0.2051 -0.3428 -0.2576
 1798TIP3    H126809   6.028   1.803   0.299 -1.3099 -1.6512 -0.1492
 1798TIP3    H226810   6.149   1.803   0.389 -0.4398  1.7367 -1.1759
 1799TIP3   OH226811   1.151   0.724  13.558 -0.1804 -0.2514  0.0271
 1799TIP3    H126812   1.232   0.759  13.596 -1.3467 -0.2189  2.6721
 1799TIP3    H226813   1.180   0.648  13.507  1.3847 -1.5933  2.6683
 1800TIP3   OH226814   2.373   4.143   0.091  0.2117 -0.0326 -0.5117
 1800TIP3    H126815   2.452   4.160   0.040 -0.0620  0.1158 -0.8914
 1800TIP3    H226816   2.319   4.088   0.033  0.1240 -0.3061 -0.1752
 1801TIP3   OH226817   1.386   2.791   5.743  0.1964  0.5955 -0.4293
 1801TIP3    H126818   1.456   2.730   5.720 -0.0863 -0.4098  1.1803
 1801TIP3    H226819   1.427   2.877   5.742  0.7931  0.3210 -2.0066
 1802TIP3   OH226820   4.852   2.391  16.313 -0.0386 -0.3596 -0.4134
 1802TIP3    H126821   4.807   2.315  16.276  1.8726 -1.2820 -0.9502
 1802TIP3    H226822   4.930   2.401  16.259  0.6454  0.9097  0.7596
 1803TIP3   OH226823   2.001   2.177  14.528  0.1762 -0.2600  0.0817
 1803TIP3    H126824   2.061   2.121  14.577  0.4336  0.7344  0.9422
 1803TIP3    H226825   1.930   2.196  14.589  0.8222  1.5122  0.3374
 1804TIP3   OH226826   0.180   4.605  12.076  0.8714 -0.2958 -0.0966
 1804TIP3    H126827   0.209   4.533  12.132  2.0713  0.3728  0.1932
 1804TIP3    H226828   0.145   4.670  12.137 -1.0626 -0.9745 -0.4276
 1805TIP3   OH226829   5.644   5.451  15.323 -0.4556 -0.7328  0.1415
 1805TIP3    H126830   5.560   5.472  15.282 -1.1133  2.8764  2.8881
 1805TIP3    H226831   5.705   5.515  15.286 -0.1208 -0.1183  1.6847
 1806TIP3   OH226832   3.616   3.642   3.029  0.4174  0.0164 -0.3362
 1806TIP3    H126833   3.613   3.703   2.955  1.9961  0.1769 -0.3160
 1806TIP3    H226834   3.595   3.557   2.990  1.0827  0.1207 -0.9655
 1807TIP3   OH226835   2.680   5.119  14.325 -0.0103  0.2069  0.1287
 1807TIP3    H126836   2.621   5.098  14.252 -0.2176  1.0341  0.0418
 1807TIP3    H226837   2.717   5.035  14.351  1.5341  0.0806 -2.1660
 1808TIP3   OH226838   3.138   4.663   4.698  0.3090 -0.0920 -0.0762
 1808TIP3    H126839   3.141   4.634   4.607 -0.5029 -1.6327  0.3698
 1808TIP3    H226840   3.218   4.715   4.709 -0.1433  1.0848 -1.9549
 1809TIP3   OH226841   4.054   4.091  11.554  0.2018 -0.8135 -0.3738
 1809TIP3    H126842   4.114   4.046  11.614  0.4997  0.8796  0.6962
 1809TIP3    H226843   4.108   4.110  11.477  0.5568 -0.8236 -0.1331
 1810TIP3   OH226844   4.778   3.133   3.841 -0.9799 -0.0289 -0.4243
 1810TIP3    H126845   4.837   3.058   3.830  0.7520  1.0328  1.1582
 1810TIP3    H226846   4.794   3.164   3.930 -1.6933  2.1987 -1.0097
 1811TIP3   OH226847   5.952   3.764   4.025 -0.1545 -0.3372 -0.2818
 1811TIP3    H126848   5.920   3.852   4.007 -2.4503 -0.6059  1.9965
 1811TIP3    H226849   6.039   3.778   4.064 -0.0827  0.8310 -0.8259
 1812TIP3   OH226850   2.865   2.133  13.323  0.0871  0.6881  0.1368
 1812TIP3    H126851   2.869   2.179  13.239 -0.1422 -0.1444 -0.3413
 1812TIP3    H226852   2.954   2.101  13.337  0.6102  2.4403  1.1677
 1813TIP3   OH226853   0.590   4.991  16.178 -0.1241  0.0577  0.0544
 1813TIP3    H126854   0.632   4.960  16.098  0.8194 -1.1146  0.9435
 1813TIP3    H226855   0.656   5.047  16.219  0.6601 -1.7617  1.4436
 1814TIP3   OH226856   6.041   6.551   1.754  0.5233 -0.0122 -0.1059
 1814TIP3    H126857   6.095   6.502   1.815 -0.1870  0.3243  0.8343
 1814TIP3    H226858   5.951   6.529   1.779  0.2196  0.1519 -1.0239
 1815TIP3   OH226859   0.144   1.542   1.875 -0.1681  0.0598 -0.3348
 1815TIP3    H126860   0.127   1.632   1.901  0.3556 -0.0853  0.5295
 1815TIP3    H226861   0.112   1.489   1.948  0.6236 -0.3884 -0.3021
 1816TIP3   OH226862   3.097   5.031  12.403  0.8198 -0.0001  0.3228
 1816TIP3    H126863   3.068   5.118  12.375 -0.4007 -0.5124 -0.0659
 1816TIP3    H226864   3.057   5.020  12.489  0.3063 -0.5054  0.0172
 1817TIP3   OH226865   1.988   6.517   2.802 -0.2026 -0.7754  0.2869
 1817TIP3    H126866   1.961   6.538   2.713 -1.3430  0.7869  0.9753
 1817TIP3    H226867   1.914   6.470   2.839  0.9838 -3.1522 -0.1132
 1818TIP3   OH226868   4.588   4.754  11.700 -0.1148 -0.1403  0.2155
 1818TIP3    H126869   4.524   4.804  11.650 -2.1274 -2.0593  0.7336
 1818TIP3    H226870   4.666   4.810  11.701 -1.3952  1.8271 -1.3420
 1819TIP3   OH226871   1.771   1.028  13.157  0.1794  0.3053  0.1639
 1819TIP3    H126872   1.818   0.947  13.138  0.4637  0.3043  0.8310
 1819TIP3    H226873   1.702   1.003  13.218  0.1544  0.5291  0.2315
 1820TIP3   OH226874   0.387   1.318   2.895  0.3338 -0.2494  0.2518
 1820TIP3    H126875   0.458   1.254   2.896  1.1207  0.5820  2.3407
 1820TIP3    H226876   0.421   1.391   2.844 -0.0178 -0.8401 -0.8821
 1821TIP3   OH226877   3.562   4.859  16.198 -0.2082 -0.3814  0.1643
 1821TIP3    H126878   3.539   4.951  16.211 -1.8377 -0.8662  0.9021
 1821TIP3    H226879   3.595   4.855  16.108 -0.3824  0.8645  0.0243
 1822TIP3   OH226880   2.161   0.978   5.558 -0.1038  0.0711  0.0132
 1822TIP3    H126881   2.150   0.990   5.653 -0.6843 -0.1031 -0.0309
 1822TIP3    H226882   2.156   1.066   5.522  0.8058  0.2163  0.2071
 1823TIP3   OH226883   6.504   0.018   6.100  0.1930 -0.0481 -0.8954
 1823TIP3    H126884   6.507   0.055   6.188  0.8431  0.4788 -1.1322
 1823TIP3    H226885   6.491  -0.076   6.114 -0.1161  0.0847 -0.2562
 1824TIP3   OH226886   5.662   1.945   5.630 -0.2632  0.4560  0.1026
 1824TIP3    H126887   5.643   1.908   5.717 -1.1774  0.1251 -0.2312
 1824TIP3    H226888   5.745   1.905   5.605 -1.0872 -1.1988 -0.1331
 1825TIP3   OH226889   2.460   4.056  16.019 -0.7497  0.2705  0.6168
 1825TIP3    H126890   2.507   4.118  16.074 -1.5443  1.2786  0.1828
 1825TIP3    H226891   2.526   3.992  15.992  0.8066  2.6214 -1.4492
 1826TIP3   OH226892   3.806   1.192  11.912 -0.6944  0.1869 -0.7342
 1826TIP3    H126893   3.818   1.170  12.004  0.4870  2.7502 -0.2039
 1826TIP3    H226894   3.723   1.239  11.909 -1.3400 -0.9568 -1.2112
 1827TIP3   OH226895   4.421   1.968   0.846 -0.3280  0.5770 -0.1284
 1827TIP3    H126896   4.383   1.882   0.824  0.9313  0.4989 -2.2508
 1827TIP3    H226897   4.355   2.009   0.902 -1.1258 -1.6171  0.6838
 1828TIP3   OH226898   5.040   4.600  12.259 -0.4701  0.4391 -0.0802
 1828TIP3    H126899   5.050   4.665  12.190 -0.2605 -0.4536 -0.9039
 1828TIP3    H226900   5.008   4.521  12.215 -0.0546 -0.2417  0.7816
 1829TIP3   OH226901   6.007   3.396   4.615 -0.2630 -0.0883 -0.5172
 1829TIP3    H126902   6.013   3.346   4.697 -0.4986  2.6650  1.3305
 1829TIP3    H226903   5.920   3.377   4.581  0.6222 -2.9591 -1.3766
 1830TIP3   OH226904   5.037   3.751  14.260 -0.1093 -0.3484  0.5751
 1830TIP3    H126905   5.026   3.793  14.174 -1.2707  0.5717  1.1362
 1830TIP3    H226906   4.980   3.675  14.257 -0.7989  0.1497  0.8075
 1831TIP3   OH226907   3.046   4.643  16.486 -0.0378  0.0573  0.0545
 1831TIP3    H126908   3.107   4.598  16.428 -1.4991 -1.1630 -0.5900
 1831TIP3    H226909   3.022   4.723  16.439  1.5070  0.8648  0.5897
 1832TIP3   OH226910   1.217   4.194   3.908 -0.1133  0.3283 -0.2966
 1832TIP3    H126911   1.161   4.164   3.979 -0.2568  1.5874  0.1602
 1832TIP3    H226912   1.304   4.160   3.930 -0.0311  1.2021  0.8361
 1833TIP3   OH226913   4.213   2.221   0.625 -1.2789 -0.0874  0.5663
 1833TIP3    H126914   4.248   2.306   0.599  0.2824 -0.8921 -0.0784
 1833TIP3    H226915   4.222   2.166   0.547 -1.2764 -1.1387  1.2884
 1834TIP3   OH226916   2.947   3.176  13.849  0.0763 -0.3988  0.2167
 1834TIP3    H126917   2.886   3.248  13.863  0.4941  0.3228 -1.4548
 1834TIP3    H226918   2.903   3.120  13.785  0.1464 -1.1673  0.8249
 1835TIP3   OH226919   4.820   1.280  13.250 -0.1881  0.3720  0.6872
 1835TIP3    H126920   4.739   1.250  13.207  0.5412  0.0238 -0.4862
 1835TIP3    H226921   4.825   1.228  13.330  0.4590 -1.9370 -0.7513
 1836TIP3   OH226922   2.247   1.920  11.575 -0.6207  1.0043  0.2077
 1836TIP3    H126923   2.309   1.859  11.615 -0.5610  0.5408 -0.5700
 1836TIP3    H226924   2.200   1.868  11.510 -1.2494  1.5530  0.2047
 1837TIP3   OH226925   4.947   3.391  15.501 -0.1984  0.0196 -0.5557
 1837TIP3    H126926   4.993   3.383  15.585  0.3868 -2.4232 -1.0325
 1837TIP3    H226927   4.975   3.476  15.467  1.5285 -0.0386  0.5861
 1838TIP3   OH226928   3.634   1.398  15.388 -0.0903 -0.5832  0.0050
 1838TIP3    H126929   3.699   1.423  15.453 -1.0533  0.1342  0.7189
 1838TIP3    H226930   3.568   1.351  15.437 -1.5040  1.1268 -0.1604
 1839TIP3   OH226931   6.632   1.276  16.189 -0.3776 -0.0788 -0.1662
 1839TIP3    H126932   6.555   1.308  16.142 -0.6963  2.4899  1.8466
 1839TIP3    H226933   6.706   1.296  16.132 -1.0301 -1.0910 -1.4186
 1840TIP3   OH226934   4.954   5.079  14.246  0.0947  0.1803  0.2802
 1840TIP3    H126935   5.001   5.120  14.172  0.0774 -1.7804 -0.8807
 1840TIP3    H226936   4.871   5.051  14.208  0.9446 -2.8024  0.4034
 1841TIP3   OH226937   1.651   0.474  15.835 -0.3836 -0.3265 -0.1176
 1841TIP3    H126938   1.696   0.508  15.912 -0.3284 -1.0605  0.1888
 1841TIP3    H226939   1.588   0.410  15.870 -2.6572  1.6119 -0.4118
 1842TIP3   OH226940   2.182   3.051   2.092 -0.2056 -0.3561 -0.3914
 1842TIP3    H126941   2.093   3.042   2.060 -0.6205  1.8039  0.0091
 1842TIP3    H226942   2.225   3.108   2.029  0.7094 -0.8267 -0.2145
 1843TIP3   OH226943   2.302   6.192   0.592  0.0523 -0.6713  0.1203
 1843TIP3    H126944   2.267   6.103   0.594  2.4481 -1.6859  2.4722
 1843TIP3    H226945   2.320   6.208   0.499 -0.2471 -2.7152 -0.3335
 1844TIP3   OH226946   4.304   1.643  10.477  0.4683 -0.1278  0.4974
 1844TIP3    H126947   4.220   1.658  10.434  1.0268  0.7648 -0.3148
 1844TIP3    H226948   4.298   1.693  10.559 -0.5095 -1.6490  1.4050
 1845TIP3   OH226949   6.521   2.987   2.227 -0.3460  0.0776 -0.3466
 1845TIP3    H126950   6.428   2.982   2.249  0.0491 -1.6319  1.2531
 1845TIP3    H226951   6.564   3.006   2.310  1.0290 -4.0311  0.1430
 1846TIP3   OH226952   5.201   3.801  12.045 -0.1797 -0.1892 -0.3038
 1846TIP3    H126953   5.149   3.775  12.120  0.2439 -0.5618 -0.1368
 1846TIP3    H226954   5.144   3.787  11.970 -0.4248 -0.3011 -0.0952
 1847TIP3   OH226955   6.206   1.684  15.116 -0.3675  0.1863  0.4259
 1847TIP3    H126956   6.239   1.724  15.036 -1.2671  1.4031  0.6417
 1847TIP3    H226957   6.126   1.640  15.089  0.6087 -1.5475  0.1900
 1848TIP3   OH226958   5.515   0.185   3.675 -0.3690 -0.3115  0.4805
 1848TIP3    H126959   5.529   0.094   3.701 -1.4632  0.2770  3.5706
 1848TIP3    H226960   5.444   0.182   3.611 -0.3747 -1.6097  0.5252
 1849TIP3   OH226961   1.774   4.827  15.686 -0.4330 -0.0036 -0.4764
 1849TIP3    H126962   1.736   4.803  15.602 -1.0656  0.3878 -0.3110
 1849TIP3    H226963   1.699   4.851  15.740 -0.5808 -4.1485  1.5410
 1850TIP3   OH226964   1.978   3.715   4.820  0.1142  0.8527 -0.2660
 1850TIP3    H126965   1.902   3.729   4.763 -0.3319  1.4110  0.4436
 1850TIP3    H226966   2.001   3.803   4.850  0.7246  0.6267 -0.0643
 1851TIP3   OH226967   3.049   5.220  11.401 -0.3541 -0.1233 -0.8488
 1851TIP3    H126968   2.982   5.239  11.467  2.0981 -0.4640  1.8966
 1851TIP3    H226969   3.088   5.305  11.382  1.8747 -0.4815  1.6042
 1852TIP3   OH226970   2.057   1.707  16.425 -0.2838 -0.2772 -0.4855
 1852TIP3    H126971   2.152   1.712  16.435 -0.0333 -3.0710 -0.6917
 1852TIP3    H226972   2.023   1.725  16.513  0.5856 -1.1824  0.0656
 1853TIP3   OH226973   3.426   6.358  13.482 -0.1515  0.5780 -0.0703
 1853TIP3    H126974   3.457   6.397  13.400  1.0016 -1.2874 -0.5944
 1853TIP3    H226975   3.506   6.345  13.534 -0.7174  0.5358  0.8204
 1854TIP3   OH226976   3.608   3.814  11.998  0.8478 -0.3038  0.3642
 1854TIP3    H126977   3.560   3.855  12.069  0.8057  3.3562 -1.5239
 1854TIP3    H226978   3.699   3.843  12.011  1.1301 -0.8942 -0.2260
 1855TIP3   OH226979   5.631   3.310   0.927  0.0347 -0.1767  0.0050
 1855TIP3    H126980   5.695   3.272   0.987  0.2207  0.1165 -0.0059
 1855TIP3    H226981   5.589   3.380   0.977  0.2527  0.1291 -0.2328
 1856TIP3   OH226982   0.462   2.760  15.344  0.5295 -0.1306 -0.4132
 1856TIP3    H126983   0.532   2.779  15.407  0.5850 -2.3717  0.3012
 1856TIP3    H226984   0.391   2.820  15.368  0.6806 -0.6609  1.6100
 1857TIP3   OH226985   2.518   2.085  14.162 -0.3094 -0.2886 -0.0803
 1857TIP3    H126986   2.599   2.034  14.164  0.2226  0.5473  0.5663
 1857TIP3    H226987   2.545   2.171  14.129 -1.0856 -0.2408 -0.6229
 1858TIP3   OH226988   4.784   3.918   5.576 -0.0145 -0.0029 -0.3475
 1858TIP3    H126989   4.706   3.908   5.630  0.4460 -1.7192  0.0650
 1858TIP3    H226990   4.827   3.996   5.609 -0.5518 -0.1549  0.7300
 1859TIP3   OH226991   6.430   0.342   4.048 -0.0449  0.2386  0.2601
 1859TIP3    H126992   6.450   0.422   3.998  0.9324  0.4393  0.9419
 1859TIP3    H226993   6.334   0.338   4.049 -0.0975  0.9784 -0.4533
 1860TIP3   OH226994   5.482   2.741   4.877 -0.3353 -0.2059  0.4197
 1860TIP3    H126995   5.415   2.784   4.930 -0.9814 -0.0210 -0.5160
 1860TIP3    H226996   5.562   2.747   4.929 -0.4008  2.0939  0.3450
 1861TIP3   OH226997   6.183   5.430   1.628 -0.6267  0.0676  0.2498
 1861TIP3    H126998   6.180   5.394   1.717  1.7468 -2.8512 -0.6604
 1861TIP3    H226999   6.268   5.475   1.624 -0.6876  0.1244 -0.5535
 1862TIP3   OH227000   0.562   1.142  15.838  0.3429  0.3048  0.4804
 1862TIP3    H127001   0.652   1.118  15.859  1.1785  0.6488 -2.3120
 1862TIP3    H227002   0.534   1.076  15.775 -0.9362  0.8971  0.4005
 1863TIP3   OH227003   0.209   6.133  16.404 -0.3439 -0.0683  0.2452
 1863TIP3    H127004   0.239   6.043  16.415 -0.1244 -0.3439 -2.2039
 1863TIP3    H227005   0.206   6.168  16.493  1.2947 -1.9272  1.0983
 1864TIP3   OH227006   2.488   3.873   0.231 -0.0884  0.2748 -0.3314
 1864TIP3    H127007   2.446   3.849   0.314 -2.1266  0.7152 -1.1605
 1864TIP3    H227008   2.568   3.918   0.257  2.6896 -4.7981  1.3763
 1865TIP3   OH227009   3.493   5.294  16.676 -0.0096  0.5501 -0.1340
 1865TIP3    H127010   3.434   5.273  16.748  0.6086 -1.2366 -0.1192
 1865TIP3    H227011   3.559   5.351  16.715  0.6525 -0.8706  0.8920
 1866TIP3   OH227012   2.569   4.717   5.923 -0.1523  0.1292 -0.2370
 1866TIP3    H127013   2.664   4.724   5.920 -0.0834 -0.7230 -0.2117
 1866TIP3    H227014   2.551   4.655   5.994 -0.7062 -0.0448 -0.5215
 1867TIP3   OH227015   3.156   4.353   3.614 -0.7072  0.0379  0.1751
 1867TIP3    H127016   3.096   4.420   3.580 -1.5956 -0.5417  0.5819
 1867TIP3    H227017   3.226   4.349   3.549 -1.3986  0.3204 -0.6036
 1868TIP3   OH227018   3.467   4.800  14.015  0.6680 -0.4133 -0.1880
 1868TIP3    H127019   3.545   4.831  14.062  1.0979  0.6067 -1.5097
 1868TIP3    H227020   3.441   4.874  13.961  0.3084 -1.6163 -1.7166
 1869TIP3   OH227021   3.249   4.472  14.972  0.4226 -0.6221  0.2821
 1869TIP3    H127022   3.295   4.550  15.002 -0.6953  0.3549 -0.4465
 1869TIP3    H227023   3.196   4.444  15.047  0.5013 -0.4233  0.4108
 1870TIP3   OH227024   1.634   4.922   0.873  0.3872 -0.2781  0.0746
 1870TIP3    H127025   1.642   4.947   0.965  1.9837 -1.1004  0.2006
 1870TIP3    H227026   1.650   5.003   0.824 -1.0240  0.2817  0.5041
 1871TIP3   OH227027   1.813   2.183   4.810  0.1189  0.1459 -0.4255
 1871TIP3    H127028   1.837   2.095   4.781 -0.0367 -0.2367  0.5634
 1871TIP3    H227029   1.856   2.242   4.748  0.3304 -0.6222 -1.0179
 1872TIP3   OH227030   3.430   1.920   4.101 -0.1563 -0.0207  0.3941
 1872TIP3    H127031   3.429   1.826   4.122 -1.9882 -0.2914 -0.6685
 1872TIP3    H227032   3.467   1.924   4.013  0.8078  0.3793  0.8030
 1873TIP3   OH227033   1.288   4.976  14.444 -0.6510 -0.3965 -0.2679
 1873TIP3    H127034   1.238   4.894  14.445 -0.4351 -0.5546  1.6531
 1873TIP3    H227035   1.242   5.032  14.507  0.5122  0.1231  0.1445
 1874TIP3   OH227036   6.004   2.774  17.143 -0.0683  0.0266  0.5713
 1874TIP3    H127037   6.037   2.685  17.131  0.0791 -0.2367  2.6290
 1874TIP3    H227038   6.083   2.828  17.145  0.0943 -0.2146  2.3540
 1875TIP3   OH227039   0.094   1.810   4.220  0.9642  0.5089 -0.6878
 1875TIP3    H127040   0.102   1.757   4.140 -0.3708 -0.3571 -0.2913
 1875TIP3    H227041   0.048   1.889   4.192  1.2827  0.6107 -0.9328
 1876TIP3   OH227042   6.058   1.727   4.725  0.0177 -0.7428 -0.1374
 1876TIP3    H127043   6.088   1.727   4.634  0.6531 -2.6452  0.0297
 1876TIP3    H227044   6.070   1.818   4.754 -0.1755 -0.1054 -1.9221
 1877TIP3   OH227045   1.164   1.111   1.689 -0.0892 -0.2533 -0.1190
 1877TIP3    H127046   1.156   1.140   1.598  1.3070  0.3915 -0.0619
 1877TIP3    H227047   1.075   1.089   1.715 -0.8074  1.3506 -1.0658
 1878TIP3   OH227048   1.923   0.103   5.237 -0.2985  0.2663 -0.3286
 1878TIP3    H127049   1.861   0.128   5.169  1.4774 -0.5507 -2.3292
 1878TIP3    H227050   1.959   0.186   5.268 -2.0139  0.7290  0.5931
 1879TIP3   OH227051   4.037   5.182   1.958  0.1265 -0.9315 -0.4178
 1879TIP3    H127052   4.079   5.213   2.038  0.8842  0.4767 -1.3111
 1879TIP3    H227053   4.103   5.126   1.916 -0.0257 -1.1524 -0.3618
 1880TIP3   OH227054   4.439   6.090  15.531 -0.3022 -0.0799  0.1300
 1880TIP3    H127055   4.376   6.058  15.466 -0.1197 -0.0985 -0.0378
 1880TIP3    H227056   4.403   6.174  15.559  1.0616  1.3491 -2.1084
 1881TIP3   OH227057   1.943   5.875   2.405 -0.2604  0.1943 -0.2192
 1881TIP3    H127058   1.874   5.815   2.433 -0.1729  0.4210  0.5272
 1881TIP3    H227059   1.969   5.844   2.319  0.3047 -1.3162  0.4532
 1882TIP3   OH227060   2.028   5.992  14.011  0.3218 -0.7497 -0.7126
 1882TIP3    H127061   2.090   5.948  14.068 -0.5204 -0.5954  0.3563
 1882TIP3    H227062   2.028   5.940  13.930 -0.3731 -2.5074  0.3618
 1883TIP3   OH227063   5.246   3.799  15.101  0.8613  0.5725 -0.2771
 1883TIP3    H127064   5.304   3.728  15.075  1.0096  0.2158  0.9575
 1883TIP3    H227065   5.158   3.761  15.101  0.9658  0.3199  0.5941
 1884TIP3   OH227066   3.261   3.590  10.761  0.5233  0.1180  0.3740
 1884TIP3    H127067   3.213   3.509  10.742 -0.3131  0.6441  0.1772
 1884TIP3    H227068   3.218   3.656  10.706  0.5893  0.8775  1.2164
 1885TIP3   OH227069   0.927   3.961   0.454  0.3620 -0.3819 -0.4864
 1885TIP3    H127070   0.962   4.050   0.449  0.0565 -0.2690 -0.6707
 1885TIP3    H227071   0.987   3.907   0.403 -0.5739  0.0719 -2.1381
 1886TIP3   OH227072   0.860   5.361  13.898 -0.0424 -0.4669  0.8424
 1886TIP3    H127073   0.830   5.444  13.934 -2.1364 -0.1884 -1.3172
 1886TIP3    H227074   0.951   5.377  13.873 -0.7689  1.6789 -0.7496
 1887TIP3   OH227075   0.502   3.143  16.123  0.3052 -0.6107 -0.8097
 1887TIP3    H127076   0.589   3.164  16.157 -0.5817 -0.2148  1.3730
 1887TIP3    H227077   0.478   3.220  16.071  1.4442 -0.9620 -1.9119
 1888TIP3   OH227078   4.867   1.821  14.605  0.1738 -0.0836 -0.1676
 1888TIP3    H127079   4.920   1.881  14.551 -1.2732  0.5732 -0.9288
 1888TIP3    H227080   4.889   1.734  14.573 -0.8702  0.3039 -2.1186
 1889TIP3   OH227081   0.170   3.389  16.170 -0.5315 -0.0803 -0.4511
 1889TIP3    H127082   0.200   3.354  16.254 -0.3040  0.9864 -0.0670
 1889TIP3    H227083   0.179   3.484  16.180  0.4269  0.0185 -2.0410
 1890TIP3   OH227084   5.775   4.403  16.907 -0.1534 -0.2716  0.1313
 1890TIP3    H127085   5.779   4.443  16.994  1.4488  0.3379 -0.1925
 1890TIP3    H227086   5.838   4.332  16.910 -0.8442 -0.9168 -0.2279
 1891TIP3   OH227087   4.962   3.229  16.720  0.5702 -0.2875  0.3853
 1891TIP3    H127088   5.018   3.153  16.709  0.0621 -0.5402 -0.4953
 1891TIP3    H227089   4.901   3.203  16.789  2.0199  0.2946  1.9640
 1892TIP3   OH227090   2.188   0.026  16.255 -0.6695 -0.2425  0.1016
 1892TIP3    H127091   2.276   0.020  16.290 -1.3156  1.7904  2.3844
 1892TIP3    H227092   2.196  -0.002  16.164  2.5527  0.9400 -0.1165
 1893TIP3   OH227093   0.938   0.694  11.849 -0.3548 -0.4322  0.1257
 1893TIP3    H127094   0.891   0.733  11.774  2.3141  2.1622 -0.3681
 1893TIP3    H227095   0.875   0.698  11.921 -2.3031 -1.0776 -1.4443
 1894TIP3   OH227096   6.733   3.403   3.929  0.4572  0.3594  0.1294
 1894TIP3    H127097   6.647   3.364   3.914  0.2545  0.9577 -0.2870
 1894TIP3    H227098   6.766   3.423   3.841  1.0141  0.1601  0.2867
 1895TIP3   OH227099   3.230   5.296   5.188  0.2350  0.2599  0.0531
 1895TIP3    H127100   3.280   5.335   5.116 -0.3380  1.7856  0.4517
 1895TIP3    H227101   3.144   5.277   5.150  0.4958 -0.6139 -0.1265
 1896TIP3   OH227102   6.390   3.199   5.190  0.3496 -0.8370  0.3534
 1896TIP3    H127103   6.362   3.114   5.156 -1.7383  0.3144 -1.0179
 1896TIP3    H227104   6.354   3.262   5.128 -0.0085  1.1842  2.4886
 1897TIP3   OH227105   5.083   3.366  10.254 -0.1408  1.0932 -0.7813
 1897TIP3    H127106   5.047   3.288  10.211 -2.5089  1.6454  0.0114
 1897TIP3    H227107   5.047   3.439  10.204  1.0079  1.7063 -0.7414
 1898TIP3   OH227108   0.971   4.042  16.899 -0.1391  0.2379 -0.2108
 1898TIP3    H127109   1.000   3.963  16.853 -1.3427 -0.1269 -0.3774
 1898TIP3    H227110   0.991   4.114  16.840 -0.5630 -0.1113 -0.7837
 1899TIP3   OH227111   3.649   6.154  16.238 -0.1724  0.4373  0.2809
 1899TIP3    H127112   3.564   6.195  16.253 -1.4210 -1.1760 -1.7599
 1899TIP3    H227113   3.711   6.227  16.236 -2.0642  2.1332 -1.8698
 1900TIP3   OH227114   5.679   3.466   4.405 -0.2477 -0.1602 -0.4316
 1900TIP3    H127115   5.604   3.454   4.347  1.0843 -0.7180 -2.1538
 1900TIP3    H227116   5.741   3.517   4.352 -0.5903  3.1510  2.0485
 1901TIP3   OH227117   2.354   2.273   2.656 -0.1241 -0.3080  0.7691
 1901TIP3    H127118   2.266   2.235   2.664  0.3775 -1.4655  0.9749
 1901TIP3    H227119   2.386   2.279   2.746  0.0328  0.0736  0.6919
 1902TIP3   OH227120   1.256   1.829  13.470  0.1758 -0.2058  0.7802
 1902TIP3    H127121   1.298   1.765  13.528  1.0007  0.1883  0.6326
 1902TIP3    H227122   1.275   1.796  13.382  0.1463 -0.0445  0.7139
 1903TIP3   OH227123   3.671   3.239   2.648 -0.2359 -0.5338 -0.2455
 1903TIP3    H127124   3.748   3.251   2.703 -0.0092  0.8871 -0.8539
 1903TIP3    H227125   3.640   3.151   2.670  0.8199 -0.6367  0.9164
 1904TIP3   OH227126   5.650   6.497  12.241 -0.0642  0.4747  0.4109
 1904TIP3    H127127   5.674   6.494  12.333  0.1053 -0.8315  0.3393
 1904TIP3    H227128   5.690   6.419  12.203 -3.4007 -1.2137  0.0492
 1905TIP3   OH227129   5.428   2.664   2.733 -0.1252 -0.0794  0.5678
 1905TIP3    H127130   5.370   2.625   2.668 -0.8045 -0.8834  1.6256
 1905TIP3    H227131   5.501   2.603   2.740  1.9264  1.8310 -2.1387
 1906TIP3   OH227132   2.566   3.647  13.731 -0.4787 -0.2398 -0.1860
 1906TIP3    H127133   2.641   3.700  13.757 -1.4849  1.7166 -1.0537
 1906TIP3    H227134   2.542   3.680  13.644 -3.5367  0.6424  0.8425
 1907TIP3   OH227135   0.979   4.864  13.107  0.3810 -0.4487 -0.0020
 1907TIP3    H127136   1.010   4.834  13.022 -0.4807 -0.4040 -0.3457
 1907TIP3    H227137   0.901   4.811  13.123  0.0440  0.1540  0.3611
 1908TIP3   OH227138   2.816   3.894   3.073  0.4543  0.3990  0.2528
 1908TIP3    H127139   2.770   3.816   3.039 -0.3651  1.1829 -0.4991
 1908TIP3    H227140   2.746   3.958   3.088  1.1046  0.9325  1.0260
 1909TIP3   OH227141   4.042   2.868   2.803  0.3104 -0.2662 -0.8653
 1909TIP3    H127142   4.050   2.903   2.891 -0.0891 -0.1750 -0.8646
 1909TIP3    H227143   4.008   2.779   2.816  0.4800 -0.3401 -0.9164
 1910TIP3   OH227144   0.780   1.817  10.363  0.1481  0.3749 -0.0047
 1910TIP3    H127145   0.839   1.891  10.351  3.0581 -1.0865  3.4870
 1910TIP3    H227146   0.735   1.836  10.445  1.5405 -1.9000  1.3956
 1911TIP3   OH227147   6.086   2.001   3.907 -0.1664  0.2496 -0.4389
 1911TIP3    H127148   5.993   1.994   3.926 -0.4129 -2.5663 -2.2020
 1911TIP3    H227149   6.130   1.969   3.986 -0.6893  0.5610 -0.0149
 1912TIP3   OH227150   2.240   5.980   2.689  0.3706 -0.0994 -0.4122
 1912TIP3    H127151   2.244   5.896   2.734  0.2054  0.1594  0.0927
 1912TIP3    H227152   2.297   6.038   2.740 -1.0961  0.6422  0.4545
 1913TIP3   OH227153   5.123   3.031   3.923 -0.0666  0.2369 -0.0107
 1913TIP3    H127154   5.114   3.097   3.991  1.2035 -0.2569  0.6635
 1913TIP3    H227155   5.209   3.047   3.885 -0.6825  0.4016 -1.4213
 1914TIP3   OH227156   3.375   2.318   6.177 -0.4216 -0.1421 -0.4443
 1914TIP3    H127157   3.446   2.265   6.213  0.7978  3.0066  2.2920
 1914TIP3    H227158   3.377   2.301   6.083  3.5499 -0.7371 -0.4207
 1915TIP3   OH227159   0.576   0.325   3.484  0.1708  0.1431 -0.4524
 1915TIP3    H127160   0.628   0.393   3.526  0.7893 -0.2361 -0.5941
 1915TIP3    H227161   0.491   0.367   3.468  0.1084  0.4719  0.6369
 1916TIP3   OH227162   3.460   2.441   4.150 -0.5562 -0.2653  0.1919
 1916TIP3    H127163   3.423   2.355   4.131 -1.9055 -0.1339  1.9780
 1916TIP3    H227164   3.384   2.500   4.155  0.3568  1.1412 -1.3546
 1917TIP3   OH227165   3.020   4.256  10.845 -0.2828  1.2011 -0.2192
 1917TIP3    H127166   2.970   4.277  10.766 -1.0831  1.7164  0.4140
 1917TIP3    H227167   2.966   4.192  10.891  0.4561  0.4576 -0.3592
 1918TIP3   OH227168   4.991   5.395  12.909 -0.0842  0.4264 -0.3510
 1918TIP3    H127169   5.031   5.308  12.912 -0.6932  0.1439 -0.2222
 1918TIP3    H227170   4.906   5.381  12.867  0.8876  1.4100 -2.8321
 1919TIP3   OH227171   6.699   3.712  11.601 -0.6609 -1.0071 -0.4094
 1919TIP3    H127172   6.747   3.707  11.518  0.6449  1.7148  0.0805
 1919TIP3    H227173   6.763   3.688  11.667 -0.9403 -0.6156  0.0061
 1920TIP3   OH227174   4.381   2.019  16.055  0.4489 -0.3826  0.2573
 1920TIP3    H127175   4.354   1.944  16.107 -4.3489  0.3091 -0.7774
 1920TIP3    H227176   4.324   2.017  15.978  2.1971  2.6621 -1.2963
 1921TIP3   OH227177   6.285   4.314   2.478 -0.6684  0.2410 -0.5942
 1921TIP3    H127178   6.302   4.407   2.462 -0.3215  0.4634  0.8813
 1921TIP3    H227179   6.368   4.281   2.514 -0.6911 -0.7200 -1.3840
 1922TIP3   OH227180   0.147   0.464   5.081  0.1448 -0.2793 -0.6121
 1922TIP3    H127181   0.229   0.435   5.041  0.2732  0.6271 -1.0365
 1922TIP3    H227182   0.165   0.467   5.175 -0.1605 -2.4477 -0.4463
 1923TIP3   OH227183   5.667   4.750  14.977  0.4384 -0.1322  0.6041
 1923TIP3    H127184   5.757   4.758  14.946 -0.1924  0.9961 -1.0775
 1923TIP3    H227185   5.614   4.744  14.898 -0.7994 -3.7349  1.5392
 1924TIP3   OH227186   6.338   1.194  12.743  0.0600  0.5220  0.2578
 1924TIP3    H127187   6.253   1.166  12.777  0.6441 -0.0132  1.3222
 1924TIP3    H227188   6.337   1.289  12.751  0.7377  0.3754  3.2639
 1925TIP3   OH227189   3.885   4.989  15.956 -0.5114 -0.1518 -0.2086
 1925TIP3    H127190   3.862   5.025  15.870 -1.9224 -0.8832 -0.1546
 1925TIP3    H227191   3.811   4.934  15.980  0.4501 -1.0057  0.9020
 1926TIP3   OH227192   0.533   2.320   4.893 -0.2456  0.0092 -0.5922
 1926TIP3    H127193   0.616   2.358   4.923  0.4359 -0.1183 -2.2128
 1926TIP3    H227194   0.517   2.361   4.808 -1.0496 -1.0849 -0.9934
 1927TIP3   OH227195   1.626   4.717   6.408 -0.3337  0.1682  0.1002
 1927TIP3    H127196   1.618   4.747   6.499  1.0914 -0.9007  0.6084
 1927TIP3    H227197   1.659   4.793   6.360 -0.3730  0.5209  0.6269
 1928TIP3   OH227198   6.246   4.589   3.633 -0.0804  0.4527  0.3016
 1928TIP3    H127199   6.215   4.678   3.613 -0.1554  0.6352  1.1767
 1928TIP3    H227200   6.168   4.535   3.624  0.2275  0.2478 -1.4976
 1929TIP3   OH227201   3.648   1.882  13.692 -0.1632 -0.6846  0.1120
 1929TIP3    H127202   3.616   1.948  13.754  1.8865  1.8515 -1.3576
 1929TIP3    H227203   3.575   1.869  13.631 -0.5180  0.4691  0.2590
 1930TIP3   OH227204   0.900   4.388  15.356 -0.1093  0.0249  0.4007
 1930TIP3    H127205   0.949   4.449  15.300  0.8397 -1.2726 -0.2503
 1930TIP3    H227206   0.821   4.367  15.305  1.0163 -1.5893 -0.8171
 1931TIP3   OH227207   5.873   2.639  13.243 -0.6640  0.7676  0.7672
 1931TIP3    H127208   5.938   2.683  13.299  0.6740 -1.1380  0.8115
 1931TIP3    H227209   5.923   2.572  13.197 -2.6855 -1.1129  1.1638
 1932TIP3   OH227210   5.701   6.415   2.902 -0.0870  0.6952  0.1625
 1932TIP3    H127211   5.606   6.422   2.894 -0.3469 -1.8558  0.0831
 1932TIP3    H227212   5.722   6.463   2.982 -1.5519  0.6020  0.6286
 1933TIP3   OH227213   2.325   3.239   3.287  0.1320 -0.1626  0.3036
 1933TIP3    H127214   2.330   3.334   3.280 -2.8753  0.0237 -0.6608
 1933TIP3    H227215   2.307   3.222   3.379  0.6921  0.1881  0.4818
 1934TIP3   OH227216   5.517   0.595  13.278  0.2173  0.0905 -0.2995
 1934TIP3    H127217   5.577   0.594  13.204 -0.1092 -0.4951 -0.5671
 1934TIP3    H227218   5.430   0.580  13.239  0.2608 -2.3220  0.3624
 1935TIP3   OH227219   0.137   5.100  11.287  0.0158 -0.1154 -0.1183
 1935TIP3    H127220   0.149   5.055  11.204  0.6686  0.7155 -0.4994
 1935TIP3    H227221   0.226   5.115  11.319 -0.1505  1.3271 -0.2580
 1936TIP3   OH227222   6.620   4.724  12.067 -0.3037  0.4076 -0.4485
 1936TIP3    H127223   6.618   4.630  12.084  1.4285  0.4975  0.5696
 1936TIP3    H227224   6.543   4.759  12.111  0.4305 -0.2575  1.4854
 1937TIP3   OH227225   3.856   1.971  12.552  0.3197  0.2641 -0.9000
 1937TIP3    H127226   3.891   1.998  12.467  0.4310  0.1070 -0.9056
 1937TIP3    H227227   3.918   2.007  12.616  0.9476 -0.6990 -0.9465
 1938TIP3   OH227228   4.719   5.119  12.187 -0.4628  0.0366 -1.2074
 1938TIP3    H127229   4.721   5.146  12.095  0.8021 -0.2752 -1.2814
 1938TIP3    H227230   4.651   5.052  12.191 -1.3042  0.8376 -1.6824
 1939TIP3   OH227231   1.882   6.104   6.176 -0.3834  0.5457 -0.2695
 1939TIP3    H127232   1.831   6.139   6.249 -0.6457 -0.0118 -0.1815
 1939TIP3    H227233   1.820   6.049   6.128  0.4665 -1.2209  0.5863
 1940TIP3   OH227234   3.322   4.587  11.233 -0.2988  0.6036 -0.2809
 1940TIP3    H127235   3.294   4.523  11.167  0.2405 -0.7300  0.7367
 1940TIP3    H227236   3.415   4.601  11.215  0.3434 -1.2169  1.2812
 1941TIP3   OH227237   3.251   4.249  11.009  0.3380  0.0407 -0.1119
 1941TIP3    H127238   3.169   4.285  10.975  0.0550  0.9378  1.4449
 1941TIP3    H227239   3.224   4.184  11.074  0.8688  0.0823  0.1586
 1942TIP3   OH227240   1.740   5.329  15.417  0.4154 -0.2004 -0.0045
 1942TIP3    H127241   1.786   5.402  15.376 -1.0148  0.5482 -0.3665
 1942TIP3    H227242   1.662   5.369  15.456 -0.8586 -1.6315 -0.9485
 1943TIP3   OH227243   5.888   3.949  14.140  0.4751  0.2411  0.6023
 1943TIP3    H127244   5.800   3.945  14.177  0.0236 -2.0938 -0.5274
 1943TIP3    H227245   5.895   4.037  14.103 -1.1102  0.6970  1.3242
 1944TIP3   OH227246   3.207   1.322  13.413 -0.3609  0.3084  0.0015
 1944TIP3    H127247   3.282   1.265  13.431  0.2710  0.7237 -1.2417
 1944TIP3    H227248   3.174   1.291  13.329 -1.0522  0.7011  0.1251
 1945TIP3   OH227249   6.563   4.541   3.105  0.2375 -0.6899 -0.0509
 1945TIP3    H127250   6.635   4.479   3.117 -0.0850 -1.0663 -0.0625
 1945TIP3    H227251   6.534   4.527   3.015 -0.6437 -1.3910  0.3288
 1946TIP3   OH227252   4.201   6.568   2.080  0.0877 -0.0295 -0.2260
 1946TIP3    H127253   4.263   6.633   2.115  1.3063 -0.8755 -0.7283
 1946TIP3    H227254   4.257   6.496   2.049 -1.2852 -2.7702  3.0506
 1947TIP3   OH227255   0.948   2.762   1.584  0.4740  1.0634  0.3508
 1947TIP3    H127256   0.991   2.689   1.629 -0.1144  0.0978 -0.5991
 1947TIP3    H227257   0.920   2.821   1.654  0.1929 -0.0468  1.1979
 1948TIP3   OH227258   2.926   6.098   3.330 -0.3000  0.5900 -0.3517
 1948TIP3    H127259   2.924   6.062   3.241 -0.9851 -2.9645  0.9203
 1948TIP3    H227260   3.004   6.058   3.369 -1.5471 -0.2494  1.4201
 1949TIP3   OH227261   0.403   3.639   4.354  0.5837  0.0901  0.2240
 1949TIP3    H127262   0.395   3.635   4.449 -1.3801  0.5059  0.1273
 1949TIP3    H227263   0.427   3.729   4.336  0.9595  0.0109  0.3252
 1950TIP3   OH227264   4.123   0.527  13.856  0.2750  0.2685 -0.2468
 1950TIP3    H127265   4.146   0.435  13.868  0.3818  0.0415 -1.8673
 1950TIP3    H227266   4.106   0.560  13.944  0.2419 -1.2956  0.3599
 1951TIP3   OH227267   2.125   2.500  11.136 -0.5201  0.1997  0.1259
 1951TIP3    H127268   2.204   2.553  11.133 -0.8875  0.8389  1.1391
 1951TIP3    H227269   2.136   2.436  11.067  0.6231  0.6446 -0.1205
 1952TIP3   OH227270   2.072   3.008   2.626 -0.1268  0.3640 -0.0932
 1952TIP3    H127271   2.157   3.016   2.583  0.2352  0.5692  0.6338
 1952TIP3    H227272   2.010   2.992   2.555  0.7098 -1.2545 -0.5102
 1953TIP3   OH227273   4.223   5.417  14.722 -0.2420  0.9104 -0.2145
 1953TIP3    H127274   4.154   5.420  14.655  0.1269 -0.0956 -0.6556
 1953TIP3    H227275   4.232   5.508  14.750 -1.1033  1.2005 -0.8127
 1954TIP3   OH227276   0.507   3.454   5.366 -0.5501 -0.2162 -0.4106
 1954TIP3    H127277   0.470   3.393   5.430 -1.8866 -0.4787 -1.3824
 1954TIP3    H227278   0.602   3.450   5.381 -0.8140 -0.1623  1.6149
 1955TIP3   OH227279   1.349   0.996   2.892 -0.1408  0.0750  0.0954
 1955TIP3    H127280   1.338   1.078   2.844  0.4829 -0.1629 -0.4594
 1955TIP3    H227281   1.275   0.994   2.953 -1.1416  0.2366 -1.0746
 1956TIP3   OH227282   3.214   0.178  15.236 -0.4006  0.0909  0.1998
 1956TIP3    H127283   3.285   0.132  15.193 -1.0484 -1.4362  0.6972
 1956TIP3    H227284   3.231   0.166  15.330 -1.9397 -1.3461  0.3275
 1957TIP3   OH227285   3.491   4.202  16.750  0.4542  0.4091  0.7587
 1957TIP3    H127286   3.442   4.278  16.719 -0.8972 -0.1628  1.3841
 1957TIP3    H227287   3.450   4.179  16.833  0.9437 -0.8755  0.6750
 1958TIP3   OH227288   5.220   1.513   1.830 -0.1924 -0.0872 -0.3359
 1958TIP3    H127289   5.147   1.543   1.884 -0.2843 -0.8201 -0.0457
 1958TIP3    H227290   5.231   1.582   1.765 -1.0261  0.1144 -0.2749
 1959TIP3   OH227291   2.767   2.138  15.155  0.0663 -0.0341 -0.0825
 1959TIP3    H127292   2.751   2.050  15.188 -0.7757 -0.0065 -0.3933
 1959TIP3    H227293   2.863   2.146  15.154  0.1873 -1.2716 -0.9287
 1960TIP3   OH227294   0.344   3.444  17.123 -0.0087 -0.0955  0.5722
 1960TIP3    H127295   0.382   3.479  17.043 -0.9273 -1.6180 -0.5845
 1960TIP3    H227296   0.319   3.522  17.174  3.1372  0.9519  0.7210
 1961TIP3   OH227297   1.015   5.101  14.093 -0.0504  0.0530  0.1629
 1961TIP3    H127298   1.106   5.123  14.073 -0.2371 -2.0403 -4.0250
 1961TIP3    H227299   0.964   5.143  14.023 -1.7517 -2.4208 -0.2002
 1962TIP3   OH227300   3.110   4.166   4.415  0.1376  0.1969  0.2508
 1962TIP3    H127301   3.198   4.200   4.431 -0.2398  2.0163 -1.2201
 1962TIP3    H227302   3.124   4.090   4.359  0.8337 -0.3849  1.1819
 1963TIP3   OH227303   3.707   6.715   6.239 -0.3512 -0.3122  0.0120
 1963TIP3    H127304   3.632   6.741   6.186 -1.0752  0.0282  1.1874
 1963TIP3    H227305   3.698   6.621   6.250 -0.6925 -0.2453  0.2923
 1964TIP3   OH227306   0.275   4.397   0.403  0.0157 -0.1901  0.2241
 1964TIP3    H127307   0.293   4.306   0.426 -0.9641 -0.4229  0.1411
 1964TIP3    H227308   0.180   4.400   0.390  0.2868  0.2297 -2.3881
 1965TIP3   OH227309   1.877   1.495   4.660 -0.6018  0.1333  0.5479
 1965TIP3    H127310   1.839   1.582   4.677 -1.8300 -0.7189  2.4355
 1965TIP3    H227311   1.971   1.508   4.669 -0.7521  1.3028  0.6379
 1966TIP3   OH227312   6.065   1.291  11.271  0.7131  0.7240  0.1787
 1966TIP3    H127313   6.021   1.371  11.243 -0.1986  0.6819  1.3892
 1966TIP3    H227314   6.005   1.221  11.244  0.2771  0.6290  1.3225
 1967TIP3   OH227315   4.895   1.317  11.851 -0.4016  0.0673 -0.0125
 1967TIP3    H127316   4.806   1.339  11.880 -0.9043  0.5625 -1.8259
 1967TIP3    H227317   4.899   1.222  11.857 -0.3651  0.1383  1.8808
 1968TIP3   OH227318   3.283   6.028   5.706  0.0760 -0.1419 -0.0056
 1968TIP3    H127319   3.266   5.957   5.644 -0.8615  1.5613 -1.8340
 1968TIP3    H227320   3.205   6.084   5.699  0.5513  0.7897  1.7647
 1969TIP3   OH227321   3.808   0.017  14.464 -0.1385 -0.1200  0.1596
 1969TIP3    H127322   3.799   0.093  14.407  1.9357  0.3638  0.3973
 1969TIP3    H227323   3.745   0.033  14.535 -1.1348  0.3686 -0.8054
 1970TIP3   OH227324   1.952   1.397  11.568 -0.4969  0.0430 -0.0588
 1970TIP3    H127325   1.995   1.355  11.494 -1.6342 -1.9708  0.3437
 1970TIP3    H227326   2.011   1.382  11.642 -0.1991  0.4772 -0.2083
 1971TIP3   OH227327   6.730   2.952   2.833 -0.1236  0.4052  0.0473
 1971TIP3    H127328   6.672   2.880   2.807  0.6009 -1.3990  2.9074
 1971TIP3    H227329   6.671   3.026   2.845 -1.1386 -0.1099 -1.4969
 1972TIP3   OH227330   0.144   1.430   1.608 -0.3852 -0.1824  0.1844
 1972TIP3    H127331   0.115   1.341   1.627 -2.3848  0.6118  1.1774
 1972TIP3    H227332   0.173   1.464   1.693 -1.8361  0.8368  0.2983
 1973TIP3   OH227333   3.183   0.970   5.825  0.4887  1.0703  0.1451
 1973TIP3    H127334   3.175   0.892   5.879 -1.3465  1.1169  0.0033
 1973TIP3    H227335   3.277   0.983   5.816  0.8433 -0.8629  0.5376
 1974TIP3   OH227336   2.205   4.672  14.455  0.5359  0.3071 -0.1075
 1974TIP3    H127337   2.120   4.667  14.412  0.3360  1.8433  0.0673
 1974TIP3    H227338   2.192   4.625  14.538  0.2888 -0.7135 -0.7088
 1975TIP3   OH227339   3.260   0.371  15.633 -0.0808 -0.3363 -0.5858
 1975TIP3    H127340   3.293   0.454  15.600 -1.1652  0.6503  0.6816
 1975TIP3    H227341   3.311   0.354  15.712  0.0523 -0.8235 -0.7709
 1976TIP3   OH227342   2.696   2.873  12.625  0.3657  0.1888  0.0336
 1976TIP3    H127343   2.692   2.868  12.721  0.0497  0.3280  0.0275
 1976TIP3    H227344   2.652   2.794  12.595 -0.9552  0.9096 -0.0094
 1977TIP3   OH227345   3.270   2.784  11.240 -0.1785  0.3931 -0.2880
 1977TIP3    H127346   3.310   2.802  11.325 -2.0282  0.8877  0.5215
 1977TIP3    H227347   3.275   2.868  11.193  2.4268 -0.3100 -1.4178
 1978TIP3   OH227348   3.949   3.107   1.067  0.3184 -0.0322 -0.1003
 1978TIP3    H127349   3.919   3.016   1.078 -3.0754  1.0367  0.6392
 1978TIP3    H227350   4.029   3.112   1.121  0.1877 -2.3615  0.4521
 1979TIP3   OH227351   6.609   1.119  15.354  0.2697  0.0843 -0.5648
 1979TIP3    H127352   6.586   1.130  15.446  0.1759  0.6660 -0.6545
 1979TIP3    H227353   6.678   1.053  15.354 -0.6745 -0.9402 -0.2053
 1980TIP3   OH227354   3.350   1.974  13.886 -0.1652 -0.1069  0.2008
 1980TIP3    H127355   3.263   2.014  13.897 -0.1187  0.2804 -0.7132
 1980TIP3    H227356   3.404   2.018  13.951 -0.5555 -0.0310  0.4792
 1981TIP3   OH227357   4.123   3.531  13.715  0.3833  0.0300 -0.0325
 1981TIP3    H127358   4.055   3.590  13.748  0.6522  0.4111 -0.1423
 1981TIP3    H227359   4.205   3.574  13.741  0.5844 -0.1238 -0.4129
 1982TIP3   OH227360   5.938   1.977   3.293  0.1078  0.3748 -0.0296
 1982TIP3    H127361   5.994   1.925   3.350  1.4778  0.7072 -1.0392
 1982TIP3    H227362   5.914   2.053   3.347 -1.6408 -1.0474  1.3354
 1983TIP3   OH227363   1.206   4.967   4.088  0.7177  0.0247 -0.1513
 1983TIP3    H127364   1.298   4.959   4.064  0.5805 -0.9542 -0.4173
 1983TIP3    H227365   1.159   4.919   4.020  0.1695 -1.0713  0.9538
 1984TIP3   OH227366   0.807   6.574  11.575  0.5577  0.0848 -0.3710
 1984TIP3    H127367   0.785   6.626  11.498  1.0825  0.4050 -0.3130
 1984TIP3    H227368   0.869   6.629  11.623 -0.9771  0.6069  1.1039
 1985TIP3   OH227369   4.908   2.613   2.943 -0.5274 -0.4301  0.5139
 1985TIP3    H127370   4.971   2.580   3.008  1.9863  2.1464 -0.3823
 1985TIP3    H227371   4.963   2.653   2.875 -3.1410  1.1868 -0.8212
 1986TIP3   OH227372   3.349   1.550   3.928 -0.3797 -0.4134 -0.1328
 1986TIP3    H127373   3.330   1.462   3.960  2.0550 -0.7444  0.6029
 1986TIP3    H227374   3.397   1.591   3.999  1.9119  0.1374 -1.8840
 1987TIP3   OH227375   5.486   3.922   1.123 -0.4045  0.1454  0.4904
 1987TIP3    H127376   5.530   3.862   1.063  1.5474  1.4220  0.5422
 1987TIP3    H227377   5.424   3.868   1.170 -1.2849 -1.1180 -1.9386
 1988TIP3   OH227378   4.875   0.644   1.981 -0.1785  0.1860 -0.0770
 1988TIP3    H127379   4.969   0.651   1.969 -0.3648  3.9112 -0.5534
 1988TIP3    H227380   4.838   0.689   1.905 -2.3104 -0.1197  0.7100
 1989TIP3   OH227381   3.714   6.336  14.443  0.4682 -0.1971 -0.2451
 1989TIP3    H127382   3.623   6.333  14.413  0.2066 -1.3898  0.6223
 1989TIP3    H227383   3.722   6.265  14.506  1.9649 -0.0036 -0.1638
 1990TIP3   OH227384   3.230   0.483  12.292 -0.1047 -0.1471 -0.2418
 1990TIP3    H127385   3.210   0.556  12.233 -0.5587  2.2739  2.6290
 1990TIP3    H227386   3.145   0.454  12.324  0.2040  1.1625  1.9654
 1991TIP3   OH227387   4.432   3.718  11.252 -0.4907  0.0795 -0.2272
 1991TIP3    H127388   4.382   3.726  11.333  0.8267  3.4577  0.4369
 1991TIP3    H227389   4.508   3.666  11.275 -0.0881  1.0813  0.7994
 1992TIP3   OH227390   0.186   6.132   4.906 -0.1520  0.1269 -0.2233
 1992TIP3    H127391   0.140   6.079   4.971  0.5560 -1.2824 -0.8188
 1992TIP3    H227392   0.183   6.221   4.940  0.3973 -0.6003  1.8762
 1993TIP3   OH227393   3.236   1.316  16.410 -0.0165  0.2324  0.3061
 1993TIP3    H127394   3.164   1.340  16.468  0.1255  0.4295  0.4039
 1993TIP3    H227395   3.259   1.227  16.436 -0.1267  0.2242  0.3749
 1994TIP3   OH227396   1.439   6.387   1.471 -0.4611  0.0097 -0.3194
 1994TIP3    H127397   1.446   6.377   1.566  0.7816  0.3174 -0.3719
 1994TIP3    H227398   1.466   6.302   1.436 -1.0788 -0.1594 -0.4120
 1995TIP3   OH227399   0.265   3.737   3.219  0.6203  0.0400 -0.5262
 1995TIP3    H127400   0.212   3.713   3.143 -1.3517  1.5063  0.2784
 1995TIP3    H227401   0.290   3.654   3.259 -0.2786 -0.7170 -1.4875
 1996TIP3   OH227402   4.049   5.904  15.651 -0.2262  0.0995 -0.1384
 1996TIP3    H127403   4.123   5.886  15.709 -0.3919  0.1794  0.1002
 1996TIP3    H227404   4.042   6.000  15.651  0.0998  0.1320 -0.7066
 1997TIP3   OH227405   1.672   2.821   5.153  0.0962  0.4330 -0.2235
 1997TIP3    H127406   1.641   2.905   5.119  1.3520  1.2874  0.6962
 1997TIP3    H227407   1.689   2.837   5.245 -0.1880 -0.9996  0.0948
 1998TIP3   OH227408   5.754   5.160   3.070 -0.0906  0.5443 -0.8385
 1998TIP3    H127409   5.805   5.206   3.003  0.5368  2.0289  0.5714
 1998TIP3    H227410   5.734   5.228   3.135 -0.4775 -0.8671  0.5789
 1999TIP3   OH227411   0.268   2.871   5.933 -0.0130  0.0109 -0.4024
 1999TIP3    H127412   0.324   2.825   5.995  1.5303 -1.6513 -2.8610
 1999TIP3    H227413   0.328   2.905   5.867 -1.7268 -0.8473 -2.5354
 2000TIP3   OH227414   6.162   0.732   4.401 -0.0919  0.2062 -0.0951
 2000TIP3    H127415   6.107   0.683   4.462  0.4060 -1.4515 -0.9286
 2000TIP3    H227416   6.131   0.822   4.409 -3.0552 -0.6424 -0.6155
 2001TIP3   OH227417   0.341   0.704  12.976  0.2989  0.2535  0.2025
 2001TIP3    H127418   0.379   0.649  12.908 -0.0757  0.9675 -0.6064
 2001TIP3    H227419   0.413   0.760  13.005 -0.1694  2.0133 -1.7398
 2002TIP3   OH227420   2.809   6.569   6.482  0.2802 -0.7342  0.3989
 2002TIP3    H127421   2.829   6.623   6.559  0.3964 -1.4336  0.8646
 2002TIP3    H227422   2.717   6.546   6.493  0.5035 -1.4796  0.7343
 2003TIP3   OH227423   6.701   1.141   2.890  0.3480  0.0745  0.2667
 2003TIP3    H127424   6.764   1.180   2.830  2.6476 -2.8944  0.4862
 2003TIP3    H227425   6.735   1.161   2.977  0.3067 -0.5077  0.4208
 2004TIP3   OH227426   1.318   5.496  12.984  0.6227  0.0661  0.2148
 2004TIP3    H127427   1.389   5.441  12.951  0.9464  0.3443  0.4491
 2004TIP3    H227428   1.361   5.562  13.038  0.3112  1.0098 -0.6535
 2005TIP3   OH227429   1.212   0.398  16.424  0.0262  0.3899 -0.0898
 2005TIP3    H127430   1.277   0.371  16.489  0.4686  0.4057 -0.5192
 2005TIP3    H227431   1.245   0.363  16.341 -0.7158  0.0650 -0.2525
 2006TIP3   OH227432   0.068   4.211  14.787 -0.1772 -0.3726  0.2239
 2006TIP3    H127433   0.100   4.122  14.799 -0.8270 -0.5882  0.4058
 2006TIP3    H227434   0.144   4.266  14.805 -0.4182 -0.7797  2.8378
 2007TIP3   OH227435   4.138   2.566  10.559  0.1660  0.4700  0.3301
 2007TIP3    H127436   4.063   2.541  10.505  1.1594 -1.2345 -0.3505
 2007TIP3    H227437   4.111   2.545  10.648 -0.5974  1.0053  0.2342
 2008TIP3   OH227438   0.429   2.094   6.175 -0.1914  0.3277 -0.2101
 2008TIP3    H127439   0.395   2.182   6.166  0.7689  0.7664  0.2879
 2008TIP3    H227440   0.353   2.041   6.199 -1.2842  0.5136 -2.9241
 2009TIP3   OH227441   6.097   3.608   4.455 -0.4207 -0.1471  0.4087
 2009TIP3    H127442   6.080   3.536   4.515  1.5595 -0.8821  0.1631
 2009TIP3    H227443   6.113   3.684   4.511 -1.0680 -0.2325  0.7143
 2010TIP3   OH227444   3.347   0.287   5.231  0.4918  0.7155 -0.4268
 2010TIP3    H127445   3.326   0.235   5.153  0.2216  2.0566 -1.2827
 2010TIP3    H227446   3.283   0.259   5.296  0.9001 -0.6315 -0.5714
 2011TIP3   OH227447   5.076   5.412   4.615  0.7635  0.2748 -0.3726
 2011TIP3    H127448   5.040   5.390   4.529  0.0878 -2.5221  0.5032
 2011TIP3    H227449   5.163   5.373   4.615  0.5337 -0.2610  0.3936
 2012TIP3   OH227450   6.249   0.592  13.293 -0.2886  0.7041  0.0682
 2012TIP3    H127451   6.340   0.586  13.263  0.5560  1.2331  2.3163
 2012TIP3    H227452   6.216   0.502  13.290  0.9328  0.1982  0.9557
 2013TIP3   OH227453   3.665   2.350   2.826 -0.2737 -0.3111 -0.0858
 2013TIP3    H127454   3.695   2.289   2.893 -1.4094 -1.3935 -0.5171
 2013TIP3    H227455   3.728   2.422   2.828 -2.0010  1.3767  4.3811
 2014TIP3   OH227456   5.057   0.231   4.953 -0.5833  0.1863  0.5500
 2014TIP3    H127457   5.002   0.183   5.015  0.5442 -0.3943  1.1358
 2014TIP3    H227458   5.097   0.300   5.005 -2.2822  1.9141 -0.3114
 2015TIP3   OH227459   4.791   0.709  12.587  0.1422 -0.3164 -0.6168
 2015TIP3    H127460   4.881   0.695  12.618  0.5297  1.2683 -0.9192
 2015TIP3    H227461   4.792   0.680  12.496  0.4657  0.0784 -0.7430
 2016TIP3   OH227462   3.313   5.709   0.368 -0.1098 -0.1039 -0.2785
 2016TIP3    H127463   3.288   5.694   0.459 -0.9307  0.1446 -0.4570
 2016TIP3    H227464   3.317   5.805   0.360 -0.9298 -0.0932 -0.7263
 2017TIP3   OH227465   1.681   4.835   0.374 -0.3921  0.0276  0.1134
 2017TIP3    H127466   1.710   4.901   0.438 -1.2263  1.7371 -1.2131
 2017TIP3    H227467   1.744   4.842   0.303 -1.1862  0.2498 -0.5747
 2018TIP3   OH227468   1.143   3.197  16.190  0.0544  0.0488  0.5520
 2018TIP3    H127469   1.158   3.120  16.246  0.3802 -0.1230  0.2354
 2018TIP3    H227470   1.086   3.166  16.121  0.9304 -0.1573 -0.0964
 2019TIP3   OH227471   1.026   0.666   2.793 -0.2836  0.8059 -0.5880
 2019TIP3    H127472   0.990   0.746   2.832 -1.0630  0.1164  0.1414
 2019TIP3    H227473   0.969   0.648   2.718 -0.6430  0.4558 -0.2325
 2020TIP3   OH227474   5.419   2.385  15.412  0.3001 -0.0839 -0.2387
 2020TIP3    H127475   5.346   2.412  15.356  0.1979 -0.5663 -0.3411
 2020TIP3    H227476   5.474   2.463  15.419 -0.0812  0.2021 -0.3868
 2021TIP3   OH227477   0.653   3.563  10.656  0.3369  0.7362  0.4073
 2021TIP3    H127478   0.571   3.578  10.703 -0.0535  0.0779 -0.0476
 2021TIP3    H227479   0.656   3.468  10.644  1.0748  0.7751  0.2474
 2022TIP3   OH227480   4.675   4.560  12.463 -0.2652  0.3640  0.6542
 2022TIP3    H127481   4.687   4.638  12.409 -0.9645  0.6328  0.8759
 2022TIP3    H227482   4.587   4.570  12.500 -0.2053 -0.3356  0.9974
 2023TIP3   OH227483   1.722   4.454  13.922 -0.7622  0.4089  0.4349
 2023TIP3    H127484   1.691   4.368  13.895  1.4764 -0.1206 -0.6422
 2023TIP3    H227485   1.681   4.468  14.007  0.9600 -3.0438  2.0618
 2024TIP3   OH227486   2.764   1.053   1.800 -0.8389 -0.2510 -0.7662
 2024TIP3    H127487   2.796   1.096   1.721  2.3135  1.1708  1.1110
 2024TIP3    H227488   2.746   0.963   1.773  0.0755  0.2020 -3.1026
 2025TIP3   OH227489   2.656   1.193   5.329 -0.3796 -0.3250  0.3397
 2025TIP3    H127490   2.608   1.131   5.274  0.2038 -0.5530  0.0822
 2025TIP3    H227491   2.591   1.260   5.352 -0.8115 -0.6117 -0.0266
 2026TIP3   OH227492   6.711   5.762  13.158  0.1020  0.2054 -0.2175
 2026TIP3    H127493   6.709   5.857  13.146 -0.2961  0.1937 -0.2358
 2026TIP3    H227494   6.638   5.743  13.216  0.2643 -0.0764 -0.1026
 2027TIP3   OH227495   2.468   6.476  13.158 -0.3136  0.1125  0.2333
 2027TIP3    H127496   2.530   6.507  13.224 -0.3766  0.0440  0.3248
 2027TIP3    H227497   2.382   6.488  13.198 -0.4154  1.0891 -0.2574
 2028TIP3   OH227498   0.280   6.622   4.806  0.0143  0.6197 -0.0284
 2028TIP3    H127499   0.315   6.559   4.869  0.5785  0.8521 -0.1103
 2028TIP3    H227500   0.193   6.588   4.785 -0.3657  0.7841  1.2135
 2029TIP3   OH227501   5.891   0.512  13.215 -0.4416  0.1110 -0.1802
 2029TIP3    H127502   5.970   0.459  13.229  0.3174  1.0370 -0.8857
 2029TIP3    H227503   5.919   0.602  13.231 -0.7395  0.7161 -2.7119
 2030TIP3   OH227504   1.463   3.044  11.781  0.1136 -0.4077  0.2019
 2030TIP3    H127505   1.549   3.010  11.805 -0.3500 -0.9841  1.0997
 2030TIP3    H227506   1.405   3.013  11.851 -0.5813  1.0590  0.3034
 2031TIP3   OH227507   6.262   6.159  11.216 -0.3775  0.3369  0.6231
 2031TIP3    H127508   6.338   6.205  11.252  1.1489  0.0761 -2.0112
 2031TIP3    H227509   6.253   6.081  11.270  4.1602 -2.0186 -1.4263
 2032TIP3   OH227510   0.562   5.114   2.821 -0.4872 -0.2900 -0.3588
 2032TIP3    H127511   0.467   5.114   2.827 -0.5436  0.1773 -1.1051
 2032TIP3    H227512   0.586   5.022   2.816 -0.7158 -0.5525  2.1561
 2033TIP3   OH227513   5.200   4.141  12.044 -0.2527  0.4090  0.1588
 2033TIP3    H127514   5.268   4.129  12.110  0.7892  0.7605 -0.8077
 2033TIP3    H227515   5.117   4.138  12.093  0.5143  1.5424  1.5941
 2034TIP3   OH227516   6.521   1.340   5.224  0.4312  0.2723  0.1591
 2034TIP3    H127517   6.509   1.435   5.221 -0.2542  0.1796 -0.1731
 2034TIP3    H227518   6.501   1.311   5.135  3.8968  0.1766 -0.7296
 2035TIP3   OH227519   3.897   1.565   0.669  0.7807 -0.0394 -0.0142
 2035TIP3    H127520   3.917   1.558   0.762  0.9918 -1.0909 -0.1227
 2035TIP3    H227521   3.884   1.475   0.640 -0.1624  0.3365 -0.8195
 2036TIP3   OH227522   0.213   3.686  12.649 -0.1786 -0.6379  0.4605
 2036TIP3    H127523   0.162   3.609  12.674 -1.6355  0.2791  0.4497
 2036TIP3    H227524   0.263   3.658  12.573 -1.4274 -1.3138 -0.1497
 2037TIP3   OH227525   6.236   6.119   2.624 -0.1118  0.5058  0.3259
 2037TIP3    H127526   6.168   6.171   2.581 -0.5992 -0.6461 -0.3567
 2037TIP3    H227527   6.314   6.173   2.620 -0.6265  1.2277 -0.2683
 2038TIP3   OH227528   0.314   5.757   5.655 -0.9830  0.1810  0.1802
 2038TIP3    H127529   0.302   5.665   5.632 -0.0764  0.2475 -0.6302
 2038TIP3    H227530   0.252   5.773   5.726 -1.2694 -1.0061  0.2087
 2039TIP3   OH227531   1.520   0.290   3.255 -0.1060  0.5776  0.0072
 2039TIP3    H127532   1.562   0.204   3.251 -0.5445  0.3677 -0.1095
 2039TIP3    H227533   1.433   0.276   3.218 -0.3093  0.9934  0.3240
 2040TIP3   OH227534   1.936   5.039   0.928 -0.5889  0.2602 -0.5230
 2040TIP3    H127535   1.869   5.026   0.994  0.5520 -2.4957  0.2358
 2040TIP3    H227536   2.016   5.003   0.967 -0.1849 -3.0223 -3.8671
 2041TIP3   OH227537   6.444   3.305   2.199 -0.4521  1.1489  0.0989
 2041TIP3    H127538   6.409   3.240   2.260  0.4610  0.7547  0.2281
 2041TIP3    H227539   6.475   3.376   2.254  1.1670  0.4164  0.2103
 2042TIP3   OH227540   4.635   5.753  16.915  0.3074 -0.0648  0.0826
 2042TIP3    H127541   4.589   5.816  16.859 -0.3821 -0.3835  0.2768
 2042TIP3    H227542   4.608   5.776  17.004  2.0963  1.0162  0.4099
 2043TIP3   OH227543   1.612   6.241  13.767  0.3602 -0.2860 -0.3801
 2043TIP3    H127544   1.704   6.244  13.790  0.3212 -1.5214  0.0496
 2043TIP3    H227545   1.566   6.269  13.846  0.3569 -0.1305 -0.4376
 2044TIP3   OH227546   6.725   4.253   0.791  0.2342  0.2045  0.4854
 2044TIP3    H127547   6.699   4.344   0.803  0.0257  0.2747 -0.4463
 2044TIP3    H227548   6.816   4.250   0.821  0.7370  1.0653 -0.8742
 2045TIP3   OH227549   6.501   5.835   0.137 -0.2526 -0.1997 -0.3037
 2045TIP3    H127550   6.566   5.779   0.093  0.1938  0.4285 -0.4582
 2045TIP3    H227551   6.493   5.798   0.225  0.9523  0.2079 -0.0062
 2046TIP3   OH227552   4.833   1.538  14.537 -0.3155 -0.1784  0.0834
 2046TIP3    H127553   4.828   1.450  14.574 -0.4419  0.2121  1.0171
 2046TIP3    H227554   4.769   1.588  14.587 -0.9330  0.2259 -1.0824
 2047TIP3   OH227555   2.204   3.015  14.545 -0.6366  0.0318  0.0599
 2047TIP3    H127556   2.258   2.994  14.469 -3.2678  1.0461 -2.2809
 2047TIP3    H227557   2.116   2.984  14.521 -1.2700 -1.3960  3.5739
 2048TIP3   OH227558   1.430   1.228   3.831  0.1292 -0.5201 -0.5189
 2048TIP3    H127559   1.486   1.232   3.908  0.2534 -3.1072 -0.4046
 2048TIP3    H227560   1.346   1.195   3.863  0.4282 -2.4115 -1.5668
 2049TIP3   OH227561   1.043   3.580  10.813 -0.2704  0.5242 -0.1903
 2049TIP3    H127562   1.127   3.537  10.801 -1.2548 -1.3219 -0.7772
 2049TIP3    H227563   1.020   3.614  10.727  0.5744  2.5003  0.2966
 2050TIP3   OH227564   3.356   3.780   0.790  0.2227 -0.4378 -0.5328
 2050TIP3    H127565   3.372   3.816   0.877  0.0696  0.2697 -0.7899
 2050TIP3    H227566   3.260   3.778   0.782  0.2319 -0.7310 -0.5965
 2051TIP3   OH227567   2.588   3.851  14.572 -0.0311 -0.3551  0.1483
 2051TIP3    H127568   2.647   3.805  14.632  0.4868  1.7837  1.3566
 2051TIP3    H227569   2.500   3.831  14.605  0.2280  0.2757  1.2693
 2052TIP3   OH227570   5.199   2.160  15.483  0.1759 -0.5882  0.4912
 2052TIP3    H127571   5.163   2.188  15.567  0.5399 -0.3819  0.5777
 2052TIP3    H227572   5.266   2.225  15.462 -0.1179 -0.4659 -0.1044
 2053TIP3   OH227573   6.129   2.774  15.522  0.1330  0.0337 -0.2376
 2053TIP3    H127574   6.034   2.763  15.523 -0.4686  3.7320 -0.8162
 2053TIP3    H227575   6.147   2.838  15.591  2.2352 -0.6255 -0.1060
 2054TIP3   OH227576   6.675   0.074  16.017  0.3098  0.2269 -0.1563
 2054TIP3    H127577   6.734   0.120  16.077 -0.5647  0.0425  0.8785
 2054TIP3    H227578   6.699   0.106  15.931  0.7576  1.4670  0.4063
 2055TIP3   OH227579   0.878   6.573   4.692 -0.3299  0.5204  0.4612
 2055TIP3    H127580   0.964   6.545   4.662 -1.2133  1.2252 -3.3540
 2055TIP3    H227581   0.818   6.504   4.663 -1.4102  1.8316 -0.6385
 2056TIP3   OH227582   1.708   2.558  15.190  0.4089 -0.2439 -0.3260
 2056TIP3    H127583   1.696   2.478  15.242  1.5460  0.0717  0.4428
 2056TIP3    H227584   1.681   2.629  15.248  0.8730  0.0451 -0.4605
 2057TIP3   OH227585   3.540   6.721  13.104  0.2405  0.2208  0.2826
 2057TIP3    H127586   3.546   6.648  13.042 -0.6518 -0.1317  0.5831
 2057TIP3    H227587   3.450   6.716  13.137  0.3842  1.0440  0.8204
 2058TIP3   OH227588   5.614   3.541  17.081 -0.2748 -0.3659  0.4573
 2058TIP3    H127589   5.708   3.544  17.062 -0.0946  0.2237  1.4006
 2058TIP3    H227590   5.583   3.464  17.034  0.7088 -0.6405  0.2381
 2059TIP3   OH227591   5.063   5.221   6.621 -0.2433  0.2011 -0.3854
 2059TIP3    H127592   5.094   5.143   6.667  0.8527 -0.0611 -1.5281
 2059TIP3    H227593   5.002   5.263   6.683  0.6301 -0.5146  1.0021
 2060TIP3   OH227594   6.062   0.354  11.989 -0.3966 -0.3350 -0.2724
 2060TIP3    H127595   6.127   0.415  11.954 -2.2814  1.8047 -0.2856
 2060TIP3    H227596   5.999   0.410  12.035 -1.4811 -2.4395  0.9564
 2061TIP3   OH227597   3.556   2.892   4.514  0.0506 -0.1746 -0.2038
 2061TIP3    H127598   3.552   2.892   4.418  1.6874 -2.4890 -0.3578
 2061TIP3    H227599   3.649   2.897   4.534 -0.3355  2.6026  1.4249
 2062TIP3   OH227600   4.030   5.402   1.256 -0.3820 -0.7051  0.2196
 2062TIP3    H127601   3.994   5.390   1.168 -1.9211 -1.6715  0.9434
 2062TIP3    H227602   3.959   5.376   1.315  1.4092 -2.5079  1.7346
 2063TIP3   OH227603   2.537   5.134   2.769  0.2941  0.0385  0.0770
 2063TIP3    H127604   2.604   5.079   2.810  0.4259 -0.4410 -0.7670
 2063TIP3    H227605   2.484   5.164   2.842  1.1388  0.0335  0.7146
 2064TIP3   OH227606   5.817   6.149   4.028 -0.2496 -0.2475 -0.4909
 2064TIP3    H127607   5.756   6.147   3.954 -2.5770 -0.6178  1.3257
 2064TIP3    H227608   5.815   6.239   4.059  3.8029  1.0239 -3.0958
 2065TIP3   OH227609   3.897   5.371  14.175  0.2053  0.1631  0.3515
 2065TIP3    H127610   3.957   5.368  14.251 -0.3221 -0.0425  0.7648
 2065TIP3    H227611   3.817   5.330  14.207 -0.8632  2.2073  0.4261
 2066TIP3   OH227612   6.025   2.566  11.686 -0.6666 -0.1924 -0.1064
 2066TIP3    H127613   5.991   2.477  11.694 -0.6061 -0.0974  1.5695
 2066TIP3    H227614   5.977   2.616  11.752  0.1764  0.7294 -0.1672
 2067TIP3   OH227615   5.705   0.186  13.927  0.3255 -0.0528 -0.7695
 2067TIP3    H127616   5.772   0.210  13.992 -0.2765  2.1052 -0.8822
 2067TIP3    H227617   5.623   0.214  13.966 -0.1891  0.0617 -1.9183
 2068TIP3   OH227618   4.504   6.471  11.373  0.0239 -0.0462  0.2278
 2068TIP3    H127619   4.458   6.432  11.447 -0.4517 -0.2704 -0.1764
 2068TIP3    H227620   4.435   6.490  11.309  0.2575  1.3022  0.3320
 2069TIP3   OH227621   5.284   4.970   0.094 -0.0836 -0.3029 -0.5662
 2069TIP3    H127622   5.277   5.031   0.020 -1.1705  0.5170  0.1950
 2069TIP3    H227623   5.197   4.970   0.134  1.2150  1.6743  2.5850
 2070TIP3   OH227624   1.155   3.842  12.766  0.0172 -0.7195 -0.2699
 2070TIP3    H127625   1.159   3.841  12.670  2.7077 -1.9065 -0.2247
 2070TIP3    H227626   1.227   3.899  12.793  0.6775 -2.0898  1.0178
 2071TIP3   OH227627   3.851   4.375   0.497  0.0522  0.5405 -0.1253
 2071TIP3    H127628   3.926   4.414   0.542 -1.3431 -0.1349  3.0661
 2071TIP3    H227629   3.806   4.449   0.457  1.3870  1.1801 -0.4919
 2072TIP3   OH227630   4.363   4.071  13.547 -0.6157 -0.4393  0.3487
 2072TIP3    H127631   4.325   4.069  13.635 -1.9457 -0.6004 -0.2182
 2072TIP3    H227632   4.312   4.136  13.500  2.3021  2.3069  0.6262
 2073TIP3   OH227633   5.451   4.599  13.821 -0.7205 -0.1577 -0.1040
 2073TIP3    H127634   5.400   4.541  13.765  0.9673 -0.1198 -1.7845
 2073TIP3    H227635   5.468   4.676  13.767  2.7690 -1.0045 -0.4467
 2074TIP3   OH227636   5.033   4.904  10.939 -0.0232 -0.6616 -0.3694
 2074TIP3    H127637   4.991   4.845  10.875 -1.1891 -0.2817  0.0221
 2074TIP3    H227638   4.989   4.988  10.927  1.6313  0.1794 -0.9322
 2075TIP3   OH227639   2.112   1.548   0.546 -0.1699  0.3282 -0.0297
 2075TIP3    H127640   2.022   1.514   0.544 -0.1681  0.3423 -0.3350
 2075TIP3    H227641   2.128   1.579   0.457  0.7548 -1.2723 -0.4539
 2076TIP3   OH227642   3.770   0.189  15.654  0.3714  0.0094 -0.6315
 2076TIP3    H127643   3.715   0.146  15.589 -0.7354 -0.9949  0.9149
 2076TIP3    H227644   3.830   0.121  15.685  0.1329  0.1759  0.2126
 2077TIP3   OH227645   3.438   2.345  14.483 -0.4753  0.2176  0.6819
 2077TIP3    H127646   3.517   2.388  14.515 -1.4149  0.6865  2.4838
 2077TIP3    H227647   3.366   2.389  14.528 -1.8637  0.3085 -1.4666
 2078TIP3   OH227648   2.999   0.248  15.704  0.5195 -0.5093  0.6946
 2078TIP3    H127649   3.016   0.323  15.647 -1.2771  0.3050  1.1632
 2078TIP3    H227650   3.034   0.275  15.789 -0.2269 -0.1177  0.8917
 2079TIP3   OH227651   2.898   1.251  13.436  0.9987 -0.2761  0.2926
 2079TIP3    H127652   2.808   1.221  13.443  0.6853  0.6896  0.5944
 2079TIP3    H227653   2.922   1.234  13.345  0.0028  0.7823 -0.1971
 2080TIP3   OH227654   5.597   3.147  13.170  0.2885  0.1305  0.3231
 2080TIP3    H127655   5.557   3.198  13.099 -1.1707  0.2333  1.1697
 2080TIP3    H227656   5.664   3.095  13.127 -1.2957 -0.6467 -1.3599
 2081TIP3   OH227657   0.037   2.612   1.232 -0.2922 -0.3169  0.4262
 2081TIP3    H127658   0.057   2.701   1.261  0.4779 -0.3472  0.0119
 2081TIP3    H227659   0.097   2.597   1.159 -0.4910 -1.1423  0.4269
 2082TIP3   OH227660   1.589   0.951  15.572 -0.7662 -0.0966 -0.2003
 2082TIP3    H127661   1.536   0.954  15.492 -0.4346  1.3220 -0.3868
 2082TIP3    H227662   1.575   1.037  15.613 -1.0114 -0.8253  1.3314
 2083TIP3   OH227663   0.038   4.359  16.650 -0.0438 -0.3820 -0.0153
 2083TIP3    H127664   0.034   4.425  16.581  0.4009  0.5343  0.7947
 2083TIP3    H227665   0.100   4.294  16.618 -0.5843 -0.4811 -0.8849
 2084TIP3   OH227666   3.239   2.787  13.066 -0.3930  0.1466  0.2404
 2084TIP3    H127667   3.223   2.870  13.111  2.0356  0.0088  1.5083
 2084TIP3    H227668   3.250   2.723  13.136  1.0412 -0.5671 -0.5886
 2085TIP3   OH227669   4.102   1.242   1.381 -0.3512  0.3616  0.7310
 2085TIP3    H127670   4.030   1.265   1.322  0.2653  2.1160  0.5778
 2085TIP3    H227671   4.067   1.172   1.436 -1.4355 -0.3049 -0.7337
 2086TIP3   OH227672   0.907   2.399  12.087  0.6625 -0.2898  0.0100
 2086TIP3    H127673   0.932   2.488  12.110 -2.2034  0.9589 -1.2149
 2086TIP3    H227674   0.929   2.347  12.165  1.3056  1.7017  1.2282
 2087TIP3   OH227675   3.699   0.469   1.672 -0.2873 -0.2565 -0.2953
 2087TIP3    H127676   3.612   0.486   1.707 -1.4578 -2.0370 -2.1435
 2087TIP3    H227677   3.684   0.418   1.593  2.4926 -1.4910 -0.1468
 2088TIP3   OH227678   6.133   3.626  15.195 -0.3752  0.3982 -0.2033
 2088TIP3    H127679   6.037   3.624  15.195 -0.4048  0.9838 -1.5587
 2088TIP3    H227680   6.156   3.679  15.271 -1.0337 -1.5676  1.4668
 2089TIP3   OH227681   0.306   5.020   2.801 -0.3955 -0.1849  0.3161
 2089TIP3    H127682   0.338   4.961   2.870 -1.5110 -0.4682  0.6055
 2089TIP3    H227683   0.215   5.039   2.826 -0.6848  0.0331 -0.8710
 2090TIP3   OH227684   1.085   0.542  11.274 -0.7581 -0.3905 -0.3908
 2090TIP3    H127685   1.172   0.550  11.314 -0.1737 -3.2463 -0.9205
 2090TIP3    H227686   1.084   0.609  11.206  1.3436 -0.7906 -0.8797
 2091TIP3   OH227687   4.139   3.739   0.129  0.2386 -0.1489  0.0428
 2091TIP3    H127688   4.069   3.805   0.130  0.1694 -0.2173  1.6853
 2091TIP3    H227689   4.189   3.758   0.050 -1.7908 -0.2646 -1.3456
 2092TIP3   OH227690   5.826   2.568   2.487 -0.6173 -0.1136 -0.3396
 2092TIP3    H127691   5.871   2.517   2.419 -1.7516 -0.2017 -1.0598
 2092TIP3    H227692   5.896   2.614   2.534  0.2435 -0.5971 -1.1217
 2093TIP3   OH227693   5.739   2.056   0.453  0.0059  0.4525  0.1297
 2093TIP3    H127694   5.668   2.004   0.493 -0.5491 -0.1414 -1.5622
 2093TIP3    H227695   5.708   2.146   0.458 -1.0471  0.1701 -0.8782
 2094TIP3   OH227696   2.801   5.915  11.239  0.0289  0.3082 -0.5381
 2094TIP3    H127697   2.842   5.891  11.156  0.8427 -0.0847 -0.0318
 2094TIP3    H227698   2.710   5.887  11.229  0.0887  0.3683 -1.3398
 2095TIP3   OH227699   2.249   3.333   5.186  0.0458  0.1458  0.5505
 2095TIP3    H127700   2.176   3.273   5.171 -1.2323  1.1169  2.4450
 2095TIP3    H227701   2.222   3.415   5.144  0.6888  0.1100  0.0584
 2096TIP3   OH227702   1.226   3.961   5.534  0.1028 -0.0417  0.2513
 2096TIP3    H127703   1.217   3.927   5.445  1.1882 -2.4585  0.9607
 2096TIP3    H227704   1.303   4.017   5.531  0.3547 -0.4060 -0.2532
 2097TIP3   OH227705   4.390   4.941  12.899 -0.0367 -0.1045  0.0565
 2097TIP3    H127706   4.316   4.880  12.885 -1.2468  1.5304 -1.0504
 2097TIP3    H227707   4.466   4.894  12.864 -0.9882 -0.8725 -1.0699
 2098TIP3   OH227708   5.271   6.118   1.966  0.2966  0.6209  0.5047
 2098TIP3    H127709   5.349   6.076   1.931 -0.3532 -0.5433  0.3881
 2098TIP3    H227710   5.281   6.210   1.943  0.7615  0.1973 -1.1661
 2099TIP3   OH227711   3.871   1.497   2.703 -0.7217  0.3426 -0.1791
 2099TIP3    H127712   3.842   1.419   2.750 -1.2933  1.6233  1.7048
 2099TIP3    H227713   3.965   1.502   2.720 -0.6932  0.1105 -0.2617
 2100TIP3   OH227714   4.223   0.280   3.875  0.1760  0.3338  0.5692
 2100TIP3    H127715   4.281   0.214   3.913 -0.0990  0.5203  1.3467
 2100TIP3    H227716   4.143   0.274   3.928 -0.0819  0.8550  0.2427
 2101TIP3   OH227717   3.086   5.348  15.192 -0.3319  0.2546  0.1717
 2101TIP3    H127718   3.037   5.393  15.124  1.5357  1.1223 -0.6764
 2101TIP3    H227719   3.094   5.258  15.161  0.8711  0.7402 -1.0266
 2102TIP3   OH227720   5.474   4.511  14.378 -0.1663  0.3529  0.5397
 2102TIP3    H127721   5.415   4.586  14.390  0.2770  0.6015  1.2795
 2102TIP3    H227722   5.418   4.434  14.389 -0.6824  0.5588 -0.5052
 2103TIP3   OH227723   6.764   1.996  11.383  0.3242 -0.1763  0.3083
 2103TIP3    H127724   6.729   2.060  11.322  1.2114  0.6511  0.6441
 2103TIP3    H227725   6.797   1.925  11.328 -0.0694 -0.0499 -0.0934
 2104TIP3   OH227726   4.182   3.976  11.209  1.1910 -0.0999  0.3197
 2104TIP3    H127727   4.205   3.903  11.266  0.2967 -0.5013  0.1738
 2104TIP3    H227728   4.181   4.052  11.268  1.1282 -0.3694  0.6731
 2105TIP3   OH227729   6.663   2.726   0.147  0.0815  0.3746 -0.3312
 2105TIP3    H127730   6.753   2.701   0.125 -0.2095  0.1474 -1.3087
 2105TIP3    H227731   6.673   2.803   0.203  0.9277 -0.7022  1.0804
 2106TIP3   OH227732   2.742   3.949   0.291 -0.1227 -0.4062  0.2342
 2106TIP3    H127733   2.809   4.013   0.317  1.8758 -1.8922 -0.9253
 2106TIP3    H227734   2.789   3.888   0.234 -1.8990 -2.9720  1.3502
 2107TIP3   OH227735   3.349   6.500  15.419 -0.2261 -0.0792  0.0815
 2107TIP3    H127736   3.432   6.536  15.450  0.7204 -1.1212 -1.1053
 2107TIP3    H227737   3.305   6.467  15.497  0.9537 -0.4230  0.6161
 2108TIP3   OH227738   0.261   0.631  14.726 -0.5130  0.1643 -0.0536
 2108TIP3    H127739   0.180   0.619  14.676 -0.1817 -2.0538 -0.1728
 2108TIP3    H227740   0.266   0.554  14.782  1.2760  0.5023  0.3264
 2109TIP3   OH227741   1.539   4.780  14.616 -0.0698  0.0580 -1.0517
 2109TIP3    H127742   1.529   4.826  14.699  0.8292 -1.7443  0.1215
 2109TIP3    H227743   1.584   4.843  14.559 -1.3061  1.5550 -0.4270
 2110TIP3   OH227744   1.492   0.515   1.416  0.4819 -0.4010 -1.0037
 2110TIP3    H127745   1.585   0.533   1.431  0.5035 -1.1596 -0.2005
 2110TIP3    H227746   1.446   0.562   1.486  0.3584 -1.2065 -0.5391
 2111TIP3   OH227747   2.945   5.651  13.508  0.5417  0.4900 -0.2218
 2111TIP3    H127748   3.010   5.645  13.578  0.0664  0.8187  0.2527
 2111TIP3    H227749   2.865   5.682  13.551  0.2181  0.6169 -0.8933
 2112TIP3   OH227750   5.195   4.131  16.193 -0.2852 -0.1642 -0.2908
 2112TIP3    H127751   5.285   4.164  16.200  0.0006 -1.0145  0.1556
 2112TIP3    H227752   5.163   4.130  16.283 -0.8957  0.5046 -0.4881
 2113TIP3   OH227753   4.177   6.507   3.490  0.4115 -0.5181  0.3315
 2113TIP3    H127754   4.188   6.551   3.574 -0.3279  0.1483  0.0963
 2113TIP3    H227755   4.097   6.545   3.453  0.7710 -0.7263 -0.7105
 2114TIP3   OH227756   5.294   6.730   3.140  0.0174 -0.0654 -0.2635
 2114TIP3    H127757   5.327   6.772   3.061  0.6721 -3.8323 -2.2241
 2114TIP3    H227758   5.221   6.676   3.110 -0.9260 -0.2259  2.0758
 2115TIP3   OH227759   1.717   4.131  12.766 -0.6562  0.2546 -0.3449
 2115TIP3    H127760   1.800   4.147  12.812 -0.2634  0.7627 -1.1988
 2115TIP3    H227761   1.733   4.052  12.715 -1.3431 -0.7496  0.9513
 2116TIP3   OH227762   2.349   1.778   5.161  0.5455  0.1874 -0.2018
 2116TIP3    H127763   2.366   1.871   5.175  0.2485  0.3319 -0.7611
 2116TIP3    H227764   2.322   1.772   5.069 -0.3739 -0.3102  0.0860
 2117TIP3   OH227765   5.343   2.522   1.345  0.1290  0.1459  0.2614
 2117TIP3    H127766   5.437   2.534   1.356 -0.0758  1.5557  0.6633
 2117TIP3    H227767   5.309   2.517   1.434 -0.2296  0.1966  0.1294
 2118TIP3   OH227768   6.730   4.341   4.120  0.0554  0.0574  0.0005
 2118TIP3    H127769   6.678   4.382   4.190  1.6487  0.5899  0.9164
 2118TIP3    H227770   6.668   4.282   4.076 -0.8994 -0.6320  2.1240
 2119TIP3   OH227771   6.494   2.967   6.653  0.4115 -0.0526 -0.4378
 2119TIP3    H127772   6.533   2.976   6.566  1.9528  0.9297  0.3051
 2119TIP3    H227773   6.547   3.025   6.709 -0.8617 -0.2611  1.0512
 2120TIP3   OH227774   1.286   5.619  12.364 -0.4285 -0.4233  0.0826
 2120TIP3    H127775   1.259   5.589  12.451 -0.9031 -0.8880 -0.2130
 2120TIP3    H227776   1.273   5.714  12.366 -1.8545 -0.5937  0.0587
 2121TIP3   OH227777   0.649   5.790  16.396 -0.6331  0.0725 -0.4688
 2121TIP3    H127778   0.633   5.775  16.303  0.1085  0.8832 -0.7342
 2121TIP3    H227779   0.691   5.876  16.400 -2.7296  1.1161  0.8100
 2122TIP3   OH227780   5.796   6.505   4.021  0.3010  0.5008  0.5432
 2122TIP3    H127781   5.879   6.524   4.065  1.2081 -0.8727 -0.4586
 2122TIP3    H227782   5.791   6.569   3.950  0.0171  1.2062  1.1977
 2123TIP3   OH227783   0.925   4.920  13.445 -0.0075 -0.4107 -0.0274
 2123TIP3    H127784   0.877   4.860  13.387 -0.4445 -1.5400  1.4622
 2123TIP3    H227785   0.992   4.866  13.486  1.9860  0.9293 -1.3017
 2124TIP3   OH227786   6.643   1.831   1.403  0.4765  0.2967 -0.0556
 2124TIP3    H127787   6.715   1.783   1.445  0.5799 -0.3319 -0.9171
 2124TIP3    H227788   6.564   1.792   1.439  0.5559  0.4260  0.2707
 2125TIP3   OH227789   0.669   2.091   2.112 -0.1313  0.0430  0.1928
 2125TIP3    H127790   0.624   2.080   2.028  1.9802  0.8703 -1.1340
 2125TIP3    H227791   0.682   2.186   2.119  1.0336 -0.1502  0.7288
 2126TIP3   OH227792   5.511   5.734   4.995 -0.8233  0.1747 -0.5661
 2126TIP3    H127793   5.518   5.821   4.955 -2.0239  0.3901 -0.3534
 2126TIP3    H227794   5.419   5.709   4.982 -0.7888 -0.5319  0.4401
 2127TIP3   OH227795   1.112   6.607  17.077  0.4571  0.1227 -0.1459
 2127TIP3    H127796   1.082   6.517  17.066 -1.6796  0.6268  0.8979
 2127TIP3    H227797   1.127   6.616  17.171  1.4712  0.6301 -0.3501
 2128TIP3   OH227798   2.073   3.972   4.050  0.4604 -0.5564  0.2854
 2128TIP3    H127799   2.101   4.055   4.090  0.1831 -0.3662  0.0843
 2128TIP3    H227800   2.029   3.997   3.970 -0.2019 -0.8635  0.5464
 2129TIP3   OH227801   0.622   1.372  11.588  0.6453 -0.6849  0.3395
 2129TIP3    H127802   0.684   1.412  11.648  0.9364  1.6436 -1.3733
 2129TIP3    H227803   0.538   1.414  11.607  1.0407  1.2625 -1.7707
 2130TIP3   OH227804   4.697   1.885   3.619  0.3893 -0.1930 -0.5033
 2130TIP3    H127805   4.723   1.942   3.691 -2.2041 -0.5407  0.8039
 2130TIP3    H227806   4.777   1.835   3.598  1.6220  1.0271  1.0350
 2131TIP3   OH227807   1.033   4.036  13.744  0.3432  0.1873 -0.0858
 2131TIP3    H127808   0.992   3.954  13.717 -1.5487  1.0928 -0.0887
 2131TIP3    H227809   1.127   4.020  13.733 -0.0671 -1.3567 -1.8253
 2132TIP3   OH227810   3.006   4.637   5.283 -0.0710 -0.4669  0.2593
 2132TIP3    H127811   3.069   4.572   5.250 -0.0607 -0.3870  0.1178
 2132TIP3    H227812   3.046   4.721   5.263  0.2800 -0.4103  1.1559
 2133TIP3   OH227813   3.828   3.259   4.413 -0.8316 -0.5771  0.4662
 2133TIP3    H127814   3.780   3.334   4.448 -1.2997 -0.1318 -1.0491
 2133TIP3    H227815   3.884   3.297   4.345  0.3689 -1.3457  0.9885
 2134TIP3   OH227816   6.573   4.746  11.252 -0.5863 -0.6455  0.2057
 2134TIP3    H127817   6.654   4.773  11.294 -0.6878  0.7199 -0.4415
 2134TIP3    H227818   6.504   4.789  11.302 -0.7442  0.4894 -0.9416
 2135TIP3   OH227819   6.541   3.890  15.278  0.3469 -0.2316  0.4562
 2135TIP3    H127820   6.624   3.854  15.247 -0.0423  0.9099 -2.2722
 2135TIP3    H227821   6.508   3.826  15.340  2.4342 -1.5627  0.2846
 2136TIP3   OH227822   0.873   6.564  16.330  0.1398  0.2123  0.6707
 2136TIP3    H127823   0.793   6.615  16.347  1.4941  2.4494  0.7462
 2136TIP3    H227824   0.867   6.540  16.238 -0.1089  1.3609  0.3707
 2137TIP3   OH227825   4.380   1.489   5.803  0.4743 -0.1431  0.2258
 2137TIP3    H127826   4.354   1.579   5.786  2.0804  0.5299  1.2186
 2137TIP3    H227827   4.363   1.475   5.896  0.8887 -0.6345  0.2360
 2138TIP3   OH227828   6.178   1.602   4.274  0.0298  0.2825  0.2744
 2138TIP3    H127829   6.094   1.632   4.239  1.0882  1.2836 -1.5462
 2138TIP3    H227830   6.182   1.510   4.249 -0.1204  0.4716 -0.4682
 2139TIP3   OH227831   0.009   0.815   0.371 -0.1374  0.1738  0.5497
 2139TIP3    H127832  -0.034   0.744   0.418 -1.1725  1.1163  1.0941
 2139TIP3    H227833  -0.031   0.813   0.284  0.9438 -0.8456  0.0515
 2140TIP3   OH227834   2.299   3.578  15.422 -0.0457  0.2088 -0.0997
 2140TIP3    H127835   2.373   3.518  15.430 -1.2175 -1.3730 -0.7651
 2140TIP3    H227836   2.335   3.654  15.376  0.9604 -0.9577 -1.3193
 2141TIP3   OH227837   4.421   1.373  16.734  0.3546  0.4489  0.2959
 2141TIP3    H127838   4.436   1.359  16.641 -2.0344  0.7882 -0.2076
 2141TIP3    H227839   4.474   1.306  16.778  0.3663 -0.6901 -1.3704
 2142TIP3   OH227840   0.750   1.612   2.965  0.3714 -0.2653 -0.4678
 2142TIP3    H127841   0.794   1.533   2.997 -0.3352 -0.7385 -0.6447
 2142TIP3    H227842   0.683   1.630   3.030 -0.6004 -0.8193 -1.2842
 2143TIP3   OH227843   4.667   2.832  14.518 -0.3564 -0.0825 -0.2333
 2143TIP3    H127844   4.606   2.867  14.583  2.8559  1.8260  2.0717
 2143TIP3    H227845   4.701   2.909  14.474 -0.1124 -1.1462 -1.9779
 2144TIP3   OH227846   1.210   6.216   6.617 -0.1725  0.0211  0.1095
 2144TIP3    H127847   1.170   6.134   6.589 -3.5292  1.3235  0.6039
 2144TIP3    H227848   1.224   6.265   6.536 -0.1470 -0.2256 -0.0354
 2145TIP3   OH227849   2.151   0.106  13.527  0.1904  0.3070  0.5497
 2145TIP3    H127850   2.103   0.167  13.582 -0.7036 -0.2385  0.3898
 2145TIP3    H227851   2.154   0.148  13.441 -0.2746  0.2057  0.4823
 2146TIP3   OH227852   2.938   6.034   0.554  0.3269 -0.2996  0.3263
 2146TIP3    H127853   2.993   6.105   0.587 -0.2785  0.9897 -1.3116
 2146TIP3    H227854   2.854   6.046   0.598  0.6257 -0.8781  1.0888
 2147TIP3   OH227855   2.912   3.606  12.575  0.2821 -0.4703 -0.6834
 2147TIP3    H127856   2.821   3.586  12.594  0.1019 -0.3876 -1.4566
 2147TIP3    H227857   2.911   3.696  12.542  0.4040 -1.0713 -2.4154
 2148TIP3   OH227858   5.876   5.157   0.654  0.3483  0.3646  0.2591
 2148TIP3    H127859   5.784   5.161   0.631  0.6125  0.9214 -0.7726
 2148TIP3    H227860   5.896   5.063   0.658 -0.0177  0.2419 -0.5672
 2149TIP3   OH227861   0.335   2.356   4.654 -0.1726 -0.2760  0.1259
 2149TIP3    H127862   0.321   2.394   4.568  1.1805  1.7586  0.7336
 2149TIP3    H227863   0.266   2.393   4.709  0.0604 -0.1096  0.3117
 2150TIP3   OH227864   3.482   5.879   6.450  0.4930  0.2689  0.5132
 2150TIP3    H127865   3.477   5.783   6.457 -1.1900  0.1381 -1.5241
 2150TIP3    H227866   3.402   5.910   6.493  1.4851  0.8732  2.0091
 2151TIP3   OH227867   4.452   4.623  11.473  0.1226 -0.5735  0.6596
 2151TIP3    H127868   4.490   4.705  11.505  0.5225 -0.4893 -0.0136
 2151TIP3    H227869   4.364   4.648  11.443 -0.5104 -0.7800  2.2602
 2152TIP3   OH227870   6.047   6.691  10.816  0.5413 -0.0847  0.4373
 2152TIP3    H127871   5.953   6.698  10.831  0.4893 -0.3996  0.2709
 2152TIP3    H227872   6.063   6.745  10.738  0.6530  0.7299  1.0046
 2153TIP3   OH227873   5.959   1.127   5.930 -1.1384  0.6281 -0.0917
 2153TIP3    H127874   5.950   1.219   5.906 -0.8285  0.9666  1.0204
 2153TIP3    H227875   6.008   1.129   6.012 -0.4480 -0.5768 -0.4536
 2154TIP3   OH227876   1.879   6.427   1.279 -0.3673  0.9699 -0.6746
 2154TIP3    H127877   1.810   6.468   1.331 -0.9076  1.7184 -1.9314
 2154TIP3    H227878   1.933   6.500   1.249 -0.8606  0.7270 -2.2710
 2155TIP3   OH227879   3.651   1.880  10.584 -0.6516 -0.0522 -0.4817
 2155TIP3    H127880   3.662   1.908  10.494  0.6475 -1.6134 -0.8394
 2155TIP3    H227881   3.660   1.785  10.582  1.0203 -0.0180  1.4842
 2156TIP3   OH227882   3.250   4.536  13.017 -0.4783  0.1269  0.3229
 2156TIP3    H127883   3.185   4.562  13.082 -0.7500  2.4578 -0.7816
 2156TIP3    H227884   3.204   4.475  12.960 -1.1717  0.3916  0.5868
 2157TIP3   OH227885   6.340   4.511   4.505 -0.5981  0.2696 -0.2579
 2157TIP3    H127886   6.335   4.570   4.429  0.6702 -0.0720 -0.6320
 2157TIP3    H227887   6.275   4.545   4.566 -0.6356  1.4181 -0.9053
 2158TIP3   OH227888   2.241   4.945  14.146 -0.2750 -0.2057 -0.4306
 2158TIP3    H127889   2.211   4.986  14.227  1.6177 -0.7115  0.5861
 2158TIP3    H227890   2.163   4.938  14.092 -1.3255  1.4457  0.7826
 2159TIP3   OH227891   2.031   1.160   4.116 -0.1441  0.3312 -0.0966
 2159TIP3    H127892   1.951   1.210   4.127  1.2204  2.5692  0.1825
 2159TIP3    H227893   2.025   1.124   4.027 -1.7220 -0.0990  0.1673
 2160TIP3   OH227894   6.380   0.349   6.519 -0.5112  0.1868  0.8632
 2160TIP3    H127895   6.300   0.358   6.571  0.0603 -1.9273  2.2482
 2160TIP3    H227896   6.352   0.304   6.440 -0.8074  0.0669  1.0341
 2161TIP3   OH227897   6.572   0.642  10.864  0.1151 -0.8878  0.5317
 2161TIP3    H127898   6.627   0.655  10.786  1.0738 -0.4722  1.2606
 2161TIP3    H227899   6.589   0.551  10.889 -0.0150 -0.9526  0.3826
 2162TIP3   OH227900   1.307   2.559  14.922 -0.2604  0.0380  0.5608
 2162TIP3    H127901   1.309   2.624  14.993 -0.2448 -0.3932  0.9588
 2162TIP3    H227902   1.386   2.576  14.871  0.2316 -0.2846  1.2156
 2163TIP3   OH227903   4.310   0.110   1.812 -0.1211  0.0333  0.5299
 2163TIP3    H127904   4.378   0.118   1.878  0.6258 -1.1679 -0.0707
 2163TIP3    H227905   4.340   0.040   1.754 -1.3312  0.2406 -0.3923
 2164TIP3   OH227906   4.312   5.265   5.819 -0.2285 -0.1274  0.3316
 2164TIP3    H127907   4.368   5.188   5.807 -0.1303  0.2305 -1.8813
 2164TIP3    H227908   4.224   5.229   5.828 -0.4752 -0.5234 -2.7120
 2165TIP3   OH227909   3.521   1.450   0.787  0.0735 -0.2030 -0.1615
 2165TIP3    H127910   3.455   1.486   0.847  0.2722 -1.2112  0.7051
 2165TIP3    H227911   3.569   1.387   0.841  1.5083  0.2338 -0.8792
 2166TIP3   OH227912   3.017   3.997   1.806 -0.1797 -0.2117  0.4271
 2166TIP3    H127913   3.109   4.008   1.831  0.0127 -1.2942  0.2483
 2166TIP3    H227914   2.998   3.906   1.827 -0.2602 -0.9846 -2.5488
 2167TIP3   OH227915   5.827   0.618   2.562  0.1004 -0.7697 -0.1910
 2167TIP3    H127916   5.755   0.680   2.571 -0.2249 -0.9770 -1.2249
 2167TIP3    H227917   5.807   0.569   2.482 -0.2671 -3.0090  1.1871
 2168TIP3   OH227918   1.977   1.417  12.747  0.4730 -0.0742 -0.0833
 2168TIP3    H127919   2.027   1.428  12.828  0.2707  1.7724 -0.1624
 2168TIP3    H227920   1.899   1.471  12.760 -0.2208 -0.8177 -1.0041
 2169TIP3   OH227921   3.536   4.771  15.440  0.2520 -0.2360 -0.6397
 2169TIP3    H127922   3.577   4.720  15.370 -0.4830  0.4200 -1.5816
 2169TIP3    H227923   3.488   4.840  15.394 -0.6505 -0.0740  0.5004
 2170TIP3   OH227924   1.275   0.476   0.763  0.1421  0.4156  0.2687
 2170TIP3    H127925   1.291   0.393   0.809 -0.3728 -0.6103 -1.2995
 2170TIP3    H227926   1.278   0.452   0.670  1.9412  2.5521 -0.2835
 2171TIP3   OH227927   5.484   1.337   3.281 -0.0647  0.0593  0.4621
 2171TIP3    H127928   5.399   1.378   3.297 -0.0512 -0.0860  0.9329
 2171TIP3    H227929   5.473   1.246   3.311  0.0768 -0.1235 -0.0325
 2172TIP3   OH227930   4.068   2.350   1.659 -0.1454 -0.0212  0.2279
 2172TIP3    H127931   3.977   2.328   1.677 -0.1064 -0.6910 -0.3607
 2172TIP3    H227932   4.070   2.446   1.659 -0.8390 -0.0031  0.2842
 2173TIP3   OH227933   1.023   0.419  17.084  0.3538 -0.0469 -0.9604
 2173TIP3    H127934   1.080   0.494  17.100  0.8587 -0.8051  1.1233
 2173TIP3    H227935   0.950   0.430  17.144 -0.3250 -0.4897 -1.6775
 2174TIP3   OH227936   2.705   0.060  13.863 -0.0599  0.5227  0.5906
 2174TIP3    H127937   2.649   0.076  13.788 -0.1685  0.0799  0.5772
 2174TIP3    H227938   2.715  -0.035  13.866  0.4413  0.5786  0.7717
 2175TIP3   OH227939   0.221   2.145   2.033  0.4351  0.2573  0.2515
 2175TIP3    H127940   0.150   2.198   1.997  0.5845 -0.2303 -0.7830
 2175TIP3    H227941   0.199   2.136   2.126 -0.1181  1.2740  0.2339
 2176TIP3   OH227942   1.181   4.371  11.213 -0.4391  0.3446  0.9408
 2176TIP3    H127943   1.097   4.324  11.219 -0.6681  0.6906  0.4570
 2176TIP3    H227944   1.167   4.438  11.147 -0.2259  1.3344  1.8696
 2177TIP3   OH227945   0.016   4.045   2.227  0.3645 -0.1031 -0.4438
 2177TIP3    H127946   0.016   4.135   2.258 -0.7047 -0.0847 -0.4804
 2177TIP3    H227947  -0.033   3.996   2.293 -0.3416 -0.3918 -1.1660
 2178TIP3   OH227948   3.104   1.575  11.315 -0.1008 -0.1222 -0.1903
 2178TIP3    H127949   3.108   1.665  11.344 -0.6002  0.3937 -1.6074
 2178TIP3    H227950   3.052   1.530  11.382  1.2580  0.3255  1.1956
 2179TIP3   OH227951   0.961   0.985   4.840  0.5493  0.1632  0.2834
 2179TIP3    H127952   1.042   1.005   4.795 -0.1047  0.0949 -0.9762
 2179TIP3    H227953   0.929   0.904   4.798  0.5705 -0.6510  1.7705
 2180TIP3   OH227954   6.771   0.108   3.738 -0.1262  0.5304  1.1768
 2180TIP3    H127955   6.735   0.026   3.703  2.8409 -0.2567 -0.4204
 2180TIP3    H227956   6.738   0.176   3.678  1.4078 -0.2430 -0.6401
 2181TIP3   OH227957   6.152   2.242  16.618  0.6263 -0.6829 -0.0631
 2181TIP3    H127958   6.122   2.156  16.588 -1.6251 -0.0998  0.2948
 2181TIP3    H227959   6.172   2.229  16.711 -0.2154 -0.7516  0.1267
 2182TIP3   OH227960   3.458   1.207   2.762  0.1378 -0.5525 -0.0615
 2182TIP3    H127961   3.394   1.206   2.690 -0.3339  0.1943  0.3424
 2182TIP3    H227962   3.412   1.165   2.835 -1.0676  2.6562  1.1840
 2183TIP3   OH227963   4.273   5.320   5.000  0.6836  0.2980 -0.2681
 2183TIP3    H127964   4.347   5.274   5.040  1.9333  3.1525  1.0626
 2183TIP3    H227965   4.249   5.386   5.065 -0.3883  2.0623 -2.3257
 2184TIP3   OH227966   2.490   4.660  13.067  0.0606  0.2761 -0.1431
 2184TIP3    H127967   2.422   4.594  13.054  0.4765 -0.1076 -0.4040
 2184TIP3    H227968   2.564   4.629  13.015  0.2706  0.9390 -0.2571
 2185TIP3   OH227969   2.228   3.874   5.065 -0.0119 -0.3682 -0.2781
 2185TIP3    H127970   2.166   3.910   5.129 -0.6856 -1.2303 -0.4327
 2185TIP3    H227971   2.302   3.844   5.118 -0.8691 -1.7142  0.1913
 2186TIP3   OH227972   3.772   4.079  11.449 -0.2681 -0.7359 -0.5493
 2186TIP3    H127973   3.843   4.084  11.514 -0.0897  2.2666 -0.8435
 2186TIP3    H227974   3.817   4.081  11.364 -0.6484  1.1906 -0.7379
 2187TIP3   OH227975   0.187   6.747   3.156 -0.1349  0.3216  0.2284
 2187TIP3    H127976   0.184   6.796   3.074 -1.4366  1.6032  0.9906
 2187TIP3    H227977   0.157   6.809   3.222  2.8006 -0.0032  2.0631
 2188TIP3   OH227978   0.039   3.360   3.649  0.2283 -0.0189  0.5451
 2188TIP3    H127979   0.016   3.267   3.651  0.6653 -0.1900 -1.1070
 2188TIP3    H227980   0.005   3.392   3.566  0.3704  1.2348  0.9453
 2189TIP3   OH227981   2.541   3.147   2.499 -0.0052 -0.5482 -0.1306
 2189TIP3    H127982   2.545   3.178   2.589  1.0563 -0.3664 -0.2247
 2189TIP3    H227983   2.619   3.093   2.488  0.4275  0.2381 -1.2173
 2190TIP3   OH227984   4.862   5.274   3.520  0.7674 -0.1596 -0.1072
 2190TIP3    H127985   4.949   5.263   3.560  0.5991 -0.3395  0.2076
 2190TIP3    H227986   4.855   5.369   3.505  0.1265  0.1651  1.9193
 2191TIP3   OH227987   5.777   6.471   4.680 -0.2383  0.1506  0.1265
 2191TIP3    H127988   5.708   6.428   4.628 -1.1522 -0.8428  2.0622
 2191TIP3    H227989   5.821   6.399   4.726  2.3716  0.7295 -1.2678
 2192TIP3   OH227990   4.344   1.541  16.367 -0.4854 -0.1197 -0.4054
 2192TIP3    H127991   4.319   1.524  16.458 -1.1085  3.3472  0.2028
 2192TIP3    H227992   4.439   1.547  16.369 -0.5205  0.4119  0.1389
 2193TIP3   OH227993   2.860   2.136   2.057  0.7180  0.1180  0.0682
 2193TIP3    H127994   2.881   2.081   2.132 -1.0858  0.9962  1.3100
 2193TIP3    H227995   2.843   2.075   1.985 -0.5299 -0.9370  1.2167
 2194TIP3   OH227996   0.880   5.486   5.769  0.0177 -0.0754 -0.2883
 2194TIP3    H127997   0.791   5.474   5.802  0.3771 -1.1808  0.3516
 2194TIP3    H227998   0.902   5.401   5.731  0.9453  0.0668 -0.0767
 2195TIP3   OH227999   4.711   3.252   4.693 -0.3519  0.4117  0.2315
 2195TIP3    H128000   4.767   3.330   4.694  0.2713 -0.0257  1.3040
 2195TIP3    H228001   4.757   3.191   4.635 -0.7966  0.7990 -0.5411
 2196TIP3   OH228002   2.569   0.577  15.546 -0.3812  0.0591 -0.3553
 2196TIP3    H128003   2.600   0.568  15.636 -1.3505  0.0289 -0.0046
 2196TIP3    H228004   2.644   0.554  15.492  0.2666  0.2442  0.4434
 2197TIP3   OH228005   4.724   0.790  14.483  0.9416 -0.0200 -0.3194
 2197TIP3    H128006   4.629   0.799  14.485  0.9896  0.4930 -0.2135
 2197TIP3    H228007   4.750   0.824  14.397  0.9538 -1.0068 -0.7262
 2198TIP3   OH228008   4.705   2.717   3.646 -0.0492 -0.5617  0.2226
 2198TIP3    H128009   4.792   2.690   3.618  0.3056  0.2898  0.4741
 2198TIP3    H228010   4.645   2.671   3.587  0.6363  0.2221 -1.1223
 2199TIP3   OH228011   1.599   5.661  14.182  0.2105  0.3098  0.1576
 2199TIP3    H128012   1.520   5.680  14.131  1.1761  1.3461 -1.0237
 2199TIP3    H228013   1.663   5.727  14.154  2.1479 -1.6746 -0.4096
 2200TIP3   OH228014   3.382   6.481  13.798 -0.1854 -0.2214 -0.1054
 2200TIP3    H128015   3.292   6.488  13.768 -1.4067 -2.3154  2.6559
 2200TIP3    H228016   3.384   6.530  13.880  0.6722 -1.7113  0.8060
 2201TIP3   OH228017   0.725   3.815   5.252  0.5331  1.0990  0.3230
 2201TIP3    H128018   0.693   3.777   5.170 -0.5069  3.6776 -0.5797
 2201TIP3    H228019   0.725   3.742   5.313 -0.5666 -0.5008 -1.4531
 2202TIP3   OH228020   4.067   5.053   6.005 -0.6011  0.4888  0.4067
 2202TIP3    H128021   3.975   5.079   6.005 -0.2617  1.7587 -0.8691
 2202TIP3    H228022   4.073   4.989   6.077 -2.7179 -0.5503 -0.2450
 2203TIP3   OH228023   3.784   5.174   6.641 -0.0723 -0.4857 -0.2498
 2203TIP3    H128024   3.876   5.179   6.664  0.1545 -0.3426 -1.1689
 2203TIP3    H228025   3.745   5.253   6.679  0.5877  0.5452 -1.6568
 2204TIP3   OH228026   5.887   3.301  14.735 -0.2454  0.7698 -0.0594
 2204TIP3    H128027   5.928   3.386  14.716 -0.8849  0.9543 -0.6596
 2204TIP3    H228028   5.949   3.237  14.700 -0.1470  1.0212 -0.3583
 2205TIP3   OH228029   5.019   4.122  12.293 -0.1873  0.8377 -0.0513
 2205TIP3    H128030   4.937   4.092  12.332 -0.8205  0.4779 -1.5710
 2205TIP3    H228031   5.019   4.217  12.308 -0.9034  0.8464 -0.0618
 2206TIP3   OH228032   2.877   5.093  12.576 -0.4565 -0.3843 -0.5025
 2206TIP3    H128033   2.814   5.149  12.532  0.7409 -0.2657 -2.1827
 2206TIP3    H228034   2.896   5.137  12.658  0.1001  1.4623 -1.5713
 2207TIP3   OH228035   3.446   3.963   6.142  0.0323  0.1611  0.5078
 2207TIP3    H128036   3.486   4.027   6.201 -0.9667 -0.1697  1.5847
 2207TIP3    H228037   3.489   3.880   6.165  0.0486  0.1312  0.3687
 2208TIP3   OH228038   3.789   3.132  11.421  0.1423 -0.1932 -0.3377
 2208TIP3    H128039   3.879   3.164  11.419  0.1559  0.0216  1.5945
 2208TIP3    H228040   3.796   3.045  11.462 -0.5836  0.1545  0.5510
 2209TIP3   OH228041   4.814   1.066  12.725  0.1639 -0.2699 -1.1335
 2209TIP3    H128042   4.840   1.119  12.801 -0.6803 -0.7322 -0.4969
 2209TIP3    H228043   4.754   1.122  12.676  0.6119 -0.0159 -1.3934
 2210TIP3   OH228044   0.797   6.513   0.121 -0.0282  0.0493 -0.1337
 2210TIP3    H128045   0.740   6.442   0.091  0.0633 -0.5587  1.0647
 2210TIP3    H228046   0.759   6.592   0.084 -0.7783 -0.5107 -0.5873
 2211TIP3   OH228047   2.273   3.700  11.729  0.3664 -0.0368 -0.2015
 2211TIP3    H128048   2.300   3.628  11.786  1.2730  0.3697 -0.0953
 2211TIP3    H228049   2.203   3.744  11.777 -0.7112 -1.2730 -0.5903
 2212TIP3   OH228050   4.712   6.293   0.217  0.0750  0.0577  0.2399
 2212TIP3    H128051   4.800   6.291   0.255 -1.3444 -2.5571  4.0086
 2212TIP3    H228052   4.721   6.245   0.135  2.1707  0.0285  0.4178
 2213TIP3   OH228053   5.099   0.182   0.164 -0.5171  0.0162  0.2379
 2213TIP3    H128054   5.145   0.106   0.201  0.3491  0.3218 -0.1838
 2213TIP3    H228055   5.042   0.144   0.098  0.8400 -0.1863 -0.8715
 2214TIP3   OH228056   1.158   2.217   0.311 -0.0054  0.7339 -0.0643
 2214TIP3    H128057   1.235   2.258   0.349  0.5350  0.6213 -1.0089
 2214TIP3    H228058   1.084   2.263   0.351  0.5494  1.0116  0.6582
 2215TIP3   OH228059   6.243   2.953   2.115 -0.0869  0.2639 -0.1046
 2215TIP3    H128060   6.202   3.038   2.132  0.1729  0.5116 -0.6912
 2215TIP3    H228061   6.220   2.900   2.191  0.9413  1.2864  0.9612
 2216TIP3   OH228062   6.705   5.541   2.896  0.0199  0.5560 -0.1044
 2216TIP3    H128063   6.663   5.625   2.877  1.2068  1.4344  0.9722
 2216TIP3    H228064   6.765   5.527   2.822 -0.2200  0.6271 -0.3142
 2217TIP3   OH228065   3.879   2.821   4.127  0.3468 -0.2894  0.0775
 2217TIP3    H128066   3.811   2.754   4.134  1.5029 -1.5256  0.1164
 2217TIP3    H228067   3.941   2.799   4.197 -0.3903  2.2574  1.6170
 2218TIP3   OH228068   1.245   2.270  15.347 -0.2068  0.4338  1.0168
 2218TIP3    H128069   1.317   2.307  15.399  0.5684  2.3882 -1.2278
 2218TIP3    H228070   1.266   2.177  15.340  2.9517  1.0935 -0.5694
 2219TIP3   OH228071   2.866   5.922   3.768 -0.0734  0.2664 -0.4530
 2219TIP3    H128072   2.810   5.879   3.703  0.8702  0.0965 -1.1694
 2219TIP3    H228073   2.804   5.956   3.833 -1.2506  2.2196 -2.4439
 2220TIP3   OH228074   0.555   1.885   2.263  0.3676 -0.0560  0.0352
 2220TIP3    H128075   0.575   1.815   2.201  0.7541  0.2024 -0.1372
 2220TIP3    H228076   0.591   1.964   2.222  1.0295  0.0535  0.7939
 2221TIP3   OH228077   5.014   2.306   1.143  0.5251 -0.0279 -0.2854
 2221TIP3    H128078   5.103   2.341   1.146 -0.2257  2.1751 -1.3197
 2221TIP3    H228079   4.992   2.304   1.050 -0.7796  0.2299 -0.0066
 2222TIP3   OH228080   3.498   4.712   0.345  0.1185 -0.7262 -0.4278
 2222TIP3    H128081   3.487   4.787   0.285 -0.0227 -0.0609  0.4170
 2222TIP3    H228082   3.474   4.746   0.431  1.4737 -1.3416  0.2221
 2223TIP3   OH228083   0.360   2.557  10.816 -0.4169 -0.0070  0.0132
 2223TIP3    H128084   0.370   2.503  10.738  0.4219  1.0118 -0.6035
 2223TIP3    H228085   0.343   2.645  10.783  0.2239  0.4907  0.9546
 2224TIP3   OH228086   0.648   1.733  12.127 -0.1016 -0.2776  0.0875
 2224TIP3    H128087   0.573   1.773  12.172 -0.3304 -0.5125 -0.0887
 2224TIP3    H228088   0.610   1.687  12.052  0.1568 -0.8429  0.2959
 2225TIP3   OH228089   3.416   6.316  12.566  0.3580 -0.2936 -0.9106
 2225TIP3    H128090   3.419   6.233  12.614  0.4944  1.0675  1.5718
 2225TIP3    H228091   3.469   6.376  12.618  1.2743  1.1000 -3.2847
 2226TIP3   OH228092   5.913   3.336  13.486 -0.2198 -0.0298 -0.3435
 2226TIP3    H128093   5.894   3.347  13.393 -0.1342  2.0931 -0.1585
 2226TIP3    H228094   5.946   3.421  13.514 -1.5264 -0.1849  1.9269
 2227TIP3   OH228095   3.543   1.832  15.811 -0.5431 -0.0700  0.1513
 2227TIP3    H128096   3.548   1.755  15.868 -0.8728 -0.4521 -0.3240
 2227TIP3    H228097   3.493   1.896  15.862  0.2713  0.0660  0.8016
 2228TIP3   OH228098   4.569   5.032  13.670 -0.3973 -0.3396 -0.7839
 2228TIP3    H128099   4.557   4.954  13.616  0.4860 -2.0191  1.2679
 2228TIP3    H228100   4.484   5.043  13.714 -0.4572 -0.2883 -0.9137
 2229TIP3   OH228101   3.181   6.554  12.628  0.2255 -0.2512  0.0255
 2229TIP3    H128102   3.202   6.555  12.535 -0.3426 -1.0800 -0.1265
 2229TIP3    H228103   3.090   6.585  12.632  1.0217  2.1804  0.5554
 2230TIP3   OH228104   2.424   2.255   0.863 -0.2084 -0.1957  0.3293
 2230TIP3    H128105   2.459   2.276   0.950  1.7235 -0.7929 -0.2435
 2230TIP3    H228106   2.500   2.221   0.815 -1.5710 -1.3355 -1.1100
 2231TIP3   OH228107   5.125   0.630  15.384 -0.6110  0.4438  0.3106
 2231TIP3    H128108   5.046   0.615  15.333  0.4941  0.9011 -1.6518
 2231TIP3    H228109   5.196   0.598  15.328  0.6614  0.7398  1.6891
 2232TIP3   OH228110   0.789   5.225   0.874  0.0758 -0.4090  0.2167
 2232TIP3    H128111   0.748   5.139   0.884 -0.3592 -0.1061  1.0448
 2232TIP3    H228112   0.770   5.250   0.783  1.0023 -1.5855 -0.3400
 2233TIP3   OH228113   3.636   0.203   6.599 -0.0360  0.6041 -0.1001
 2233TIP3    H128114   3.554   0.216   6.646  0.8840 -1.2767  2.2534
 2233TIP3    H228115   3.677   0.289   6.597 -1.0304  1.1116  0.7940
 2234TIP3   OH228116   1.466   6.225  16.407 -0.6342  0.1015  0.1508
 2234TIP3    H128117   1.452   6.319  16.397 -0.2634  0.2199  0.7011
 2234TIP3    H228118   1.395   6.195  16.464  0.1666  0.3470  1.3106
 2235TIP3   OH228119   6.624   3.569  10.535  0.3265 -0.2315 -0.0299
 2235TIP3    H128120   6.694   3.547  10.473 -0.8635 -1.1117 -1.1149
 2235TIP3    H228121   6.565   3.493  10.532 -0.2745  0.1469  1.4550
 2236TIP3   OH228122   1.574   5.281  14.657 -0.3415  0.3413 -0.5831
 2236TIP3    H128123   1.658   5.311  14.692  0.7374  0.2781 -2.9073
 2236TIP3    H228124   1.509   5.326  14.711  1.1464  0.3514  1.3286
 2237TIP3   OH228125   1.445   2.679  15.360 -0.2906 -0.1219 -0.0418
 2237TIP3    H128126   1.392   2.666  15.439 -0.8009 -0.9617 -0.5080
 2237TIP3    H228127   1.402   2.626  15.293 -0.2120  1.0537 -1.0549
 2238TIP3   OH228128   2.961   4.941  11.851 -0.1953  0.1267 -0.4309
 2238TIP3    H128129   3.002   4.854  11.849  0.9212  0.6406 -0.9740
 2238TIP3    H228130   3.011   4.989  11.917  0.3673  0.8955 -1.3957
 2239TIP3   OH228131   1.732   5.380  13.133  0.0777 -0.3237  0.2340
 2239TIP3    H128132   1.683   5.309  13.175  0.1111 -0.8175 -0.5569
 2239TIP3    H228133   1.727   5.362  13.040  0.4893  0.4602  0.0482
 2240TIP3   OH228134   0.687   3.129   5.544 -0.1294  0.2271  0.6619
 2240TIP3    H128135   0.618   3.194   5.559  0.0292  0.0602  2.2115
 2240TIP3    H228136   0.643   3.044   5.557  0.0599  0.0654  0.2805
 2241TIP3   OH228137   1.442   0.054   2.435  0.2661  0.1170 -0.3366
 2241TIP3    H128138   1.425   0.144   2.463  0.2098 -0.5623  1.9557
 2241TIP3    H228139   1.356   0.013   2.430  0.4015 -0.2491  0.2485
 2242TIP3   OH228140   0.203   5.300  16.324  0.4162  0.0673 -0.6131
 2242TIP3    H128141   0.204   5.227  16.386 -0.9052  0.3592 -0.2274
 2242TIP3    H228142   0.155   5.266  16.248  2.0293 -0.2924 -1.5305
 2243TIP3   OH228143   2.668   1.159  14.719  0.1949 -0.0788  0.0793
 2243TIP3    H128144   2.636   1.219  14.787  1.2314 -0.2247  0.7275
 2243TIP3    H228145   2.632   1.074  14.743 -0.9292  0.1948 -0.5987
 2244TIP3   OH228146   0.530   4.525  15.342  0.5720 -0.3054 -0.7006
 2244TIP3    H128147   0.563   4.459  15.281  1.2782  0.4150 -1.1159
 2244TIP3    H228148   0.485   4.475  15.410  0.4682 -1.1655 -1.3911
 2245TIP3   OH228149   3.207   2.145  11.629  0.0645 -0.2805 -0.2109
 2245TIP3    H128150   3.283   2.090  11.648  0.2681  1.1482  4.2494
 2245TIP3    H228151   3.147   2.087  11.582  2.8071 -2.1880 -1.7080
 2246TIP3   OH228152   1.913   2.935   3.448  0.1018 -0.2322 -0.7177
 2246TIP3    H128153   1.993   2.962   3.403  0.8537  0.4540  0.9815
 2246TIP3    H228154   1.905   2.841   3.427  0.0481  0.1721 -2.7710
 2247TIP3   OH228155   1.372   5.913   2.014 -0.5225  0.1532 -0.0572
 2247TIP3    H128156   1.376   5.986   2.077 -2.2778  0.2676 -0.0486
 2247TIP3    H228157   1.332   5.842   2.063  0.9784 -0.7974 -0.1369
 2248TIP3   OH228158   5.453   3.783  16.959 -0.4231  0.0873 -0.3304
 2248TIP3    H128159   5.491   3.709  16.911 -1.8702 -1.8285  1.2829
 2248TIP3    H228160   5.500   3.785  17.042 -0.7122  0.7205 -0.1739
 2249TIP3   OH228161   0.758   4.790  15.025  0.4603  0.4190  0.2723
 2249TIP3    H128162   0.718   4.845  14.958 -0.4928  0.2550  0.6977
 2249TIP3    H228163   0.783   4.850  15.095 -0.9228  0.2879  0.9020
 2250TIP3   OH228164   1.026   6.269   4.194  0.2000  0.4012 -0.2355
 2250TIP3    H128165   1.052   6.338   4.255 -0.2326 -0.6021  1.1434
 2250TIP3    H228166   1.100   6.209   4.193 -0.8842 -1.0604  1.5902
 2251TIP3   OH228167   2.505   4.971  14.110  0.7309 -0.0363 -0.0315
 2251TIP3    H128168   2.413   4.995  14.125  0.6193 -0.9577  0.8629
 2251TIP3    H228169   2.512   4.963  14.015 -0.4529 -1.1818 -0.0602
 2252TIP3   OH228170   5.051   1.461  16.059 -0.0712 -0.4591 -0.6700
 2252TIP3    H128171   5.146   1.467  16.065 -0.0988 -0.6589  0.1189
 2252TIP3    H228172   5.018   1.521  16.126 -0.5466  1.0409 -2.1858
 2253TIP3   OH228173   4.589   1.264   0.782 -0.1921  0.6186  0.2900
 2253TIP3    H128174   4.589   1.359   0.783 -3.6148  0.7409 -0.9116
 2253TIP3    H228175   4.654   1.240   0.849  0.1816  3.7487  1.2217
 2254TIP3   OH228176   3.990   3.792   2.774  0.3341  0.1012  0.1382
 2254TIP3    H128177   3.958   3.871   2.731 -1.8195 -0.1969  1.0337
 2254TIP3    H228178   4.007   3.820   2.864 -1.3556 -0.5781  0.7193
 2255TIP3   OH228179   3.328   3.516   1.975  0.3608  0.2313  0.2402
 2255TIP3    H128180   3.396   3.453   2.000 -0.4074 -1.4996 -1.7300
 2255TIP3    H228181   3.250   3.463   1.961 -0.5819  1.7631 -0.5578
 2256TIP3   OH228182   3.730   2.480  16.509  0.1256  0.3131 -0.0180
 2256TIP3    H128183   3.754   2.392  16.482  1.6938  0.8284 -0.4017
 2256TIP3    H228184   3.634   2.479  16.512  0.0937 -1.1787 -0.7322
 2257TIP3   OH228185   0.191   3.593  14.971  0.1842 -0.1704 -0.1847
 2257TIP3    H128186   0.244   3.636  14.904  1.4943  0.4207  1.1607
 2257TIP3    H228187   0.229   3.623  15.054 -2.6206  0.7304  0.8928
 2258TIP3   OH228188   6.404   4.958  10.911 -0.2505  0.5372  0.8353
 2258TIP3    H128189   6.438   5.001  10.990  1.8738 -0.2248  0.4004
 2258TIP3    H228190   6.428   5.018  10.840 -1.2011  0.7026  0.6411
 2259TIP3   OH228191   6.446   2.030   3.993  0.1318 -0.2160 -0.2374
 2259TIP3    H128192   6.456   1.995   4.081 -0.4866  0.1545 -0.0134
 2259TIP3    H228193   6.402   2.114   4.005  1.1226  0.4021 -0.8063
 2260TIP3   OH228194   4.093   4.522   0.568  0.1611 -0.4133  0.0916
 2260TIP3    H128195   4.139   4.574   0.503 -0.1699 -0.7613 -0.4365
 2260TIP3    H228196   4.127   4.552   0.652  1.9114 -1.1850 -0.2965
 2261TIP3   OH228197   0.305   1.412  13.261 -0.0814 -0.6201  1.0140
 2261TIP3    H128198   0.220   1.403  13.303  0.1058 -0.2488  1.4919
 2261TIP3    H228199   0.296   1.367  13.178 -1.1513  0.5401  0.4684
 2262TIP3   OH228200   0.682   1.252   3.728  0.4226  0.1521  0.3784
 2262TIP3    H128201   0.757   1.194   3.720  0.0734 -0.4648  1.4316
 2262TIP3    H228202   0.719   1.340   3.724  1.3736 -0.1314  2.0838
 2263TIP3   OH228203   4.516   6.524   0.174 -0.3930 -0.3045 -0.7264
 2263TIP3    H128204   4.602   6.484   0.156 -0.5309 -2.2503  2.1737
 2263TIP3    H228205   4.458   6.485   0.110  0.3304 -1.5033 -0.6913
 2264TIP3   OH228206   3.343   0.619  11.407 -0.8520  0.5724 -0.4638
 2264TIP3    H128207   3.290   0.548  11.371 -0.9548  0.9572 -1.0872
 2264TIP3    H228208   3.369   0.671  11.331 -0.0229  0.6954 -0.1068
 2265TIP3   OH228209   2.770   6.332  12.761 -0.4906 -0.2760 -0.3452
 2265TIP3    H128210   2.831   6.388  12.713 -1.2641  0.9840  0.0949
 2265TIP3    H228211   2.767   6.369  12.849 -2.1566 -0.0594 -0.4522
 2266TIP3   OH228212   6.528   6.703   2.613 -0.3659 -0.2260 -0.3086
 2266TIP3    H128213   6.546   6.794   2.587  1.1221 -0.4438 -0.1544
 2266TIP3    H228214   6.614   6.661   2.610 -1.1091 -1.7479 -0.8133
 2267TIP3   OH228215   6.712   0.759  12.374 -0.6647 -0.3321  0.2397
 2267TIP3    H128216   6.683   0.799  12.292 -1.1291  1.8062  1.3869
 2267TIP3    H228217   6.806   0.746  12.362 -1.1281 -2.7272 -1.6417
 2268TIP3   OH228218   5.208   2.965   5.628  1.0221 -0.2580 -0.0910
 2268TIP3    H128219   5.242   3.035   5.572  1.2882 -0.1565  0.1913
 2268TIP3    H228220   5.263   2.969   5.706 -0.3081  0.6216  0.8598
 2269TIP3   OH228221   2.720   2.099   3.410 -0.0306 -0.2594  0.4273
 2269TIP3    H128222   2.782   2.062   3.473 -0.2273 -0.2800  0.6076
 2269TIP3    H228223   2.668   2.161   3.461 -0.3214 -0.4212  0.3246
 2270TIP3   OH228224   0.567   4.654  14.060  0.1974  0.2237  0.4456
 2270TIP3    H128225   0.557   4.599  13.982 -1.8418  0.1424  0.7264
 2270TIP3    H228226   0.588   4.741  14.025 -2.2328  0.5671 -0.3461
 2271TIP3   OH228227   0.310   6.143   1.613 -0.1291  0.1406 -0.1884
 2271TIP3    H128228   0.404   6.130   1.608 -0.1866 -0.6336  0.4496
 2271TIP3    H228229   0.286   6.111   1.700 -0.6839  2.3421  0.5533
 2272TIP3   OH228230   0.220   3.167   5.814  0.0569  0.4874  0.2900
 2272TIP3    H128231   0.291   3.103   5.804 -1.0158 -0.3954 -2.9732
 2272TIP3    H228232   0.262   3.243   5.855  2.4136 -0.6991  0.2606
 2273TIP3   OH228233   4.111   3.558   3.170 -0.3776  0.6066  0.2547
 2273TIP3    H128234   4.172   3.569   3.242  0.8444 -0.4409 -0.5694
 2273TIP3    H228235   4.154   3.602   3.096 -1.4537  1.3802  0.0701
 2274TIP3   OH228236   1.607   0.842   5.769  0.6006  0.6116  0.2694
 2274TIP3    H128237   1.598   0.752   5.800 -2.3832  0.5932 -0.3809
 2274TIP3    H228238   1.558   0.895   5.832  0.1428  1.4105 -0.7188
 2275TIP3   OH228239   1.468   6.608  12.230  0.1533  0.0730 -0.9974
 2275TIP3    H128240   1.533   6.656  12.282  0.1824 -0.9038 -0.0950
 2275TIP3    H228241   1.434   6.542  12.290 -0.7901 -0.2228 -1.8390
 2276TIP3   OH228242   3.480   6.709   0.965  0.0889  0.0930 -0.1993
 2276TIP3    H128243   3.447   6.639   1.022  1.5735  0.0387  0.6481
 2276TIP3    H228244   3.568   6.728   0.999  0.9303  0.2525 -2.3149
 2277TIP3   OH228245   5.285   3.589   4.379 -0.3230  0.3605 -0.4416
 2277TIP3    H128246   5.318   3.678   4.367 -2.4001  1.1100 -0.9935
 2277TIP3    H228247   5.345   3.535   4.328  0.9826  1.4127 -0.0968
 2278TIP3   OH228248   5.661   0.753   3.429  0.0450  0.4334 -0.6305
 2278TIP3    H128249   5.753   0.730   3.437  0.3465  1.8079  0.1881
 2278TIP3    H228250   5.649   0.775   3.336  0.2950 -0.6645 -0.9337
 2279TIP3   OH228251   4.579   5.362   3.013  0.2315  0.0146 -0.0692
 2279TIP3    H128252   4.490   5.326   3.015 -0.0235 -0.0277 -3.9975
 2279TIP3    H228253   4.566   5.457   3.024 -0.6006  0.2060 -2.1541
 2280TIP3   OH228254   0.751   6.256   0.695 -0.0223  0.2239 -0.1721
 2280TIP3    H128255   0.737   6.217   0.609 -1.6945  0.2491  0.0698
 2280TIP3    H228256   0.667   6.294   0.719  0.4488  0.3456  1.4147
 2281TIP3   OH228257   2.271   0.557  11.884  0.3003  0.4902 -0.5913
 2281TIP3    H128258   2.249   0.523  11.797  0.6750 -2.1994  0.2910
 2281TIP3    H228259   2.189   0.551  11.934  0.6455 -0.2747 -0.0958
 2282TIP3   OH228260   5.632   5.225  13.254  0.4701  0.5038  0.2796
 2282TIP3    H128261   5.613   5.306  13.207  0.8516  0.0861 -0.6061
 2282TIP3    H228262   5.564   5.221  13.322 -2.4453 -0.6741 -2.4398
 2283TIP3   OH228263   0.606   2.881   2.303 -0.0870  0.4976  0.4767
 2283TIP3    H128264   0.575   2.904   2.215 -0.8790  0.9888  0.8622
 2283TIP3    H228265   0.529   2.843   2.346  0.6811 -1.0749  0.5070
 2284TIP3   OH228266   0.545   6.333   2.879  0.2517 -0.2408  0.4987
 2284TIP3    H128267   0.560   6.384   2.959 -1.1542  0.8542  0.0989
 2284TIP3    H228268   0.626   6.344   2.828  1.6306 -1.8722  2.1878
 2285TIP3   OH228269   0.542   1.579   3.177 -0.1390  0.0662 -0.4227
 2285TIP3    H128270   0.564   1.548   3.265  2.0024  0.7401 -0.6807
 2285TIP3    H228271   0.531   1.498   3.127  0.1373 -0.3116  0.1064
 2286TIP3   OH228272   6.729   1.358   4.481 -0.0671 -0.0755  0.0702
 2286TIP3    H128273   6.773   1.297   4.422  0.2516  0.8209 -0.6322
 2286TIP3    H228274   6.773   1.442   4.467 -1.4205  0.6436 -0.0048
 2287TIP3   OH228275   4.566   0.032  12.371  0.3250  0.0695  0.4292
 2287TIP3    H128276   4.558   0.062  12.462 -0.8444  1.4065 -0.0695
 2287TIP3    H228277   4.476   0.019  12.342  0.6848 -0.3495 -0.5387
 2288TIP3   OH228278   0.251   4.998  11.048  0.3446  0.0618  0.2196
 2288TIP3    H128279   0.228   4.907  11.027 -2.3788  0.7139  0.0549
 2288TIP3    H228280   0.312   5.023  10.979  1.7441 -1.8170  0.6763
 2289TIP3   OH228281   5.154   0.564   3.383  0.8997 -0.0563 -0.1453
 2289TIP3    H128282   5.249   0.562   3.393  0.9993 -0.6291 -1.1085
 2289TIP3    H228283   5.139   0.632   3.317  0.6674 -0.2052 -0.2446
 2290TIP3   OH228284   6.564   3.016  17.044 -0.5393  0.3479 -0.6959
 2290TIP3    H128285   6.522   3.043  17.126  1.1895 -2.7813  1.4018
 2290TIP3    H228286   6.655   3.043  17.054 -0.3235 -0.0040 -1.6454
 2291TIP3   OH228287   4.433   5.096  14.215 -0.1543  0.4792 -0.3535
 2291TIP3    H128288   4.394   5.018  14.176 -1.1150  1.3587 -1.2347
 2291TIP3    H228289   4.358   5.146  14.248  0.5481  0.2747  1.7500
 2292TIP3   OH228290   4.859   5.358  12.057 -0.1876  0.7145 -0.0543
 2292TIP3    H128291   4.764   5.348  12.065 -0.3256  0.5856 -1.5989
 2292TIP3    H228292   4.875   5.451  12.074 -0.8143  1.0973 -1.4464
 2293TIP3   OH228293   2.681   6.687   0.929 -0.2419 -0.2021  0.0089
 2293TIP3    H128294   2.743   6.650   0.866 -0.0247 -0.3469  0.2983
 2293TIP3    H228295   2.596   6.655   0.902 -0.0716 -0.8113  0.1722
 2294TIP3   OH228296   2.083   2.484   0.147  0.0760  0.0138 -0.2236
 2294TIP3    H128297   2.009   2.423   0.144 -1.2608  1.5930 -0.5614
 2294TIP3    H228298   2.159   2.428   0.165 -1.1579 -1.6756 -0.0049
 2295TIP3   OH228299   4.445   2.638   6.071  0.4633 -0.5999 -0.6326
 2295TIP3    H128300   4.415   2.558   6.115  1.1107 -0.5644 -0.1235
 2295TIP3    H228301   4.536   2.620   6.048  0.5045 -0.1416 -0.8366
 2296TIP3   OH228302   1.763   5.509   5.885 -0.2820  0.3564  0.7606
 2296TIP3    H128303   1.674   5.504   5.919  0.1458 -1.1317  1.7522
 2296TIP3    H228304   1.819   5.513   5.963  0.5198  2.4560  0.1629
 2297TIP3   OH228305   1.985   0.398   4.699 -0.2186 -0.1602  0.5682
 2297TIP3    H128306   2.070   0.431   4.726 -1.0112  1.5783  1.0307
 2297TIP3    H228307   1.989   0.304   4.717  1.5523 -0.0993  0.6441
 2298TIP3   OH228308   2.964   1.469  16.254 -0.4547  0.7530 -0.2121
 2298TIP3    H128309   2.933   1.554  16.284 -0.4882  0.5773  0.2582
 2298TIP3    H228310   3.048   1.487  16.213 -0.3489  0.9786  0.1027
 2299TIP3   OH228311   0.056   1.848   3.387 -0.2100  0.0846  0.2431
 2299TIP3    H128312   0.097   1.803   3.461 -0.7981  0.1944  0.6414
 2299TIP3    H228313   0.124   1.849   3.319 -0.2605 -1.6573  0.1044
 2300TIP3   OH228314   5.945   6.762   5.445  0.3096 -0.4765  0.3051
 2300TIP3    H128315   6.021   6.749   5.387  0.2941  1.0280 -0.1070
 2300TIP3    H228316   5.983   6.772   5.532  0.4772 -1.0195  0.2971
 2301TIP3   OH228317   5.008   4.720  12.525 -0.7686 -0.5138 -0.2679
 2301TIP3    H128318   5.101   4.722  12.548 -0.1901 -1.6874 -2.2100
 2301TIP3    H228319   5.005   4.669  12.444 -2.8456  1.3801 -1.4991
 2302TIP3   OH228320   2.735   2.560  15.785  0.2343 -0.0733  0.0584
 2302TIP3    H128321   2.655   2.609  15.762  0.5852  0.4958  0.0344
 2302TIP3    H228322   2.744   2.496  15.715 -0.5242 -0.5461  0.3674
 2303TIP3   OH228323   1.224   2.037   1.470  0.4514 -0.5731  0.1285
 2303TIP3    H128324   1.253   2.061   1.558  0.5117  0.1995 -0.0905
 2303TIP3    H228325   1.156   1.971   1.484  0.9634 -0.9763  0.7201
 2304TIP3   OH228326   3.518   1.522  14.004  0.0669 -0.0052  0.0878
 2304TIP3    H128327   3.462   1.582  13.956  0.5707  1.5897  1.4223
 2304TIP3    H228328   3.587   1.577  14.042  0.4766 -1.3853  1.4653
 2305TIP3   OH228329   2.104   3.724  15.963 -0.4943  0.4418  0.2422
 2305TIP3    H128330   2.058   3.646  15.932  1.0725 -0.3019 -0.2868
 2305TIP3    H228331   2.037   3.793  15.963 -1.5625 -0.5618 -0.6373
 2306TIP3   OH228332   6.269   6.265  13.849  0.5499  0.0620  0.4484
 2306TIP3    H128333   6.310   6.351  13.838  1.0489 -0.2501 -0.1953
 2306TIP3    H228334   6.279   6.245  13.942  2.0577 -0.0976  0.2778
 2307TIP3   OH228335   3.560   5.325  11.420  0.3349 -0.2128 -0.0145
 2307TIP3    H128336   3.640   5.360  11.458  0.9339 -1.7117  0.1750
 2307TIP3    H228337   3.516   5.282  11.494  0.5092 -1.3895 -0.5825
 2308TIP3   OH228338   5.599   1.524  14.617  0.2899 -0.0654  0.6374
 2308TIP3    H128339   5.606   1.428  14.613 -0.4233 -0.0996 -0.2190
 2308TIP3    H228340   5.672   1.556  14.565 -1.0358 -0.2367 -1.4680
 2309TIP3   OH228341   5.028   0.251   5.673  0.4651 -0.1662 -0.0227
 2309TIP3    H128342   5.089   0.178   5.675  1.7341  0.8492 -0.5130
 2309TIP3    H228343   4.959   0.226   5.735  0.2202 -2.2811 -1.0244
 2310TIP3   OH228344   1.052   2.750  13.679  0.2349  0.0589  0.3801
 2310TIP3    H128345   1.010   2.822  13.725  1.2018 -0.0916  1.5384
 2310TIP3    H228346   0.984   2.714  13.622 -0.5464  1.2143  0.5577
 2311TIP3   OH228347   3.387   1.592   0.440  0.5091  0.0562  0.3108
 2311TIP3    H128348   3.326   1.651   0.395  1.5811  0.3640 -0.7718
 2311TIP3    H228349   3.436   1.649   0.499 -0.0251 -0.1499  0.9775
 2312TIP3   OH228350   5.035   3.837   4.429  0.1904 -0.8508 -0.8659
 2312TIP3    H128351   5.046   3.932   4.438 -0.8323 -0.8740  1.0345
 2312TIP3    H228352   4.960   3.826   4.371 -1.3264 -0.3986  0.9121
 2313TIP3   OH228353   0.242   3.651  16.215 -0.3225 -0.2335  0.1501
 2313TIP3    H128354   0.318   3.700  16.247 -0.6649 -0.2866  1.0663
 2313TIP3    H228355   0.181   3.718  16.185 -0.9528 -0.0590  1.7614
 2314TIP3   OH228356   0.804   1.637   1.482 -0.2134  0.3933  0.3217
 2314TIP3    H128357   0.784   1.545   1.469 -1.1426  0.3328  1.9024
 2314TIP3    H228358   0.808   1.674   1.394 -0.8154 -0.9614 -0.2956
 2315TIP3   OH228359   0.272   5.391  15.309 -0.7110  0.0016 -0.2409
 2315TIP3    H128360   0.327   5.330  15.359  0.2796  0.4187 -0.7836
 2315TIP3    H228361   0.332   5.430  15.246 -1.8285 -0.1392 -1.4231
 2316TIP3   OH228362   5.442   4.462  12.712  0.0039  0.1827  0.2573
 2316TIP3    H128363   5.407   4.392  12.658  0.3797  0.2381 -0.0685
 2316TIP3    H228364   5.458   4.422  12.798 -0.4610  0.0573  0.2854
 2317TIP3   OH228365   6.328   2.121   2.605  0.8444  0.1242 -0.3875
 2317TIP3    H128366   6.328   2.031   2.640 -0.4915  0.3693  0.3030
 2317TIP3    H228367   6.415   2.155   2.629  0.6232 -0.3141  1.1927
 2318TIP3   OH228368   0.614   5.119  16.825  0.1593 -0.0302 -0.5575
 2318TIP3    H128369   0.659   5.197  16.795 -0.4925  1.1743  1.3825
 2318TIP3    H228370   0.670   5.083  16.893 -0.1510 -0.5046 -0.5466
 2319TIP3   OH228371   0.528   2.851   0.855  0.4606 -0.1845 -0.2586
 2319TIP3    H128372   0.505   2.761   0.832 -0.9075 -0.3685  1.5803
 2319TIP3    H228373   0.622   2.857   0.838  0.3325 -1.5419 -1.6433
 2320TIP3   OH228374   4.259   6.098  12.774  0.4606 -0.1194  0.6277
 2320TIP3    H128375   4.353   6.112  12.771  0.3450  0.6587  0.5717
 2320TIP3    H228376   4.234   6.126  12.863  0.1739  0.3918  0.3895
 2321TIP3   OH228377   0.892   5.078   3.938 -0.4866  0.2180 -0.0941
 2321TIP3    H128378   0.880   5.075   4.033  1.1688 -0.3965  0.1328
 2321TIP3    H228379   0.872   5.168   3.914  1.6173  1.1233  1.2611
 2322TIP3   OH228380   3.680   0.812  16.827  0.2069  0.0744  0.3386
 2322TIP3    H128381   3.663   0.770  16.912  0.0398  0.7673  0.6524
 2322TIP3    H228382   3.775   0.822  16.824  0.3307 -1.1136 -0.1217
 2323TIP3   OH228383   5.064   1.108   2.290  0.2010 -0.1958  0.3789
 2323TIP3    H128384   5.114   1.178   2.331 -2.3732  1.5961  0.6741
 2323TIP3    H228385   4.991   1.092   2.351  0.3321 -2.7099 -0.0074
 2324TIP3   OH228386   5.978   5.218  14.313  0.0463 -0.4034  0.3894
 2324TIP3    H128387   6.069   5.200  14.289  0.3552  1.9821 -0.5138
 2324TIP3    H228388   5.984   5.281  14.385 -0.9329 -1.3697  1.3626
 2325TIP3   OH228389   2.879   3.001  15.715  0.1215 -0.0109 -0.9994
 2325TIP3    H128390   2.885   3.090  15.749  1.2394 -0.2964 -0.3954
 2325TIP3    H228391   2.925   3.005  15.631  0.0943 -0.0012 -1.0141
 2326TIP3   OH228392   5.518   6.027   4.977 -0.6480  0.2958  0.6622
 2326TIP3    H128393   5.474   6.030   5.063  0.5025 -0.5880  1.3098
 2326TIP3    H228394   5.504   6.114   4.940 -2.9940  0.0443  0.7933
 2327TIP3   OH228395   4.250   5.690  14.670 -0.0436  0.1731  0.1849
 2327TIP3    H128396   4.277   5.781  14.671  0.0777  0.1450  1.9148
 2327TIP3    H228397   4.289   5.654  14.590  1.6900  1.1134  0.5693
 2328TIP3   OH228398   1.304   4.212  15.983  0.4688 -0.4289 -0.0572
 2328TIP3    H128399   1.267   4.212  15.895  2.2914  1.8483 -0.9336
 2328TIP3    H228400   1.267   4.289  16.025  1.3472 -0.2001  0.3281
 2329TIP3   OH228401   1.340   0.951  16.275 -0.2169  0.4325 -0.9301
 2329TIP3    H128402   1.344   0.856  16.286  0.8691  0.5450 -0.1934
 2329TIP3    H228403   1.331   0.964  16.181 -0.4937 -0.4036 -1.0301
 2330TIP3   OH228404   6.090   1.657   6.161  0.2816  0.4908 -0.3839
 2330TIP3    H128405   6.074   1.668   6.255 -0.1378 -0.8667 -0.2758
 2330TIP3    H228406   6.170   1.604   6.157 -0.6739 -1.0090 -0.7157
 2331TIP3   OH228407   2.796   1.366   0.464  0.3128 -0.5362  0.0277
 2331TIP3    H128408   2.721   1.385   0.521  0.5032  0.9283 -0.1635
 2331TIP3    H228409   2.758   1.354   0.377  0.4241  2.8872 -0.6283
 2332TIP3   OH228410   0.297   4.104   4.316 -0.3261  0.4198  0.3174
 2332TIP3    H128411   0.241   4.032   4.345  0.4805 -0.0808  0.6517
 2332TIP3    H228412   0.251   4.141   4.240 -0.7555 -0.4389  0.1468
 2333TIP3   OH228413   3.458   6.156   3.580  0.0861 -0.4285  0.5654
 2333TIP3    H128414   3.441   6.062   3.587  0.1821 -0.4399  0.6483
 2333TIP3    H228415   3.507   6.166   3.498  0.7911 -0.5521  0.9639
 2334TIP3   OH228416   6.566   1.185  12.582  0.1598 -0.5324  0.2696
 2334TIP3    H128417   6.637   1.220  12.635  0.9722 -2.6458  0.6729
 2334TIP3    H228418   6.491   1.182  12.640 -0.0892  1.0400  0.0529
 2335TIP3   OH228419   4.445   4.706  13.860 -0.4721  0.1327 -0.0816
 2335TIP3    H128420   4.471   4.764  13.931  1.0371 -1.4709  0.7696
 2335TIP3    H228421   4.482   4.621  13.884 -2.4990 -1.1814 -1.3123
 2336TIP3   OH228422   5.114   6.261   3.226  0.0372 -0.2101 -0.0407
 2336TIP3    H128423   5.187   6.199   3.229 -0.5407 -0.8843  0.4105
 2336TIP3    H228424   5.155   6.346   3.209  0.6935 -0.9943 -3.1192
 2337TIP3   OH228425   4.453   5.829   3.280  0.3752  0.3960  0.1733
 2337TIP3    H128426   4.410   5.845   3.364 -1.6907 -0.4889 -0.6535
 2337TIP3    H228427   4.524   5.894   3.276 -0.2015  1.1902  2.0871
 2338TIP3   OH228428   3.114   4.288   0.697  0.3992  0.1882 -0.4654
 2338TIP3    H128429   3.031   4.330   0.672  0.6066  1.0258  0.2114
 2338TIP3    H228430   3.090   4.197   0.713 -0.7073  0.7369  1.2328
 2339TIP3   OH228431   2.573   0.038  12.074  0.2802  0.1886  0.1840
 2339TIP3    H128432   2.505   0.056  12.008 -1.5603 -3.4171  0.8374
 2339TIP3    H228433   2.631  -0.026  12.032  0.5462 -0.2621  1.2030
 2340TIP3   OH228434   4.226   4.861   2.186  0.4043  0.2162  0.5383
 2340TIP3    H128435   4.268   4.894   2.266  0.0980  0.4812  0.5913
 2340TIP3    H228436   4.256   4.771   2.178  3.3242  1.1683 -0.9625
 2341TIP3   OH228437   4.540   6.682   3.428  0.3317  0.4667 -0.4947
 2341TIP3    H128438   4.457   6.695   3.382 -1.4475 -1.0333  2.0284
 2341TIP3    H228439   4.564   6.769   3.460 -1.9300  0.5519  1.2422
 2342TIP3   OH228440   1.092   4.918   4.600 -0.7041  0.6599 -0.0994
 2342TIP3    H128441   1.125   4.885   4.517  0.4527  1.4429  0.0318
 2342TIP3    H228442   1.153   4.885   4.666 -2.7418 -1.7320  0.7784
 2343TIP3   OH228443   6.734   1.710  11.492 -0.3512 -0.4660  0.0736
 2343TIP3    H128444   6.741   1.788  11.436  2.4247 -0.7562 -0.1332
 2343TIP3    H228445   6.645   1.714  11.528 -1.0490  1.5762 -1.6650
 2344TIP3   OH228446   0.343   0.162  11.503 -0.5913 -0.3681  0.0845
 2344TIP3    H128447   0.353   0.068  11.492 -0.4303 -0.4546  0.8712
 2344TIP3    H228448   0.423   0.200  11.467 -0.7555 -0.5137 -0.4348
 2345TIP3   OH228449   1.056   6.527   6.359  0.1072 -0.1862 -0.7046
 2345TIP3    H128450   1.088   6.437   6.352 -0.5244 -0.7475  2.2093
 2345TIP3    H228451   0.986   6.522   6.424  0.4823  2.4894  0.0147
 2346TIP3   OH228452   3.735   0.874   1.432  0.1227  0.2205  0.0022
 2346TIP3    H128453   3.807   0.938   1.437  0.7268 -0.4759  0.3758
 2346TIP3    H228454   3.744   0.835   1.345 -0.3178  0.7250 -0.2706
 2347TIP3   OH228455   6.535   2.731  12.764 -0.2584 -0.0159  0.0891
 2347TIP3    H128456   6.621   2.713  12.725 -0.4860  0.0979 -0.4801
 2347TIP3    H228457   6.493   2.791  12.702 -1.1905 -0.9613 -0.2293
 2348TIP3   OH228458   1.940   6.577   4.422  0.4118  0.3789  0.2091
 2348TIP3    H128459   1.933   6.672   4.431 -1.1207  0.3188  0.0359
 2348TIP3    H228460   1.896   6.542   4.500  0.3091 -0.1819 -0.0885
 2349TIP3   OH228461   6.047   3.147  12.571 -0.4639 -0.3023  0.3087
 2349TIP3    H128462   5.970   3.149  12.514  0.7691  2.3607 -1.4386
 2349TIP3    H228463   6.060   3.239  12.597  0.5184 -1.0769  2.9033
 2350TIP3   OH228464   3.811   1.840  13.473 -0.0013  0.1737 -0.7249
 2350TIP3    H128465   3.843   1.751  13.486  2.1926  0.8757 -0.8596
 2350TIP3    H228466   3.751   1.856  13.546 -0.3729 -1.3667 -0.6692
 2351TIP3   OH228467   6.419   5.167  11.530  0.3670  0.6778 -0.4279
 2351TIP3    H128468   6.348   5.192  11.589 -0.3308 -1.9655  0.0100
 2351TIP3    H228469   6.374   5.126  11.456  1.4033 -0.4401 -0.4606
 2352TIP3   OH228470   4.085   2.924  11.448 -1.0660 -0.0976  0.0089
 2352TIP3    H128471   4.029   2.932  11.525 -0.9693 -3.3501  0.5703
 2352TIP3    H228472   4.087   2.830  11.430  1.1257  0.2961 -2.3372
 2353TIP3   OH228473   5.475   4.710  14.766  1.5167  0.4113 -0.6170
 2353TIP3    H128474   5.380   4.708  14.770  1.5648 -0.5368  0.6253
 2353TIP3    H228475   5.496   4.683  14.677  0.6624 -2.5791 -0.0098
 2354TIP3   OH228476   3.530   2.640   4.615  0.0020  0.2600 -0.4379
 2354TIP3    H128477   3.561   2.580   4.547  0.5340  1.2160 -1.0622
 2354TIP3    H228478   3.527   2.725   4.572 -0.8060  0.6812  0.4171
 2355TIP3   OH228479   5.210   0.418   5.137  0.4210 -0.1876  0.6757
 2355TIP3    H128480   5.231   0.369   5.217 -0.9712 -1.6285  0.2246
 2355TIP3    H228481   5.141   0.479   5.164 -1.1771 -1.7437  0.3332
 2356TIP3   OH228482   3.992   1.945   0.982 -0.1906 -0.2144 -0.2685
 2356TIP3    H128483   3.929   2.015   0.998  1.6129  1.0426  1.8565
 2356TIP3    H228484   4.031   1.968   0.898  0.7208  1.7053  0.6151
 2357TIP3   OH228485   2.873   5.920   4.217 -0.4050  0.0732  0.1585
 2357TIP3    H128486   2.965   5.923   4.244 -0.2869 -0.0629 -0.2176
 2357TIP3    H228487   2.871   5.968   4.134 -0.6242 -0.1515  0.0325
 2358TIP3   OH228488   2.188   5.385   3.365  0.7085  0.2983 -0.4835
 2358TIP3    H128489   2.130   5.372   3.440  0.4533  1.2124 -0.5058
 2358TIP3    H228490   2.148   5.458   3.316 -0.0989 -1.3620 -2.4684
 2359TIP3   OH228491   2.903   0.370   1.112 -0.1121  0.9383  0.2187
 2359TIP3    H128492   2.923   0.438   1.048 -1.9216 -0.0961 -1.5820
 2359TIP3    H228493   2.985   0.321   1.122  0.3084  1.3455 -1.0552
 2360TIP3   OH228494   6.758   5.976   2.499 -0.4684 -0.2856 -0.1895
 2360TIP3    H128495   6.673   5.996   2.459 -0.2393  1.8962  0.2863
 2360TIP3    H228496   6.755   6.020   2.584  1.2579  0.1583 -0.3208
 2361TIP3   OH228497   0.119   4.751   0.472  0.1369  0.0572  0.1105
 2361TIP3    H128498   0.038   4.794   0.442  0.6941  1.1169  0.0787
 2361TIP3    H228499   0.089   4.682   0.532 -0.8452 -0.3403 -0.8061
 2362TIP3   OH228500   1.904   0.850   5.803 -0.4165 -0.2113  0.5938
 2362TIP3    H128501   1.899   0.858   5.707  0.5120 -0.5040  0.5067
 2362TIP3    H228502   1.816   0.870   5.833 -0.6337  0.2647 -0.3003
 2363TIP3   OH228503   2.993   1.947  11.501  0.1605 -0.1928 -0.5452
 2363TIP3    H128504   3.058   1.882  11.525 -0.4867 -0.3983  0.7408
 2363TIP3    H228505   3.008   1.963  11.407  1.6243 -0.6890 -0.4204
 2364TIP3   OH228506   4.442   4.963   0.717  0.0987 -0.4050  0.1267
 2364TIP3    H128507   4.523   4.942   0.670  0.4054  0.0190  0.4671
 2364TIP3    H228508   4.456   4.929   0.805  0.6406  1.2778  0.7200
 2365TIP3   OH228509   3.900   2.447  11.601  0.4294  0.2560 -0.3061
 2365TIP3    H128510   3.859   2.437  11.687 -3.4667 -1.6404 -2.1283
 2365TIP3    H228511   3.974   2.387  11.602 -0.7707 -1.2930  1.0970
 2366TIP3   OH228512   3.880   2.501  13.459  0.4476 -0.1317  0.1644
 2366TIP3    H128513   3.790   2.472  13.445  1.7248 -3.8570 -1.6214
 2366TIP3    H228514   3.902   2.549  13.379 -0.1242  1.4990  0.9486
 2367TIP3   OH228515   4.664   1.817   4.744  0.0034 -0.4284  0.0674
 2367TIP3    H128516   4.645   1.837   4.652  0.3847  0.4040  0.1615
 2367TIP3    H228517   4.692   1.725   4.743  2.2791  0.2060 -1.0179
 2368TIP3   OH228518   1.908   4.735   2.464 -1.0822 -0.4564 -0.0303
 2368TIP3    H128519   1.953   4.661   2.424 -2.1994 -1.6511  0.8624
 2368TIP3    H228520   1.966   4.763   2.535  0.4770  1.0968 -1.7983
 2369TIP3   OH228521   1.908   4.976   5.208  0.5746 -0.0865 -0.1212
 2369TIP3    H128522   1.951   5.013   5.285 -0.5666  0.2193  0.4051
 2369TIP3    H228523   1.955   5.014   5.134  0.6439  0.9490  0.4227
 2370TIP3   OH228524   4.253   5.761   4.074 -0.8727 -0.4059  0.4064
 2370TIP3    H128525   4.342   5.728   4.070 -0.8898 -0.3739 -0.4599
 2370TIP3    H228526   4.235   5.771   4.168  0.0939 -0.2323  0.5835
 2371TIP3   OH228527   4.850   4.730   3.936 -0.0729  0.0650 -0.9959
 2371TIP3    H128528   4.878   4.640   3.919 -1.1408 -0.7650  1.2532
 2371TIP3    H228529   4.771   4.741   3.884 -0.9085 -0.9259  0.0314
 2372TIP3   OH228530   5.782   2.402  14.167 -0.2859  0.3418  0.0330
 2372TIP3    H128531   5.843   2.467  14.202 -0.4494  0.5857 -0.1275
 2372TIP3    H228532   5.720   2.385  14.238 -2.4460  3.0553 -0.9785
 2373TIP3   OH228533   6.679   5.987  16.983  0.1177  0.4934  0.1587
 2373TIP3    H128534   6.715   5.905  17.015  1.1804  0.9450  0.1518
 2373TIP3    H228535   6.584   5.973  16.982  0.0874  0.1775  2.6563
 2374TIP3   OH228536   1.060   5.315   5.258 -0.0964  0.3801 -0.2673
 2374TIP3    H128537   1.127   5.295   5.194 -1.8313  1.2721 -2.5246
 2374TIP3    H228538   1.031   5.404   5.235 -0.5668  0.8711  1.9854
 2375TIP3   OH228539   3.920   2.684   2.096 -0.5621  0.2299 -0.2661
 2375TIP3    H128540   3.869   2.701   2.175 -1.0708 -0.3888 -0.4510
 2375TIP3    H228541   3.856   2.648   2.034  0.4965 -2.7871  0.2493
 2376TIP3   OH228542   4.529   4.743   5.634 -0.3774 -0.0506 -0.1606
 2376TIP3    H128543   4.498   4.829   5.606 -0.5113  0.2336  0.8246
 2376TIP3    H228544   4.617   4.736   5.598 -0.1210  0.7759  0.2797
 2377TIP3   OH228545   0.451   0.486  16.862 -0.5574  0.3320 -0.6994
 2377TIP3    H128546   0.410   0.572  16.859  0.8800  1.1261  0.7583
 2377TIP3    H228547   0.525   0.492  16.803 -0.1626  0.2674 -0.2149
 2378TIP3   OH228548   1.131   4.050   0.891  0.0084  0.3133 -0.4069
 2378TIP3    H128549   1.224   4.070   0.896 -0.2299  1.6082 -0.7352
 2378TIP3    H228550   1.087   4.129   0.923 -0.9749 -0.2864 -0.2210
 2379TIP3   OH228551   5.663   4.829   5.114  0.3648 -1.2027  0.8395
 2379TIP3    H128552   5.691   4.921   5.108  0.1873 -1.1954  0.0736
 2379TIP3    H228553   5.673   4.808   5.207 -0.4552 -0.1371  1.1985
 2380TIP3   OH228554   5.311   5.284   5.571 -0.2608 -0.2925  0.3888
 2380TIP3    H128555   5.378   5.346   5.542 -0.9428 -0.4095 -1.5751
 2380TIP3    H228556   5.346   5.198   5.546 -0.5925 -0.4568  0.4825
 2381TIP3   OH228557   3.815   5.345   1.404  0.1206 -0.3264  0.0535
 2381TIP3    H128558   3.749   5.390   1.456  0.6314 -0.2131  0.6090
 2381TIP3    H228559   3.768   5.316   1.326 -0.5655 -0.1805  0.4054
 2382TIP3   OH228560   3.756   6.705  16.866  0.9090 -0.3298 -0.2800
 2382TIP3    H128561   3.676   6.704  16.813  0.4439  0.3188  0.4029
 2382TIP3    H228562   3.733   6.656  16.945  1.2124 -0.1954 -0.1080
 2383TIP3   OH228563   0.665   4.730  17.054  0.2365  0.3664 -0.3400
 2383TIP3    H128564   0.584   4.768  17.087  0.6526  0.6089  0.4336
 2383TIP3    H228565   0.724   4.805  17.043  1.2363 -0.0489  1.6913
 2384TIP3   OH228566   6.203   5.599   3.854  0.0864 -0.3485  0.2046
 2384TIP3    H128567   6.169   5.575   3.940  1.9808  0.9284  1.3853
 2384TIP3    H228568   6.186   5.693   3.847  1.1379 -0.1710 -0.2044
 2385TIP3   OH228569   2.785   5.221  14.004 -0.2542 -0.5256 -0.1840
 2385TIP3    H128570   2.818   5.171  14.078  1.1113  0.0302 -0.3877
 2385TIP3    H228571   2.792   5.162  13.929 -1.6792 -1.1036  0.1094
 2386TIP3   OH228572   1.054   4.747   2.422 -0.1946  0.5063  0.7638
 2386TIP3    H128573   1.038   4.673   2.480 -0.7482 -0.9520 -1.1349
 2386TIP3    H228574   1.149   4.762   2.428  0.4085 -2.0749 -0.6681
 2387TIP3   OH228575   1.994   2.056  13.733 -0.3398  1.1725 -0.1484
 2387TIP3    H128576   1.980   1.962  13.735  0.4744  1.0467 -0.3105
 2387TIP3    H228577   1.921   2.092  13.784 -0.2899  0.4148  0.4669
 2388TIP3   OH228578   2.913   6.565  16.439  0.7677 -0.5700 -0.2247
 2388TIP3    H128579   2.926   6.630  16.508  0.4952  0.9407 -1.5475
 2388TIP3    H228580   2.883   6.487  16.486  0.4039  0.4601  1.3465
 2389TIP3   OH228581   2.291   0.288  17.085  0.4012 -0.3724  0.0184
 2389TIP3    H128582   2.312   0.377  17.113  0.1742  0.0182 -0.9972
 2389TIP3    H228583   2.200   0.275  17.109 -0.3091  0.5731 -1.9388
 2390TIP3   OH228584   5.687   6.571  13.855 -0.5667  0.2204 -0.0547
 2390TIP3    H128585   5.634   6.492  13.869 -1.0001  0.5078 -0.0687
 2390TIP3    H228586   5.694   6.611  13.941  0.0027 -0.0490  0.0280
 2391TIP3   OH228587   4.166   3.409   6.473  0.4007 -0.1533 -0.3946
 2391TIP3    H128588   4.211   3.358   6.406  1.0219  0.4206 -0.4252
 2391TIP3    H228589   4.079   3.369   6.479  0.5015 -0.5106 -1.1975
 2392TIP3   OH228590   0.282   3.492   1.935  0.1360  0.0826 -0.6232
 2392TIP3    H128591   0.229   3.563   1.970  1.0682  0.6510 -0.3197
 2392TIP3    H228592   0.370   3.530   1.927  0.7017 -1.1129 -0.2288
 2393TIP3   OH228593   3.595   3.662   2.172  0.2600  0.0051 -0.4744
 2393TIP3    H128594   3.547   3.743   2.189  0.6832  0.0983  0.3544
 2393TIP3    H228595   3.588   3.613   2.255  0.5240 -0.5319 -0.7633
 2394TIP3   OH228596   1.521   4.868   4.403  0.2992  0.0699  0.7557
 2394TIP3    H128597   1.552   4.913   4.482  0.2542  0.9537  0.2850
 2394TIP3    H228598   1.602   4.846   4.356  0.2884  0.5906  0.4889
 2395TIP3   OH228599   5.936   2.157  13.259 -0.1671  0.2642 -0.2639
 2395TIP3    H128600   5.872   2.206  13.208 -0.3566  0.5443  0.2295
 2395TIP3    H228601   5.986   2.107  13.195 -2.0123 -1.3289 -0.5937
 2396TIP3   OH228602   1.926   4.768   4.999 -0.6048 -0.1194  0.2632
 2396TIP3    H128603   2.019   4.775   5.016 -0.4569 -1.1250 -0.0564
 2396TIP3    H228604   1.915   4.809   4.912 -0.3731 -0.4867  0.0591
 2397TIP3   OH228605   0.445   4.993  14.653  0.2347 -0.4285  0.1786
 2397TIP3    H128606   0.374   5.044  14.616  0.0272 -0.4699  0.5185
 2397TIP3    H228607   0.520   5.011  14.595  0.2562  0.5160  0.4769
 2398TIP3   OH228608   5.047   4.605  11.163 -0.6020 -0.5553  0.0647
 2398TIP3    H128609   5.001   4.522  11.157 -1.0226 -0.2521 -1.1788
 2398TIP3    H228610   5.101   4.597  11.242 -0.8306 -1.8924  0.1075
 2399TIP3   OH228611   5.338   2.613   1.930 -0.1403  0.5726 -0.6562
 2399TIP3    H128612   5.390   2.603   2.010 -1.5724  0.3727  0.2756
 2399TIP3    H228613   5.338   2.526   1.890 -1.5364  0.0268  0.4800
 2400TIP3   OH228614   3.614   4.524   0.164  0.0074  0.2385  0.6749
 2400TIP3    H128615   3.589   4.509   0.255  0.3454  1.4395  0.9921
 2400TIP3    H228616   3.670   4.602   0.168  1.4090 -0.6775 -0.3576
 2401TIP3   OH228617   4.706   3.259  15.416  0.0766  0.4160 -0.0143
 2401TIP3    H128618   4.660   3.332  15.375  1.5765  0.1466 -2.3470
 2401TIP3    H228619   4.791   3.296  15.441  0.2075 -0.1255  0.3519
 2402TIP3   OH228620   1.330   1.897   2.897  0.0170 -0.0713 -0.0381
 2402TIP3    H128621   1.372   1.826   2.850  1.9193  0.4150  0.7951
 2402TIP3    H228622   1.280   1.944   2.831 -1.9277 -2.5736 -0.4544
 2403TIP3   OH228623   4.365   3.667  12.814  0.2888  0.2819 -0.2953
 2403TIP3    H128624   4.362   3.634  12.724  0.3291 -1.1980  0.2256
 2403TIP3    H228625   4.275   3.694  12.833 -0.4251 -2.1664  0.1737
 2404TIP3   OH228626   4.875   3.476   0.744  0.1379 -0.1300 -0.0435
 2404TIP3    H128627   4.920   3.397   0.774 -1.0473 -1.1967 -0.9516
 2404TIP3    H228628   4.876   3.469   0.649 -0.2058  0.8397 -0.1289
 2405TIP3   OH228629   5.737   3.587  16.356 -0.0971 -0.1173 -0.0660
 2405TIP3    H128630   5.772   3.557  16.440 -0.2695 -0.8176 -0.2347
 2405TIP3    H228631   5.783   3.533  16.291 -0.5379 -0.1304 -0.3694
 2406TIP3   OH228632   6.562   1.872  13.716 -0.4195  0.5834 -0.6662
 2406TIP3    H128633   6.623   1.943  13.734  0.1095  0.0817 -0.4307
 2406TIP3    H228634   6.583   1.844  13.626  1.1516 -0.9422  0.0925
 2407TIP3   OH228635   2.692   0.686  15.945  0.2730 -0.3550 -0.2101
 2407TIP3    H128636   2.641   0.611  15.913 -0.3139  0.2165 -0.6526
 2407TIP3    H228637   2.683   0.752  15.876 -0.6457  0.7499  0.9136
 2408TIP3   OH228638   3.447   6.761   2.546 -0.1138  0.2370 -0.3261
 2408TIP3    H128639   3.351   6.754   2.542 -0.1257  0.4846 -3.1857
 2408TIP3    H228640   3.477   6.671   2.540 -0.1546  0.1867  0.1783
 2409TIP3   OH228641   0.193   6.391  17.091 -0.0975  0.2115 -0.1997
 2409TIP3    H128642   0.260   6.351  17.036  1.2323  2.1123 -0.0650
 2409TIP3    H228643   0.143   6.446  17.031 -1.1032 -0.6621 -0.1710
 2410TIP3   OH228644   6.044   3.875   2.313 -0.3862  0.4723  0.0023
 2410TIP3    H128645   6.057   3.950   2.371  1.9412  0.0774  0.0727
 2410TIP3    H228646   6.064   3.798   2.366 -0.6551 -0.0689 -0.6533
 2411TIP3   OH228647   3.747   4.246  15.868 -0.6128 -0.2736 -0.0544
 2411TIP3    H128648   3.676   4.234  15.931 -0.4855 -1.0508 -0.0391
 2411TIP3    H228649   3.722   4.322  15.817 -1.3514 -0.4108  0.0906
 2412TIP3   OH228650   6.742   2.200   2.308  0.1212 -0.4039 -0.0388
 2412TIP3    H128651   6.673   2.257   2.275 -0.3641 -1.2872 -0.5952
 2412TIP3    H228652   6.698   2.140   2.369  1.1841  2.0532  3.5179
 2413TIP3   OH228653   5.752   6.162   3.546 -0.1700 -0.3642  0.0421
 2413TIP3    H128654   5.829   6.190   3.596 -0.1835  0.3051 -0.3010
 2413TIP3    H228655   5.751   6.220   3.470 -0.2313 -1.2840 -0.6650
 2414TIP3   OH228656   2.348   4.669   0.252 -0.0099  0.3406 -0.1983
 2414TIP3    H128657   2.339   4.593   0.195 -0.3458 -0.2630  0.6548
 2414TIP3    H228658   2.294   4.736   0.210  0.8643  0.3663 -1.3448
 2415TIP3   OH228659   5.864   4.789   3.561  0.0096 -0.3554  0.0315
 2415TIP3    H128660   5.809   4.742   3.498  0.2660  1.2232 -1.4666
 2415TIP3    H228661   5.806   4.810   3.634 -0.9120 -0.2904 -0.6991
 2416TIP3   OH228662   4.680   6.420   1.128  0.3998 -0.2276  0.0172
 2416TIP3    H128663   4.744   6.377   1.071 -0.2311 -3.0883  1.3017
 2416TIP3    H228664   4.646   6.350   1.183 -1.6627  1.7581  1.4475
 2417TIP3   OH228665   2.114   5.615   5.872  0.0898  0.2975  0.0183
 2417TIP3    H128666   2.197   5.655   5.900  1.4400 -1.9959 -0.4672
 2417TIP3    H228667   2.092   5.554   5.942  1.1976 -2.2967 -1.7426
 2418TIP3   OH228668   4.535   5.083   4.399 -0.0371  0.0031 -0.4302
 2418TIP3    H128669   4.467   5.151   4.388  0.6945  1.1406  1.5053
 2418TIP3    H228670   4.485   5.003   4.414 -0.9281  0.1212 -2.3500
 2419TIP3   OH228671   3.165   2.471   3.174 -0.3331 -0.1474 -0.1743
 2419TIP3    H128672   3.250   2.428   3.159 -0.3370  0.5577 -2.4908
 2419TIP3    H228673   3.188   2.554   3.217 -0.2298 -1.6592  3.0111
 2420TIP3   OH228674   0.740   0.931   2.250 -0.4789 -0.0766 -0.4894
 2420TIP3    H128675   0.696   0.976   2.322  0.0479 -0.0970 -0.1480
 2420TIP3    H228676   0.798   0.998   2.212 -0.4688 -0.1733 -0.6467
 2421TIP3   OH228677   2.497   2.701  13.404  0.3571  0.6537  0.0852
 2421TIP3    H128678   2.410   2.690  13.442  0.5648  1.0435  0.6784
 2421TIP3    H228679   2.480   2.737  13.316 -0.1744 -1.3763 -0.6991
 2422TIP3   OH228680   6.253   3.026   0.788  0.4361  0.4250  0.1577
 2422TIP3    H128681   6.301   2.944   0.792 -1.5262 -0.7336  2.7858
 2422TIP3    H228682   6.257   3.061   0.877 -3.2735  0.3367  0.5275
 2423TIP3   OH228683   1.710   0.054   2.721  0.3727 -0.1159 -0.2277
 2423TIP3    H128684   1.615   0.049   2.732  0.3161  0.9218 -0.1076
 2423TIP3    H228685   1.724   0.040   2.628  0.1721 -1.0127 -0.1329
 2424TIP3   OH228686   3.466   4.803   4.990 -0.2541  0.3572 -0.3437
 2424TIP3    H128687   3.561   4.795   4.995 -0.3136 -0.9871 -0.7487
 2424TIP3    H228688   3.434   4.755   5.066 -0.6002  3.1757  1.4146
 2425TIP3   OH228689   5.647   0.214  16.881  0.1332  0.6398 -0.3257
 2425TIP3    H128690   5.700   0.270  16.938 -0.2383  0.0407  0.6209
 2425TIP3    H228691   5.690   0.129  16.883 -2.1321 -0.6327  2.5107
 2426TIP3   OH228692   6.743   4.429  15.025 -0.9357 -0.3525  0.8763
 2426TIP3    H128693   6.659   4.474  15.037 -0.8153  0.0785  0.1611
 2426TIP3    H228694   6.748   4.412  14.931  0.4868  1.0708  0.6339
 2427TIP3   OH228695   2.843   4.024   2.515  0.4214  0.1631  0.1764
 2427TIP3    H128696   2.814   4.028   2.606  2.0205  1.0281  0.6872
 2427TIP3    H228697   2.938   4.027   2.520  0.6402 -1.7112 -1.4548
 2428TIP3   OH228698   5.301   2.520  14.237 -0.4154 -0.5282  0.3978
 2428TIP3    H128699   5.237   2.562  14.295 -0.8485  0.8124 -0.9976
 2428TIP3    H228700   5.254   2.507  14.154  0.4774 -1.5340  0.0145
 2429TIP3   OH228701   4.200   2.765   4.044  0.1348  0.1410 -0.2548
 2429TIP3    H128702   4.250   2.737   3.968  0.7348  0.3556  0.0480
 2429TIP3    H228703   4.119   2.802   4.009  1.1518  1.8467 -0.9151
 2430TIP3   OH228704   4.124   4.796   4.143 -0.3245  0.5380 -0.3562
 2430TIP3    H128705   4.097   4.785   4.052  1.3532 -2.5256 -0.5910
 2430TIP3    H228706   4.158   4.711   4.169 -0.9170  1.2472  3.2514
 2431TIP3   OH228707   5.722   6.502  16.841  0.1161 -0.0282  0.0901
 2431TIP3    H128708   5.686   6.413  16.837  1.3740 -0.7092  2.2986
 2431TIP3    H228709   5.802   6.493  16.893  0.7128  2.2827 -0.3184
 2432TIP3   OH228710   5.941   0.218  15.638 -0.1083  0.2949  0.1383
 2432TIP3    H128711   5.991   0.146  15.677  0.4425  1.4742  1.6907
 2432TIP3    H228712   5.849   0.191  15.647  0.1330 -0.9119 -0.7709
 2433TIP3   OH228713   6.021   5.998  16.965 -0.8700 -0.1936 -0.0211
 2433TIP3    H128714   6.005   6.003  17.060 -2.8423 -2.0583 -0.1695
 2433TIP3    H228715   6.059   5.911  16.953 -0.1774  0.2261 -0.9052
 2434TIP3   OH228716   5.265   3.272  13.593 -0.0453 -0.4589 -0.2569
 2434TIP3    H128717   5.282   3.356  13.551  2.4588 -0.0553  1.3433
 2434TIP3    H228718   5.200   3.292  13.660  0.2207  0.1190 -0.1657
 2435TIP3   OH228719   4.805   6.115   4.775  1.0843  0.2401 -0.1349
 2435TIP3    H128720   4.719   6.089   4.743  0.8472  1.4104 -0.4830
 2435TIP3    H228721   4.842   6.035   4.814 -0.8211  0.0867  1.5222
 2436TIP3   OH228722   1.357   4.702  11.239  0.1069  0.0272 -0.0858
 2436TIP3    H128723   1.392   4.752  11.165  0.4649  3.0694  1.9380
 2436TIP3    H228724   1.283   4.654  11.203  0.8401  0.6475 -2.5893
 2437TIP3   OH228725   1.891   3.142  13.343 -0.2487 -0.1437 -0.5873
 2437TIP3    H128726   1.984   3.126  13.329 -0.3706 -0.5974 -0.8903
 2437TIP3    H228727   1.888   3.216  13.404  0.2947  0.5674 -1.4029
 2438TIP3   OH228728   1.055   2.873  12.226 -0.6852 -0.4274 -0.1629
 2438TIP3    H128729   1.010   2.931  12.288 -1.6910 -0.1435 -1.1165
 2438TIP3    H228730   1.147   2.876  12.253 -0.2352  3.4975 -1.5138
 2439TIP3   OH228731   4.524   2.650   3.425  0.2937 -0.1372 -0.2990
 2439TIP3    H128732   4.466   2.583   3.388  1.3002 -1.3915  0.3247
 2439TIP3    H228733   4.501   2.730   3.378 -1.3634 -0.7763 -0.6467
 2440TIP3   OH228734   4.083   0.052   3.642 -0.6931  0.0151 -0.1604
 2440TIP3    H128735   3.990   0.071   3.628 -1.3738 -2.2744  0.8596
 2440TIP3    H228736   4.127   0.094   3.568 -2.6057  0.5472 -1.0635
 2441TIP3   OH228737   5.753   1.238  15.359  0.7319  0.1072  0.5344
 2441TIP3    H128738   5.729   1.149  15.383  0.9473  0.5646  2.6168
 2441TIP3    H228739   5.846   1.245  15.381  1.3976  0.1323 -1.9771
 2442TIP3   OH228740   0.953   4.546  13.348  0.1860 -0.4725 -0.0178
 2442TIP3    H128741   0.961   4.477  13.282  1.0918 -1.2355  0.8525
 2442TIP3    H228742   0.862   4.541  13.377 -0.4395  0.3845 -1.7242
 2443TIP3   OH228743   4.441   0.709   3.401  0.1046 -0.0234 -0.4996
 2443TIP3    H128744   4.384   0.680   3.329  1.2028 -1.4558 -0.8270
 2443TIP3    H228745   4.383   0.761   3.457 -1.0463  0.2180 -1.8296
 2444TIP3   OH228746   6.347   1.009  13.372 -0.3005 -0.1226 -0.2171
 2444TIP3    H128747   6.352   0.939  13.437  2.5961  0.8800  0.8451
 2444TIP3    H228748   6.383   0.971  13.292  0.1551 -0.1864  0.0174
 2445TIP3   OH228749   4.825   3.234   4.106  0.0575 -0.5142 -0.4734
 2445TIP3    H128750   4.854   3.157   4.154  0.3950  0.5545  1.1164
 2445TIP3    H228751   4.842   3.307   4.165  1.9697  1.0991 -2.8025
 2446TIP3   OH228752   1.753   3.262  16.910  0.4080  0.1572  0.0252
 2446TIP3    H128753   1.712   3.327  16.853  0.2866 -0.8333 -1.0671
 2446TIP3    H228754   1.705   3.181  16.891  1.8822 -0.7008 -0.1687
 2447TIP3   OH228755   0.650   5.779  16.942  0.4829 -0.3176  0.4086
 2447TIP3    H128756   0.745   5.792  16.945  0.7810 -1.1502 -2.5356
 2447TIP3    H228757   0.637   5.710  16.878 -2.1699  0.0508  0.4366
 2448TIP3   OH228758   2.716   5.609  11.286  0.0553 -0.0818  0.1100
 2448TIP3    H128759   2.751   5.529  11.248 -1.3547 -0.4218 -0.5237
 2448TIP3    H228760   2.707   5.669  11.212  0.0256  0.2718  0.3957
 2449TIP3   OH228761   4.017   2.498  15.579  0.7194 -0.5526  0.1692
 2449TIP3    H128762   4.082   2.444  15.623 -0.4373 -1.5829  0.6851
 2449TIP3    H228763   3.960   2.529  15.649  0.1659 -0.3681 -0.3547
 2450TIP3   OH228764   3.459   5.891  12.068 -0.8289  0.1688  0.4970
 2450TIP3    H128765   3.488   5.922  11.982 -1.6941  0.2679  0.2340
 2450TIP3    H228766   3.364   5.886  12.061 -1.2628  3.0924  2.4024
 2451TIP3   OH228767   4.956   5.829  14.481 -0.2150 -0.3847  0.0185
 2451TIP3    H128768   5.028   5.852  14.423  0.0612 -1.3240 -0.0358
 2451TIP3    H228769   4.992   5.760  14.538 -1.0740 -0.9002 -0.0415
 2452TIP3   OH228770   4.341   5.885   2.965 -0.4210 -0.7688  0.3149
 2452TIP3    H128771   4.256   5.841   2.957 -1.0175  0.1211  1.5034
 2452TIP3    H228772   4.349   5.906   3.057  0.2971  0.7192 -0.0619
 2453TIP3   OH228773   2.708   3.041  11.679 -0.5254 -0.2700 -0.1305
 2453TIP3    H128774   2.755   2.965  11.645 -0.9641 -1.1048  1.0883
 2453TIP3    H228775   2.710   3.104  11.607 -0.6225 -1.6255 -1.3629
 2454TIP3   OH228776   0.979   6.459   2.504  0.8362  0.3557  0.3149
 2454TIP3    H128777   1.031   6.532   2.536  0.0296  0.2012  2.1200
 2454TIP3    H228778   1.029   6.381   2.528  0.2930  0.2430  1.1430
 2455TIP3   OH228779   4.642   5.423   3.294  0.3675  0.1118  0.0688
 2455TIP3    H128780   4.645   5.368   3.372  0.9969  1.1907  0.8291
 2455TIP3    H228781   4.585   5.375   3.233 -0.5978 -0.4894  1.3904
 2456TIP3   OH228782   1.913   5.264  12.568 -0.4361 -0.3669 -0.2340
 2456TIP3    H128783   1.950   5.339  12.522 -1.5306 -0.7163 -1.7609
 2456TIP3    H228784   1.840   5.236  12.513 -1.7617 -0.8680  1.7064
 2457TIP3   OH228785   1.264   5.348   0.789  0.3549 -0.1866 -0.1083
 2457TIP3    H128786   1.275   5.305   0.704 -0.7932 -0.3249 -0.2035
 2457TIP3    H228787   1.202   5.292   0.836  0.9312 -0.0769  0.8020
 2458TIP3   OH228788   1.346   6.387  11.597 -0.3774  0.0186  0.3733
 2458TIP3    H128789   1.276   6.452  11.587  0.9258  1.2207 -1.7170
 2458TIP3    H228790   1.401   6.422  11.668  0.7525  1.7391 -1.2510
 2459TIP3   OH228791   6.419   3.238   3.528 -0.1491 -0.1259  0.5077
 2459TIP3    H128792   6.368   3.174   3.479  0.8511  0.5364 -1.5046
 2459TIP3    H228793   6.384   3.323   3.501  1.1400  0.2942  0.0887
 2460TIP3   OH228794   1.487   2.525  10.676  0.2672  0.3542 -0.2673
 2460TIP3    H128795   1.546   2.596  10.653  0.1716  0.4980 -0.0720
 2460TIP3    H228796   1.467   2.540  10.769 -1.4121  1.2656 -0.7361
 2461TIP3   OH228797   0.716   2.485  15.591  0.7729 -0.1548  0.4743
 2461TIP3    H128798   0.669   2.549  15.645 -0.8534 -0.4378 -0.5411
 2461TIP3    H228799   0.671   2.402  15.606  1.4312 -0.6018  0.0523
 2462TIP3   OH228800   5.056   3.183  11.626  0.5559  0.9399 -0.0585
 2462TIP3    H128801   4.962   3.179  11.644  0.1436  0.6541 -2.0681
 2462TIP3    H228802   5.084   3.092  11.618  0.8945  1.0359 -0.0045
 2463TIP3   OH228803   1.479   5.403  16.390 -0.1526  0.4625  0.1952
 2463TIP3    H128804   1.531   5.403  16.310  1.1697 -0.1919  1.0087
 2463TIP3    H228805   1.402   5.351  16.369 -0.5840  1.5415 -1.0740
 2464TIP3   OH228806   1.841   2.863   0.884  0.0465  0.6707 -0.1685
 2464TIP3    H128807   1.859   2.927   0.816 -0.1817  0.7383 -0.1679
 2464TIP3    H228808   1.826   2.915   0.963 -1.6134  0.7288 -0.4741
 2465TIP3   OH228809   4.573   3.601  13.340 -0.5544  0.4127 -0.0524
 2465TIP3    H128810   4.503   3.657  13.373 -0.0540  1.4350 -0.6778
 2465TIP3    H228811   4.549   3.583  13.249 -0.7385 -0.4477  0.1572
 2466TIP3   OH228812   5.773   0.499   0.278  0.2083  0.0897  0.1623
 2466TIP3    H128813   5.731   0.546   0.351 -0.2907  0.0513 -0.0948
 2466TIP3    H228814   5.716   0.515   0.203 -0.2078 -1.2591  0.1543
 2467TIP3   OH228815   1.210   4.972  12.251  0.1103 -0.3046  0.4702
 2467TIP3    H128816   1.124   4.961  12.293  1.2443 -0.2529  3.0036
 2467TIP3    H228817   1.228   5.065  12.257 -0.1168 -0.1215 -1.1584
 2468TIP3   OH228818   2.953   2.543  12.930  0.1459 -0.0225  0.5469
 2468TIP3    H128819   2.938   2.508  13.018  0.2234  0.1380  0.6241
 2468TIP3    H228820   3.049   2.543  12.921  0.1567  0.3870  0.6363
 2469TIP3   OH228821   3.302   2.397   0.813 -0.1319  0.3296  0.1595
 2469TIP3    H128822   3.299   2.470   0.873  0.9734  0.6794 -0.1822
 2469TIP3    H228823   3.227   2.343   0.836 -0.1072  0.8042  1.3905
 2470TIP3   OH228824   0.131   6.577  16.513 -0.1884 -0.3055  0.4048
 2470TIP3    H128825   0.118   6.483  16.526 -3.3525 -0.3135 -1.8108
 2470TIP3    H228826   0.088   6.596  16.430  0.8781  3.0565  0.4773
 2471TIP3   OH228827   3.320   2.831  12.481 -0.1669 -0.1677  0.2663
 2471TIP3    H128828   3.260   2.906  12.481  0.6523  0.5025  0.6838
 2471TIP3    H228829   3.267   2.758  12.449 -0.9523  0.6138 -0.2606
 2472TIP3   OH228830   4.382   2.290  15.989 -0.2460 -0.3809 -0.0861
 2472TIP3    H128831   4.389   2.200  16.019 -0.5048 -0.9836 -1.7358
 2472TIP3    H228832   4.440   2.295  15.914 -1.8461  0.2099 -1.3388
 2473TIP3   OH228833   0.662   5.429   2.295 -0.4198 -0.0769 -0.4269
 2473TIP3    H128834   0.593   5.402   2.355 -0.5500  0.4992 -0.3118
 2473TIP3    H228835   0.742   5.423   2.346 -0.1914 -2.0185 -0.9403
 2474TIP3   OH228836   5.645   6.794   0.987  0.1689 -0.5041  0.3323
 2474TIP3    H128837   5.630   6.713   0.938  0.4642 -0.2764 -0.1377
 2474TIP3    H228838   5.641   6.863   0.921 -0.1932 -0.1179  0.7457
 2475TIP3   OH228839   1.892   5.580   5.522 -0.3101  0.2355  0.3730
 2475TIP3    H128840   1.904   5.644   5.592  1.2528 -2.3283  2.6880
 2475TIP3    H228841   1.814   5.530   5.549 -0.2464 -0.1815 -0.1974
 2476TIP3   OH228842   6.318   3.153   2.401 -0.3636 -0.6365 -0.0986
 2476TIP3    H128843   6.324   3.098   2.479  0.2191 -1.3507 -0.6358
 2476TIP3    H228844   6.225   3.177   2.396 -0.0567  1.4413  2.1615
 2477TIP3   OH228845   2.208   0.931  15.059  0.5409  0.1659 -0.3765
 2477TIP3    H128846   2.232   0.950  14.968  0.0209  1.2040 -0.3127
 2477TIP3    H228847   2.290   0.940  15.108  0.5815  0.8750 -0.5675
 2478TIP3   OH228848   0.953   4.013  16.548  0.2630 -0.6243  0.4104
 2478TIP3    H128849   1.006   4.016  16.468  1.3549 -0.2657  1.1274
 2478TIP3    H228850   0.988   4.083  16.603 -1.7540  0.4126  0.4456
 2479TIP3   OH228851   0.157   6.734   4.454 -0.3210  0.1608 -0.0711
 2479TIP3    H128852   0.171   6.640   4.443  0.2356  0.2731 -0.3329
 2479TIP3    H228853   0.127   6.744   4.544  0.6219 -0.1564  0.2794
 2480TIP3   OH228854   4.256   6.651  15.937 -0.0282 -0.0850  0.0742
 2480TIP3    H128855   4.240   6.597  16.014  1.4702 -0.9371 -0.1693
 2480TIP3    H228856   4.278   6.737  15.971 -2.3400  0.3998  0.4747
 2481TIP3   OH228857   2.666   2.978   4.694  0.2413 -0.8435  0.2604
 2481TIP3    H128858   2.687   3.071   4.690  0.2452 -0.7970  1.0958
 2481TIP3    H228859   2.571   2.974   4.679  0.0932 -0.6147  1.0713
 2482TIP3   OH228860   3.485   5.206  14.527 -0.6861 -0.4630  0.1377
 2482TIP3    H128861   3.393   5.186  14.512 -1.0957  0.6536  1.0810
 2482TIP3    H228862   3.496   5.205  14.622 -0.0335  0.6486  0.0995
 2483TIP3   OH228863   4.908   0.756  11.432 -0.3056 -0.4626  0.7778
 2483TIP3    H128864   4.921   0.676  11.485 -0.2180 -1.2373 -0.3780
 2483TIP3    H228865   4.993   0.771  11.391 -0.9095 -1.1104 -0.7965
 2484TIP3   OH228866   1.230   6.701  15.269  0.1868 -0.0458  0.0223
 2484TIP3    H128867   1.234   6.765  15.341 -0.6251  0.5718 -0.4626
 2484TIP3    H228868   1.182   6.627  15.305 -1.1746  0.7045 -0.1847
 2485TIP3   OH228869   6.482   0.546   1.257  0.3452 -0.0125 -0.1139
 2485TIP3    H128870   6.477   0.640   1.239 -0.5233  0.3132  1.6244
 2485TIP3    H228871   6.573   0.531   1.281  0.1654  0.7130  1.0975
 2486TIP3   OH228872   5.114   5.273  16.853  0.2805 -0.5922 -0.0139
 2486TIP3    H128873   5.167   5.214  16.907  1.1127 -1.1663 -1.4046
 2486TIP3    H228874   5.027   5.270  16.893  1.0190 -0.4888  1.6620
 2487TIP3   OH228875   3.403   2.915  13.567 -0.0581 -0.1630 -0.5183
 2487TIP3    H128876   3.346   2.900  13.492 -0.7614 -0.9458  0.1504
 2487TIP3    H228877   3.345   2.913  13.643  0.7956 -0.6230  0.1511
 2488TIP3   OH228878   2.551   4.872  16.503 -0.1434 -0.0040  0.1977
 2488TIP3    H128879   2.599   4.800  16.464  1.0348  0.7344  0.2441
 2488TIP3    H228880   2.618   4.937  16.525 -1.1917  1.2074 -0.0665
 2489TIP3   OH228881   2.817   3.779  10.423  0.0693  0.3077  0.0272
 2489TIP3    H128882   2.787   3.727  10.498  0.1633  0.1126 -0.0691
 2489TIP3    H228883   2.750   3.767  10.356 -0.4010  1.0969  0.3427
 2490TIP3   OH228884   1.894   3.729  11.635 -0.4782 -0.3461  0.0492
 2490TIP3    H128885   1.939   3.779  11.568 -0.8352  1.0118  0.7775
 2490TIP3    H228886   1.953   3.730  11.710 -1.0712  0.1974  0.5265
 2491TIP3   OH228887   5.108   1.331   4.787  0.6560  0.0100 -0.5263
 2491TIP3    H128888   5.074   1.245   4.760  0.9850 -0.9378  1.7915
 2491TIP3    H228889   5.203   1.320   4.785  0.7586  0.9369 -1.9104
 2492TIP3   OH228890   2.376   4.955  16.059 -0.0399 -0.2816  0.0718
 2492TIP3    H128891   2.319   4.979  15.986 -0.0597 -0.5130  0.0097
 2492TIP3    H228892   2.395   5.038  16.103 -2.8296 -0.4512  1.8772
 2493TIP3   OH228893   1.411   6.251  13.161 -0.4063  0.1523 -0.0201
 2493TIP3    H128894   1.505   6.236  13.173 -0.0391  2.7462  1.0157
 2493TIP3    H228895   1.369   6.185  13.217  0.7129 -1.6346 -1.1872
 2494TIP3   OH228896   3.980   1.472   2.411  0.7028  0.4004  0.0298
 2494TIP3    H128897   3.935   1.450   2.493 -0.2901 -1.9504 -1.0446
 2494TIP3    H228898   4.066   1.502   2.439  0.5994 -0.8770  1.9328
 2495TIP3   OH228899   0.408   1.731  13.193 -0.1417 -0.3886  0.4105
 2495TIP3    H128900   0.403   1.774  13.278 -0.8380  0.7102 -0.1747
 2495TIP3    H228901   0.430   1.640  13.214  0.1060 -0.0448  1.7330
 2496TIP3   OH228902   1.508   2.064   5.621  0.5239 -0.0535  0.1705
 2496TIP3    H128903   1.466   2.041   5.538  0.3773  0.2029  0.1720
 2496TIP3    H228904   1.452   2.024   5.688 -0.8254  1.8614  0.2764
 2497TIP3   OH228905   1.348   1.585  12.730  0.3774  0.4928 -0.6431
 2497TIP3    H128906   1.417   1.587  12.796 -0.3859  0.0003  0.1871
 2497TIP3    H228907   1.309   1.673  12.733  0.1531  0.3813 -0.2236
 2498TIP3   OH228908   2.127   3.934   1.030 -0.0040  0.1239 -0.7272
 2498TIP3    H128909   2.132   3.847   1.069  0.8078  0.2425 -0.5490
 2498TIP3    H228910   2.040   3.966   1.055  0.0639 -0.2521  0.0236
 2499TIP3   OH228911   1.646   0.611   5.360 -0.3756 -0.0617 -0.1264
 2499TIP3    H128912   1.664   0.551   5.288  1.4380  0.6172 -0.2823
 2499TIP3    H228913   1.555   0.638   5.347 -0.5087 -1.0365 -1.3325
 2500TIP3   OH228914   5.397   2.527   6.336  0.5575  0.2086 -0.3898
 2500TIP3    H128915   5.448   2.607   6.346 -0.0040  0.5786 -0.4281
 2500TIP3    H228916   5.316   2.544   6.384  1.2556 -1.0990  1.3488
 2501TIP3   OH228917   3.802   0.948  15.645  0.7048 -0.5368 -0.1303
 2501TIP3    H128918   3.746   0.965  15.721 -2.6985  0.8047 -2.6844
 2501TIP3    H228919   3.808   0.852  15.641 -1.3631 -0.7546  0.3910
 2502TIP3   OH228920   5.833   4.428  15.028 -0.2085 -0.4192  0.3931
 2502TIP3    H128921   5.786   4.492  14.974 -0.0404 -0.6364 -0.0141
 2502TIP3    H228922   5.908   4.402  14.974  3.0142  3.1688  2.6052
 2503TIP3   OH228923   0.813   4.481   2.301  0.0396  0.1158  0.2494
 2503TIP3    H128924   0.896   4.460   2.344 -0.6060 -0.2289  1.3862
 2503TIP3    H228925   0.751   4.490   2.373 -0.5985  1.9202 -0.4736
 2504TIP3   OH228926   3.751   0.026   1.033 -0.1263  0.7470  0.1261
 2504TIP3    H128927   3.777  -0.066   1.037  0.3557  0.9243  1.7268
 2504TIP3    H228928   3.737   0.051   1.124 -1.6783  1.8759 -0.3716
 2505TIP3   OH228929   1.477   1.291   0.206  0.3757 -0.1602  0.4187
 2505TIP3    H128930   1.458   1.198   0.194  1.8124 -0.6500  1.6265
 2505TIP3    H228931   1.410   1.336   0.155  0.3441 -1.8649 -1.1541
 2506TIP3   OH228932   3.856   0.130  16.748 -0.8296 -0.5956 -0.2206
 2506TIP3    H128933   3.844   0.043  16.788 -1.1589 -0.5145 -0.1414
 2506TIP3    H228934   3.949   0.149  16.761 -0.6941 -1.0604 -0.4928
 2507TIP3   OH228935   4.783   3.470  13.091 -0.3136 -0.5831  0.0984
 2507TIP3    H128936   4.780   3.475  12.995  0.7565 -1.2227  0.0130
 2507TIP3    H228937   4.739   3.388  13.112 -1.0142 -0.1904  0.2035
 2508TIP3   OH228938   4.748   1.102   2.120  0.4065 -1.0873 -0.1779
 2508TIP3    H128939   4.720   1.143   2.038  1.3908 -2.5731 -1.2970
 2508TIP3    H228940   4.796   1.024   2.093  0.2722 -1.9266  1.8348
 2509TIP3   OH228941   1.242   2.477  13.669  0.4507 -0.0485 -0.3304
 2509TIP3    H128942   1.167   2.505  13.721 -1.4263 -2.5861 -1.4672
 2509TIP3    H228943   1.294   2.423  13.729 -0.2275 -0.6799 -0.2939
 2510TIP3   OH228944   5.283   0.914  14.944 -0.1244 -0.2290  0.4477
 2510TIP3    H128945   5.356   0.940  14.999 -0.8833  0.7385  1.0147
 2510TIP3    H228946   5.301   0.954  14.859 -0.6980  1.2386  0.9897
 2511TIP3   OH228947   5.095   4.027   6.192  0.6996 -0.1363  0.2642
 2511TIP3    H128948   5.120   4.118   6.209 -1.1989  0.8987 -1.9240
 2511TIP3    H228949   5.019   4.012   6.249  0.8871 -0.2892  0.4748
 2512TIP3   OH228950   6.664   3.386   4.825  0.0282  0.1635  0.0289
 2512TIP3    H128951   6.692   3.401   4.734 -1.5778  1.6773 -0.2582
 2512TIP3    H228952   6.643   3.293   4.828  1.3972 -0.2051 -0.7564
 2513TIP3   OH228953   3.240   1.886  15.244 -0.5245  0.3324  0.5192
 2513TIP3    H128954   3.236   1.796  15.278 -0.9369  0.4028  0.6570
 2513TIP3    H228955   3.148   1.911  15.232 -0.4780  1.3257  2.0057
 2514TIP3   OH228956   4.496   2.635   0.592  0.2094 -0.2038 -0.4291
 2514TIP3    H128957   4.422   2.618   0.534 -2.2416 -1.6170  2.7853
 2514TIP3    H228958   4.542   2.551   0.598  1.1589  0.2481 -1.1784
 2515TIP3   OH228959   5.705   1.355  16.679  0.1410 -0.2433 -0.6608
 2515TIP3    H128960   5.664   1.303  16.610 -0.0502  0.5031 -1.1180
 2515TIP3    H228961   5.744   1.429  16.633  0.9186 -0.2807 -0.0863
 2516TIP3   OH228962   1.695   2.962  13.604  0.2784 -0.2099  0.3914
 2516TIP3    H128963   1.649   2.885  13.637  0.8030  0.1428  2.0629
 2516TIP3    H228964   1.740   2.931  13.526 -1.4572 -0.9595 -0.3471
 2517TIP3   OH228965   6.120   1.632  11.923  0.2581  0.4339 -0.4283
 2517TIP3    H128966   6.122   1.727  11.911 -1.8383  0.8269  1.5685
 2517TIP3    H228967   6.158   1.618  12.010 -1.1640 -0.2972  0.1125
 2518TIP3   OH228968   3.785   1.028   3.672  0.0496  0.1108  0.3647
 2518TIP3    H128969   3.747   0.940   3.675 -0.1720  0.1543 -0.7789
 2518TIP3    H228970   3.783   1.057   3.763 -2.8624  0.1693  0.3908
 2519TIP3   OH228971   2.113   1.160   1.513 -0.4100  0.2246 -0.5477
 2519TIP3    H128972   2.051   1.143   1.441 -0.1679  0.9203 -0.9324
 2519TIP3    H228973   2.189   1.198   1.470  1.2955 -2.7197 -0.4040
 2520TIP3   OH228974   0.111   6.461   3.804 -0.1215 -0.3114  0.2192
 2520TIP3    H128975   0.178   6.402   3.839  0.1633 -0.5444 -0.6810
 2520TIP3    H228976   0.142   6.549   3.826 -0.2677 -0.4736  1.0865
 2521TIP3   OH228977   1.152   5.102  11.566  0.5655 -0.6281 -0.0125
 2521TIP3    H128978   1.147   5.026  11.508  1.2304 -0.0012 -0.9290
 2521TIP3    H228979   1.146   5.177  11.507 -0.0119  0.0357  0.8684
 2522TIP3   OH228980   4.364   5.208   3.348  0.0568  0.3469 -0.1328
 2522TIP3    H128981   4.452   5.206   3.311 -0.1772  1.6289 -0.7933
 2522TIP3    H228982   4.314   5.143   3.298  0.4355  0.1219 -0.2187
 2523TIP3   OH228983   1.895   1.074  11.197  0.0758  0.1511  0.3450
 2523TIP3    H128984   1.975   1.023  11.183 -0.2866 -0.3553  0.0956
 2523TIP3    H228985   1.892   1.135  11.123 -0.5439 -0.8489 -0.4853
 2524TIP3   OH228986   2.921   0.206   0.792 -0.2700  0.0678 -0.0358
 2524TIP3    H128987   2.948   0.120   0.759 -0.9015  0.2248 -0.9928
 2524TIP3    H228988   2.840   0.189   0.840 -0.2439  0.0908  0.0166
 2525TIP3   OH228989   4.889   5.443  14.613  0.7061  0.5594 -0.4818
 2525TIP3    H128990   4.854   5.363  14.572  0.7498 -0.3386  1.1236
 2525TIP3    H228991   4.881   5.426  14.707  1.0843  2.3095 -0.1124
 2526TIP3   OH228992   0.404   3.927  15.107 -1.1488  0.2453  0.0778
 2526TIP3    H128993   0.391   3.835  15.128  1.3748 -0.5981 -1.6129
 2526TIP3    H228994   0.485   3.951  15.153 -1.0503  1.2351 -0.5750
 2527TIP3   OH228995   5.608   2.934  10.702 -0.3494 -0.0547  0.0745
 2527TIP3    H128996   5.674   2.979  10.756 -0.6110 -0.6580  0.9130
 2527TIP3    H228997   5.525   2.974  10.728 -0.1986  2.1545 -2.4200
 2528TIP3   OH228998   5.630   5.851   2.921  0.1157  0.0495  0.2481
 2528TIP3    H128999   5.679   5.929   2.894  1.5002 -0.6705  0.5766
 2528TIP3    H229000   5.544   5.884   2.947 -0.3979  1.0780 -2.5139
 2529TIP3   OH229001   4.001   4.940   1.383  0.1304  0.1531  0.3203
 2529TIP3    H129002   3.961   4.859   1.413 -1.0355  0.7584  0.4265
 2529TIP3    H229003   3.941   5.009   1.410  1.1125  1.0723  0.2561
 2530TIP3   OH229004   3.492   2.470   5.001 -0.2221  0.2787 -0.6746
 2530TIP3    H129005   3.551   2.494   4.929  1.6031 -4.5059 -1.1612
 2530TIP3    H229006   3.408   2.453   4.959  0.2904 -0.5327 -1.4062
 2531TIP3   OH229007   2.227   4.851   2.891  0.1721 -0.1471  0.0485
 2531TIP3    H129008   2.205   4.836   2.799 -0.5847 -2.2516  0.5212
 2531TIP3    H229009   2.150   4.895   2.927 -0.9372 -2.1725  0.3345
 2532TIP3   OH229010   4.674   1.621  14.756  0.0205  0.2824 -0.2878
 2532TIP3    H129011   4.588   1.657  14.776  0.2705 -0.1037  1.6475
 2532TIP3    H229012   4.671   1.531  14.788  1.1577  0.2830 -0.1407
 2533TIP3   OH229013   6.044   6.448   5.559 -0.2230  0.3145  0.2438
 2533TIP3    H129014   6.030   6.364   5.603 -1.2583  1.1967  1.6865
 2533TIP3    H229015   5.973   6.504   5.590  0.1363  1.5849 -1.0886
 2534TIP3   OH229016   1.282   4.818   4.788  0.7050  0.7929 -0.0733
 2534TIP3    H129017   1.235   4.780   4.862 -0.4617  0.9558 -0.7066
 2534TIP3    H229018   1.343   4.750   4.761 -1.4328 -0.7679 -1.2703
 2535TIP3   OH229019   5.640   6.806   0.382  0.2197  0.6285  0.5438
 2535TIP3    H129020   5.621   6.876   0.319  2.1875 -1.1587 -2.3290
 2535TIP3    H229021   5.555   6.770   0.406 -0.6590  0.3157 -2.5794
 2536TIP3   OH229022   1.910   3.619  13.850 -0.1117  0.5179 -0.0077
 2536TIP3    H129023   1.849   3.677  13.896  0.8865  2.2668 -0.7737
 2536TIP3    H229024   1.979   3.603  13.913 -0.6446 -0.3039  0.3836
 2537TIP3   OH229025   5.799   1.260   2.643  0.1781 -0.4830 -0.5056
 2537TIP3    H129026   5.713   1.293   2.669  0.5653  0.1593  0.0100
 2537TIP3    H229027   5.855   1.278   2.719  1.2294  0.9527 -1.5714
 2538TIP3   OH229028   2.383   2.515   1.083  0.2266 -0.2174 -0.8377
 2538TIP3    H129029   2.401   2.547   1.171 -0.4421  2.5991 -1.6104
 2538TIP3    H229030   2.467   2.517   1.038  0.2484  0.2102 -0.7827
 2539TIP3   OH229031   5.332   4.916   1.739  0.1479  0.2774  0.0690
 2539TIP3    H129032   5.264   4.960   1.789 -0.2597 -0.8939  0.5842
 2539TIP3    H229033   5.360   4.843   1.795  0.7118 -0.1970 -0.7956
 2540TIP3   OH229034   6.360   3.846  12.422  0.2587  0.2595 -0.2258
 2540TIP3    H129035   6.396   3.757  12.427 -0.0659  0.1487  0.2291
 2540TIP3    H229036   6.408   3.894  12.489  0.2760  0.3724 -0.3190
 2541TIP3   OH229037   0.343   2.101   5.521  0.0400  0.1407  0.1374
 2541TIP3    H129038   0.296   2.175   5.559  0.1595  0.1590  0.2494
 2541TIP3    H229039   0.373   2.133   5.436  0.2027  0.2626  0.2406
 2542TIP3   OH229040   5.009   2.171  13.036 -0.0977 -0.6739 -0.0209
 2542TIP3    H129041   5.031   2.131  12.952  1.3625 -0.5011  0.2523
 2542TIP3    H229042   5.069   2.245  13.043  0.1267 -0.9652  1.3773
 2543TIP3   OH229043   3.268   6.497  11.912 -0.1246 -0.1982 -0.5292
 2543TIP3    H129044   3.268   6.574  11.969 -0.2741 -0.4897 -0.1358
 2543TIP3    H229045   3.270   6.423  11.972 -1.4368 -0.5311 -0.8810
 2544TIP3   OH229046   1.107   5.624   3.452 -0.0417  0.3389 -0.6060
 2544TIP3    H129047   1.194   5.663   3.444  0.4895 -0.7249 -0.1826
 2544TIP3    H229048   1.063   5.677   3.518  0.1757  1.0453 -1.0139
 2545TIP3   OH229049   5.955   1.570  15.091 -0.1278 -0.3718 -0.0990
 2545TIP3    H129050   5.927   1.570  15.000  0.5639 -0.0937 -0.3193
 2545TIP3    H229051   5.894   1.630  15.135  0.6347  0.9409 -0.7487
 2546TIP3   OH229052   5.535   1.253  13.497  0.0078 -0.3854 -0.1601
 2546TIP3    H129053   5.556   1.193  13.426 -0.6796 -0.6197 -0.1766
 2546TIP3    H229054   5.526   1.338  13.455  3.1032  0.2081  0.1454
 2547TIP3   OH229055   2.596   2.955  15.276 -0.8471 -0.2277 -0.1811
 2547TIP3    H129056   2.650   3.009  15.333 -1.0747 -0.1831 -0.0058
 2547TIP3    H229057   2.562   2.886  15.333 -1.9622  0.4402  0.0025
 2548TIP3   OH229058   1.604   5.474   1.736 -0.1051  0.5456  0.1797
 2548TIP3    H129059   1.688   5.430   1.748  0.5698  1.2653 -1.4586
 2548TIP3    H229060   1.608   5.550   1.794 -0.0356  0.0692  0.8105
 2549TIP3   OH229061   4.133   5.333  15.778 -0.1452 -0.0672 -0.1370
 2549TIP3    H129062   4.203   5.385  15.817  0.3364 -0.4199 -0.5210
 2549TIP3    H229063   4.118   5.262  15.841 -0.1839  0.0312 -0.0354
 2550TIP3   OH229064   3.021   0.351   5.559  1.2666  0.3866  0.5545
 2550TIP3    H129065   3.000   0.386   5.472 -0.0141 -0.1715  0.6113
 2550TIP3    H229066   3.094   0.405   5.590  0.0304  2.3570  0.2221
 2551TIP3   OH229067   6.616   2.922   0.556  0.6724 -0.1559  0.0272
 2551TIP3    H129068   6.562   2.861   0.608 -0.9775  0.3000 -1.0545
 2551TIP3    H229069   6.600   3.007   0.597  0.2980  0.0258 -0.4827
 2552TIP3   OH229070   6.668   2.613  15.043 -0.2420  0.0844  0.0371
 2552TIP3    H129071   6.602   2.668  15.000 -0.3989 -0.0609  0.0897
 2552TIP3    H229072   6.742   2.613  14.982 -1.3277 -2.0583 -1.4192
 2553TIP3   OH229073   1.012   1.142  16.993 -0.3851  0.8096  0.1496
 2553TIP3    H129074   1.022   1.201  16.918 -0.5660  0.7284  0.0616
 2553TIP3    H229075   1.079   1.076  16.980 -1.4436 -0.1118 -0.7955
 2554TIP3   OH229076   3.259   4.926   6.600 -0.7289 -0.1449  0.1873
 2554TIP3    H129077   3.246   4.970   6.516 -1.6478  0.1877  0.4996
 2554TIP3    H229078   3.198   4.852   6.598  1.4493 -2.0573 -0.7341
 2555TIP3   OH229079   3.046   6.528  16.804 -0.7187 -0.5486 -0.2888
 2555TIP3    H129080   2.988   6.503  16.876  0.6997 -1.6197  0.5521
 2555TIP3    H229081   3.115   6.461  16.805  0.9059  1.0353 -0.7753
 2556TIP3   OH229082   2.220   2.169  16.107 -0.9407 -0.4065  0.0829
 2556TIP3    H129083   2.275   2.109  16.058 -1.2368 -0.7151  0.1250
 2556TIP3    H229084   2.136   2.124  16.115 -0.2528 -1.4403  2.9298
 2557TIP3   OH229085   5.213   1.046  13.789 -0.0000 -0.9503 -0.0437
 2557TIP3    H129086   5.153   1.030  13.862  0.7774 -0.3655  0.7520
 2557TIP3    H229087   5.220   0.962  13.744  2.0270 -2.2832  2.5136
 2558TIP3   OH229088   3.126   2.166   1.087 -0.1567 -0.7560 -0.0697
 2558TIP3    H129089   3.212   2.177   1.129  0.9537  1.3049 -2.5663
 2558TIP3    H229090   3.144   2.107   1.013 -0.6614  0.2215 -1.0079
 2559TIP3   OH229091   1.543   4.735  13.989 -0.1292 -0.3032  0.1639
 2559TIP3    H129092   1.631   4.770  14.003 -0.0606 -0.4717  0.1557
 2559TIP3    H229093   1.491   4.773  14.060  0.2802 -1.3650  1.0731
 2560TIP3   OH229094   0.405   2.749   2.741  0.1174  0.3557 -0.7648
 2560TIP3    H129095   0.389   2.740   2.647 -0.6149 -1.2999 -0.5201
 2560TIP3    H229096   0.319   2.768   2.779  0.2034 -0.1311 -0.3157
 2561TIP3   OH229097   3.878   1.314  15.913 -0.0265 -0.1855  0.2521
 2561TIP3    H129098   3.925   1.271  15.985  3.4887  0.1571 -1.6319
 2561TIP3    H229099   3.868   1.404  15.943 -0.4925 -0.5206  1.1402
 2562TIP3   OH229100   6.654   1.481  14.559  0.1328 -0.1759 -0.2903
 2562TIP3    H129101   6.559   1.486  14.567  0.2420  1.7356  0.5606
 2562TIP3    H229102   6.685   1.563  14.597  2.0878 -0.3839 -1.2973
 2563TIP3   OH229103   0.658   6.561  15.469  0.3594 -0.3567 -0.1441
 2563TIP3    H129104   0.714   6.563  15.392  1.2973 -1.5027  0.4720
 2563TIP3    H229105   0.624   6.472  15.472 -2.1739  0.5043 -0.9344
 2564TIP3   OH229106   0.650   4.432   1.247 -0.0309 -0.1023 -0.2778
 2564TIP3    H129107   0.723   4.460   1.302 -0.4973  0.6697 -0.0341
 2564TIP3    H229108   0.625   4.346   1.281 -1.6155  1.1756  2.0938
 2565TIP3   OH229109   5.652   5.920  16.615  0.0984  0.0642 -0.1201
 2565TIP3    H129110   5.619   5.842  16.659  2.4096 -0.5988  0.6167
 2565TIP3    H229111   5.719   5.954  16.674 -0.1786  2.0819 -0.8793
 2566TIP3   OH229112   4.339   2.014  13.291 -0.0764  0.8779 -0.0127
 2566TIP3    H129113   4.360   2.107  13.282  1.1195  0.8231  1.7290
 2566TIP3    H229114   4.261   2.012  13.346 -0.4727  0.8528 -0.5660
 2567TIP3   OH229115   2.455   4.175  13.544  0.0174 -0.5616  0.0978
 2567TIP3    H129116   2.450   4.101  13.605  0.0092 -1.0792 -0.5166
 2567TIP3    H229117   2.459   4.252  13.600  1.9873 -1.1177  0.7964
 2568TIP3   OH229118   3.107   6.079  15.906 -0.2722 -0.0955 -0.0672
 2568TIP3    H129119   3.142   6.051  15.821 -2.1050 -1.1935 -0.5030
 2568TIP3    H229120   3.158   6.030  15.970  1.0787  0.6882 -0.5057
 2569TIP3   OH229121   4.002   5.982  16.367  0.0034 -0.2117  0.5628
 2569TIP3    H129122   4.069   5.984  16.435 -0.3796  0.0663  0.9371
 2569TIP3    H229123   4.018   6.061  16.315  0.6881 -0.7436 -0.0659
 2570TIP3   OH229124   4.911   0.135  15.074 -0.5403 -0.4355  0.0612
 2570TIP3    H129125   4.858   0.141  15.154 -1.5267  0.7088 -0.6391
 2570TIP3    H229126   4.857   0.084  15.013  0.6110 -2.1334  0.3966
 2571TIP3   OH229127   4.527   0.746  15.820 -0.0943 -0.7787  0.3116
 2571TIP3    H129128   4.576   0.821  15.786 -2.0556  0.3854 -0.1671
 2571TIP3    H229129   4.445   0.748  15.770 -0.2152 -3.2653  0.3040
 2572TIP3   OH229130   3.986   6.215   0.387 -0.0838 -0.2080  0.3126
 2572TIP3    H129131   3.912   6.214   0.327 -0.9141 -0.2176  1.3125
 2572TIP3    H229132   4.063   6.211   0.330 -0.7352  2.2729 -0.9046
 2573TIP3   OH229133   3.758   5.538   0.393 -0.0185 -0.0346 -0.1485
 2573TIP3    H129134   3.701   5.582   0.457 -0.5905  1.1684 -1.4214
 2573TIP3    H229135   3.843   5.533   0.435 -0.3472  0.8723  0.6526
 2574TIP3   OH229136   1.058   2.559   2.894  0.0460 -0.3373  0.8708
 2574TIP3    H129137   0.995   2.488   2.881  2.6263 -2.6310 -0.1355
 2574TIP3    H229138   1.096   2.573   2.807 -0.5248  2.5353  0.9900
 2575TIP3   OH229139   3.062   3.248  13.289  0.0912 -0.3557 -0.1552
 2575TIP3    H129140   3.027   3.256  13.200 -0.7875 -0.0286  0.2190
 2575TIP3    H229141   3.061   3.337  13.323  0.1109 -0.5352  0.3133
 2576TIP3   OH229142   5.144   1.365  13.870 -0.0567  0.3840 -0.0054
 2576TIP3    H129143   5.171   1.341  13.781  0.5185  1.3081 -0.0933
 2576TIP3    H229144   5.156   1.460  13.873 -0.5682  0.4204  0.8972
 2577TIP3   OH229145   3.290   6.301   3.733  0.8290  0.5844 -0.6700
 2577TIP3    H129146   3.216   6.341   3.688 -1.5485 -0.5412  1.9126
 2577TIP3    H229147   3.344   6.264   3.664 -1.9441 -0.0744 -2.6494
 2578TIP3   OH229148   2.341   5.567  12.297 -0.3435 -0.0514 -0.1908
 2578TIP3    H129149   2.309   5.489  12.253  0.6141 -0.9402  0.6390
 2578TIP3    H229150   2.299   5.564  12.384 -0.4028  0.4286 -0.2008
 2579TIP3   OH229151   0.510   0.150  16.436 -0.2339  0.3393  0.7677
 2579TIP3    H129152   0.455   0.215  16.391  0.9865 -0.1576 -1.6373
 2579TIP3    H229153   0.564   0.200  16.496 -0.8862  1.2656  0.5951
 2580TIP3   OH229154   1.485   1.644  14.718 -0.3658  0.2099  0.0615
 2580TIP3    H129155   1.573   1.637  14.680 -0.4370 -1.5774  0.1454
 2580TIP3    H229156   1.491   1.717  14.779  1.0364  0.1867 -0.0185
 2581TIP3   OH229157   5.346   1.315   1.958 -0.3999  0.0625 -0.3097
 2581TIP3    H129158   5.304   1.400   1.949 -1.8840 -0.5945  0.2055
 2581TIP3    H229159   5.423   1.332   2.012 -2.1442  0.6654  2.1695
 2582TIP3   OH229160   3.983   4.483  16.608  0.0089 -0.2536 -0.3396
 2582TIP3    H129161   4.054   4.423  16.630  0.1999 -0.7157 -2.0742
 2582TIP3    H229162   3.905   4.442  16.646  0.2400 -1.2659 -0.9083
 2583TIP3   OH229163   2.322   2.058  15.063 -0.0623 -0.3606  0.4709
 2583TIP3    H129164   2.286   2.116  15.129  0.8836  1.0073 -0.1722
 2583TIP3    H229165   2.285   1.972  15.084 -3.2357  0.7975  0.1687
 2584TIP3   OH229166   5.850   3.784   4.639 -0.0973  0.3386 -0.2866
 2584TIP3    H129167   5.858   3.713   4.576  2.5180  1.2550 -1.1150
 2584TIP3    H229168   5.760   3.815   4.628 -0.1249 -0.3647 -2.6727
 2585TIP3   OH229169   0.895   5.003   5.815 -0.3462 -0.3839  0.1191
 2585TIP3    H129170   0.804   5.023   5.837 -0.4126 -2.4416  2.0057
 2585TIP3    H229171   0.922   5.076   5.760 -2.5594  1.2334  1.0190
 2586TIP3   OH229172   3.781   5.374   6.401  0.0063 -0.6596  0.6380
 2586TIP3    H129173   3.843   5.426   6.452  0.4884  0.1909 -0.7700
 2586TIP3    H229174   3.742   5.436   6.340 -2.1927 -1.1789  1.4011
 2587TIP3   OH229175   2.106   1.044  12.140 -0.0321  0.0631 -0.3157
 2587TIP3    H129176   2.194   1.076  12.159 -0.1768 -0.4608  1.4434
 2587TIP3    H229177   2.057   1.122  12.115  0.3922  0.7221  0.8326
 2588TIP3   OH229178   2.606   6.708   0.450  0.3074 -0.2060  0.3360
 2588TIP3    H129179   2.606   6.620   0.413  1.8879 -1.8174  3.6780
 2588TIP3    H229180   2.697   6.738   0.441 -0.2825  1.3160 -1.0926
 2589TIP3   OH229181   2.445   1.358   5.450 -0.4825  0.1837 -0.1805
 2589TIP3    H129182   2.358   1.316   5.451 -0.7108  0.2562 -3.7141
 2589TIP3    H229183   2.432   1.438   5.399  1.6395  0.2601 -0.6806
 2590TIP3   OH229184   1.907   3.736  16.313  0.1400 -0.1566  0.0010
 2590TIP3    H129185   1.827   3.690  16.339  0.0078  0.7234  1.2294
 2590TIP3    H229186   1.888   3.828  16.328  1.2187  0.1034 -0.1554
 2591TIP3   OH229187   2.294   6.451   5.885 -0.0997  0.2404  0.0992
 2591TIP3    H129188   2.297   6.378   5.823 -2.6498 -1.2900  1.6137
 2591TIP3    H229189   2.337   6.417   5.964 -0.0471  0.9028  0.3622
 2592TIP3   OH229190   4.376   1.800  16.277  0.3007  0.1957 -0.2184
 2592TIP3    H129191   4.373   1.837  16.365 -1.9926  1.1067 -0.6151
 2592TIP3    H229192   4.337   1.713  16.286  1.0640 -0.1488 -0.1654
 2593TIP3   OH229193   3.532   2.879   4.234 -0.5356  0.2609  0.2301
 2593TIP3    H129194   3.561   2.795   4.198 -0.1678  1.0946 -1.5342
 2593TIP3    H229195   3.437   2.869   4.244 -0.7819  0.2458 -1.8030
 2594TIP3   OH229196   0.682   4.906   2.670 -0.0459  0.5999 -0.1594
 2594TIP3    H129197   0.695   4.981   2.612  0.2911  0.8263  0.2014
 2594TIP3    H229198   0.596   4.872   2.646 -0.1608  1.0430 -0.3968
 2595TIP3   OH229199   4.615   2.372  12.050 -0.1002 -0.5989 -0.6674
 2595TIP3    H129200   4.640   2.355  11.959  1.3299  0.9081 -0.6105
 2595TIP3    H229201   4.697   2.398  12.093 -0.9283 -0.3052  0.7919
 2596TIP3   OH229202   3.133   6.567  15.190  0.3022  0.0166 -0.4701
 2596TIP3    H129203   3.076   6.497  15.221 -0.7384 -0.1383 -2.5293
 2596TIP3    H229204   3.200   6.576  15.258 -1.0266 -1.1656  1.0867
 2597TIP3   OH229205   0.923   0.266  16.557  0.2519 -0.4113 -1.0338
 2597TIP3    H129206   0.834   0.262  16.591 -0.0590  0.2229 -1.7522
 2597TIP3    H229207   0.975   0.215  16.620 -0.8291 -1.9749 -1.3366
 2598TIP3   OH229208   4.948   3.380   4.924  0.4357 -0.2406  0.0278
 2598TIP3    H129209   4.906   3.443   4.866 -0.9362 -0.8555  0.3176
 2598TIP3    H229210   4.979   3.433   4.998 -1.2656  0.0593  0.5741
 2599TIP3   OH229211   1.780   5.636  16.259  0.0834  0.5467  0.3047
 2599TIP3    H129212   1.834   5.645  16.181 -2.3762  1.9952 -1.3730
 2599TIP3    H229213   1.738   5.550  16.250  0.3093  0.4283  0.3838
 2600TIP3   OH229214   3.829   3.141   4.740  0.2736 -0.0554  0.4826
 2600TIP3    H129215   3.794   3.181   4.661 -1.4327 -0.2715  1.0790
 2600TIP3    H229216   3.900   3.085   4.710 -0.9412 -0.8532 -1.0448
 2601TIP3   OH229217   2.385   5.344   3.722 -0.0431  0.5056  0.0499
 2601TIP3    H129218   2.374   5.260   3.678 -0.0913  0.6021 -0.1207
 2601TIP3    H229219   2.296   5.370   3.746  0.0644  0.0071  1.0303
 2602TIP3   OH229220   2.511   4.542   2.630 -0.6063  0.1206 -0.4991
 2602TIP3    H129221   2.508   4.545   2.535 -0.8410  0.6717 -0.4753
 2602TIP3    H229222   2.541   4.628   2.657  0.6427 -0.4094 -0.1140
 2603TIP3   OH229223   2.770   1.711   4.503 -0.2766 -0.3603 -0.8127
 2603TIP3    H129224   2.711   1.779   4.534 -0.0665 -0.8533  0.7477
 2603TIP3    H229225   2.713   1.646   4.462 -0.4857  0.6603 -2.2136
 2604TIP3   OH229226   0.950   4.680   4.904  0.4000 -0.0922 -0.3841
 2604TIP3    H129227   0.888   4.698   4.975  0.9553  0.7592 -0.0995
 2604TIP3    H229228   1.036   4.697   4.943  0.8720 -1.8897 -0.5848
 2605TIP3   OH229229   6.643   3.381  14.340  0.2187  0.4945  0.2558
 2605TIP3    H129230   6.626   3.287  14.349  2.1921 -0.0830 -1.4516
 2605TIP3    H229231   6.708   3.400  14.407  1.4589  0.1132 -0.7939
 2606TIP3   OH229232   3.459   0.800  11.237 -0.5371 -0.0552 -0.3947
 2606TIP3    H129233   3.480   0.880  11.189  1.1261 -1.0427 -1.3916
 2606TIP3    H229234   3.539   0.779  11.285 -1.8393  0.3535  2.0905
 2607TIP3   OH229235   5.291   5.607  11.602 -0.2632 -0.1399  0.6450
 2607TIP3    H129236   5.250   5.522  11.615  0.0654 -0.3024  0.6071
 2607TIP3    H229237   5.241   5.647  11.531 -0.0595 -0.5294  0.2795
 2608TIP3   OH229238   3.305   5.031   6.302 -0.4185  0.9577 -0.7177
 2608TIP3    H129239   3.210   5.027   6.291 -0.9095 -0.8427  2.6144
 2608TIP3    H229240   3.333   4.939   6.295  1.1055  1.4707 -1.6852
 2609TIP3   OH229241   0.947   0.108  13.594  0.0227 -0.6548 -0.7657
 2609TIP3    H129242   0.965   0.200  13.576 -2.8000 -0.0046 -0.7326
 2609TIP3    H229243   1.032   0.071  13.621  0.9651  2.2170  0.5372
 2610TIP3   OH229244   6.054   6.258  13.531  0.0514  0.0161 -0.8066
 2610TIP3    H129245   6.027   6.208  13.454  0.0497  0.5841 -1.1818
 2610TIP3    H229246   6.116   6.323  13.497  0.0403  0.2809 -0.3353
 2611TIP3   OH229247   5.816   1.464  15.925  0.5012 -0.1933  0.3507
 2611TIP3    H129248   5.898   1.418  15.944  1.5761  1.0494 -1.0754
 2611TIP3    H229249   5.783   1.422  15.846  0.1111 -0.2278  0.5286
 2612TIP3   OH229250   0.706   6.259  16.272 -0.1553  0.2941 -0.4088
 2612TIP3    H129251   0.727   6.349  16.247  0.4575  0.7717  1.6415
 2612TIP3    H229252   0.652   6.226  16.199  0.6412  1.8730 -1.7822
 2613TIP3   OH229253   5.646   0.430  12.450 -0.4563 -0.3465 -0.0772
 2613TIP3    H129254   5.650   0.519  12.485  0.1270  0.2624 -1.5880
 2613TIP3    H229255   5.570   0.391  12.493 -0.6583  0.8438  0.7007
 2614TIP3   OH229256   0.319   4.613  11.204  0.1365  0.0786 -0.5224
 2614TIP3    H129257   0.294   4.649  11.119 -2.2237  1.2335  0.5528
 2614TIP3    H229258   0.240   4.621  11.257  0.4865 -3.7358  0.8562
 2615TIP3   OH229259   4.706   1.258  11.571 -0.3439  0.1478  1.0909
 2615TIP3    H129260   4.697   1.298  11.485 -0.4171 -0.0913  0.9883
 2615TIP3    H229261   4.655   1.177  11.566 -1.3843  0.7476  1.7464
 2616TIP3   OH229262   4.740   2.869  12.340 -0.4656 -0.3333 -0.5850
 2616TIP3    H129263   4.750   2.933  12.410  0.6370 -0.8117 -0.2860
 2616TIP3    H229264   4.680   2.803  12.375 -0.1720 -0.4028 -0.2183
 2617TIP3   OH229265   2.948   4.405   4.580 -0.0858  0.1813 -0.7610
 2617TIP3    H129266   2.924   4.322   4.538  1.1167 -0.1514 -0.8231
 2617TIP3    H229267   3.007   4.379   4.651 -2.4872  0.6726  1.5806
 2618TIP3   OH229268   1.144   2.842   3.938  0.8761  0.4379 -0.2462
 2618TIP3    H129269   1.101   2.906   3.995  1.8911  0.6080  0.3594
 2618TIP3    H229270   1.112   2.863   3.850 -3.3550 -1.9083  0.4612
 2619TIP3   OH229271   2.566   0.149   4.069 -0.3073 -0.3229 -0.8466
 2619TIP3    H129272   2.479   0.134   4.106  0.4304 -1.0056  0.6897
 2619TIP3    H229273   2.577   0.244   4.069 -1.5227 -0.1457 -2.2502
 2620TIP3   OH229274   0.659   6.254  14.804  0.1951  0.4593  0.2602
 2620TIP3    H129275   0.595   6.294  14.745  1.9000  1.6792 -0.8475
 2620TIP3    H229276   0.732   6.316  14.806  0.2481  0.4700  3.6854
 2621TIP3   OH229277   4.159   6.188  13.009 -0.0507  0.2147 -0.1326
 2621TIP3    H129278   4.171   6.240  13.089 -2.1811 -0.5484  0.7407
 2621TIP3    H229279   4.140   6.100  13.040  0.8139 -0.5129 -1.5453
 2622TIP3   OH229280   2.860   5.228  12.808 -0.4053 -0.1042  0.4780
 2622TIP3    H129281   2.915   5.194  12.879  1.7206  0.2972 -0.8785
 2622TIP3    H229282   2.839   5.317  12.835 -1.4658 -0.6560  1.5695
 2623TIP3   OH229283   5.051   5.573  17.091 -0.2930  0.3181 -0.3425
 2623TIP3    H129284   4.983   5.623  17.136  0.8299  1.7532 -0.1920
 2623TIP3    H229285   5.036   5.591  16.998 -1.2798 -0.9269 -0.4575
 2624TIP3   OH229286   6.738   1.213   5.002 -0.1141 -0.0175  0.4198
 2624TIP3    H129287   6.668   1.224   4.937 -0.2640  1.7110  0.8108
 2624TIP3    H229288   6.804   1.161   4.957 -0.5321  0.5227 -0.8855
 2625TIP3   OH229289   4.569   1.941  13.991 -0.0240  0.2435 -0.4284
 2625TIP3    H129290   4.508   1.871  13.965  1.0351 -0.8912  0.0871
 2625TIP3    H229291   4.565   1.942  14.086  0.2222  0.6608 -0.4227
 2626TIP3   OH229292   1.140   6.183  12.193 -0.0687 -0.5435  0.3095
 2626TIP3    H129293   1.142   6.103  12.140 -1.0434 -1.0173  0.9581
 2626TIP3    H229294   1.210   6.238  12.156  0.7501 -1.7607 -0.0287
 2627TIP3   OH229295   1.888   6.296   3.419 -0.0364 -0.0269  0.2267
 2627TIP3    H129296   1.948   6.349   3.367 -0.0622  0.1318  0.3582
 2627TIP3    H229297   1.930   6.210   3.423 -1.4027 -0.9685 -2.5797
 2628TIP3   OH229298   1.681   0.993   0.022  0.1789  0.3146 -0.9711
 2628TIP3    H129299   1.623   0.966   0.093  1.3086  0.8249  0.1873
 2628TIP3    H229300   1.629   1.057  -0.028 -1.6264 -2.0394 -2.3096
 2629TIP3   OH229301   0.612   5.016   0.916  0.1212  0.5591 -0.3702
 2629TIP3    H129302   0.554   5.022   0.992 -1.0554 -0.7318 -1.1124
 2629TIP3    H229303   0.648   4.928   0.920  1.9418  1.2769 -0.0350
 2630TIP3   OH229304   3.769   0.161   2.685  0.4542 -0.4995 -0.8358
 2630TIP3    H129305   3.722   0.167   2.602  2.8633  1.5822 -2.2024
 2630TIP3    H229306   3.842   0.101   2.668  0.1063 -1.2822  0.2894
 2631TIP3   OH229307   6.228   3.827  17.054 -0.1092  0.3758  0.2096
 2631TIP3    H129308   6.201   3.785  16.973  2.1767 -0.6377 -0.0747
 2631TIP3    H229309   6.220   3.921  17.036 -0.0040  0.1544 -1.0409
 2632TIP3   OH229310   1.433   3.891  13.548 -0.1384  0.5016 -0.0299
 2632TIP3    H129311   1.432   3.924  13.637  0.0994  0.3064  0.0470
 2632TIP3    H229312   1.401   3.964  13.495 -0.1113  0.6779  0.1961
 2633TIP3   OH229313   3.314   5.612  12.066 -0.5797 -0.4263 -0.3368
 2633TIP3    H129314   3.237   5.592  12.013 -0.8636  2.8026 -1.3332
 2633TIP3    H229315   3.294   5.696  12.108  1.8785 -0.1414  0.4360
 2634TIP3   OH229316   1.112   6.734  16.327  0.1577 -0.8276 -0.0924
 2634TIP3    H129317   1.106   6.733  16.232 -2.1005  1.7835 -0.0907
 2634TIP3    H229318   1.021   6.724  16.357  0.5217  0.6005  1.6717
 2635TIP3   OH229319   2.084   1.752  16.877 -0.4297  0.0620  0.0499
 2635TIP3    H129320   2.038   1.714  16.802  0.1503 -0.0726 -0.2521
 2635TIP3    H229321   2.058   1.844  16.877 -2.3917 -0.4349  1.2085
 2636TIP3   OH229322   4.664   5.672  11.849 -0.3387  0.4843  0.3425
 2636TIP3    H129323   4.683   5.766  11.848  0.5325  0.3456  1.5490
 2636TIP3    H229324   4.596   5.661  11.782 -0.4249  1.9571  0.1429
 2637TIP3   OH229325   4.505   1.085  14.763 -0.5247  0.2786 -0.0812
 2637TIP3    H129326   4.455   1.159  14.798 -0.7932 -0.3247  0.8543
 2637TIP3    H229327   4.485   1.013  14.823  0.1939 -0.3986 -0.6438
 2638TIP3   OH229328   4.007   6.475  12.496 -0.5195 -0.1247  0.4089
 2638TIP3    H129329   3.935   6.531  12.526 -1.5168 -1.1985  0.1060
 2638TIP3    H229330   4.063   6.465  12.573 -1.2422 -0.0968  0.9512
 2639TIP3   OH229331   3.003   5.931  11.797 -0.0122 -0.1737  0.1526
 2639TIP3    H129332   2.921   5.895  11.830 -1.0299 -0.6843 -2.6392
 2639TIP3    H229333   2.978   6.014  11.756  0.8503 -0.3296 -0.7329
 2640TIP3   OH229334   3.005   4.805   2.064  0.4037  0.6916 -0.1669
 2640TIP3    H129335   3.059   4.798   1.986  1.2719 -1.5962  0.5400
 2640TIP3    H229336   3.066   4.828   2.134  0.0778  0.3617  0.2343
 2641TIP3   OH229337   6.670   5.089  11.360 -0.1591  0.3438  0.0500
 2641TIP3    H129338   6.665   5.075  11.454  0.9020 -1.6681 -0.1396
 2641TIP3    H229339   6.763   5.084  11.340 -0.2010  2.4411 -0.9158
 2642TIP3   OH229340   4.602   5.756  14.047 -0.0329 -0.4362 -0.7010
 2642TIP3    H129341   4.581   5.796  14.132  0.5647 -0.3082 -0.6087
 2642TIP3    H229342   4.523   5.766  13.995  0.1995  1.1364 -0.7818
 2643TIP3   OH229343   4.648   4.886   3.077  0.0296  0.0700  0.5676
 2643TIP3    H129344   4.636   4.808   3.131 -0.8868 -0.0876  0.1579
 2643TIP3    H229345   4.563   4.899   3.033  0.2681  1.0988  0.3701
 2644TIP3   OH229346   4.293   1.367   0.524  0.1198 -0.5519  0.9536
 2644TIP3    H129347   4.297   1.273   0.509 -0.7433 -0.5962  0.9817
 2644TIP3    H229348   4.225   1.399   0.465  1.8155  0.3900 -0.6276
 2645TIP3   OH229349   4.392   0.935   0.965  0.5093 -0.0252  0.0834
 2645TIP3    H129350   4.394   1.030   0.958 -0.2750  0.1183  1.4351
 2645TIP3    H229351   4.363   0.905   0.879 -1.3047  1.0822  0.2639
 2646TIP3   OH229352   0.225   0.542  13.893  0.5358  0.3131 -0.1910
 2646TIP3    H129353   0.267   0.620  13.929  0.0073  1.1312 -1.2887
 2646TIP3    H229354   0.188   0.570  13.810 -2.0589 -0.3849  0.6177
 2647TIP3   OH229355   1.446   1.070   0.368  0.0622  0.4531 -0.0261
 2647TIP3    H129356   1.497   1.134   0.416 -0.6369  1.6593 -0.8302
 2647TIP3    H229357   1.362   1.067   0.412  0.4286 -0.7253  0.6423
 2648TIP3   OH229358   4.660   5.833   6.060  0.3647 -0.1416 -0.4506
 2648TIP3    H129359   4.589   5.796   6.008  0.9549  0.6880 -1.9081
 2648TIP3    H229360   4.638   5.810   6.151 -1.6040 -0.1508 -0.8794
 2649TIP3   OH229361   3.992   4.553  10.728  0.4767 -0.4401  0.3082
 2649TIP3    H129362   3.936   4.482  10.761  1.4927 -2.1771 -1.4713
 2649TIP3    H229363   3.961   4.569  10.639  1.9694 -0.5768 -0.2682
 2650TIP3   OH229364   6.300   0.707  10.818 -0.5244 -0.1276  0.3488
 2650TIP3    H129365   6.392   0.682  10.830 -0.6293 -1.1581 -0.7304
 2650TIP3    H229366   6.251   0.643  10.870 -0.7849 -2.2782 -2.2752
 2651TIP3   OH229367   3.898   5.476  12.815  0.2721 -0.1125 -0.5246
 2651TIP3    H129368   3.870   5.488  12.724 -0.1198 -1.1540 -0.5563
 2651TIP3    H229369   3.922   5.383  12.821  0.6725  0.0327  0.3379
 2652TIP3   OH229370   2.974   3.547  14.033 -0.2047  0.1780 -0.2935
 2652TIP3    H129371   2.990   3.483  14.103 -1.1154  0.6090  0.3369
 2652TIP3    H229372   3.058   3.591  14.021  0.2532 -0.6600 -0.2577
 2653TIP3   OH229373   5.533   4.246  13.419  0.1071 -0.1035  0.2202
 2653TIP3    H129374   5.521   4.307  13.347  1.3900  0.5598  0.5405
 2653TIP3    H229375   5.507   4.161  13.384  0.5343  0.2420 -0.9675
 2654TIP3   OH229376   1.797   4.397   5.308 -0.1961  0.4842  0.1578
 2654TIP3    H129377   1.847   4.435   5.236 -1.1960  0.4653 -0.5714
 2654TIP3    H229378   1.752   4.471   5.349  0.2979  0.4827  0.7107
 2655TIP3   OH229379   1.317   2.363   0.500 -0.2809  0.0504 -0.0986
 2655TIP3    H129380   1.243   2.361   0.561 -0.2566  0.8134 -0.0268
 2655TIP3    H229381   1.381   2.420   0.542 -0.7294  1.5273 -1.3215
 2656TIP3   OH229382   6.451   1.213  17.138  0.1672 -0.5850  0.0828
 2656TIP3    H129383   6.506   1.285  17.168  0.1023 -0.5789  0.1852
 2656TIP3    H229384   6.509   1.159  17.084  1.1773 -2.3718  2.7453
 2657TIP3   OH229385   1.779   5.823  16.889  0.4781 -0.6207 -0.1648
 2657TIP3    H129386   1.859   5.875  16.894  0.7326 -0.7402 -2.2719
 2657TIP3    H229387   1.803   5.746  16.837 -0.4238 -1.8658  1.1598
 2658TIP3   OH229388   4.904   2.452  16.573  0.2434 -0.2007 -0.2657
 2658TIP3    H129389   4.998   2.455  16.555  0.2640 -1.1265 -0.3553
 2658TIP3    H229390   4.864   2.429  16.489 -0.0886  0.4757 -0.2934
 2659TIP3   OH229391   5.619   3.224  14.658 -0.3291  0.5073  0.5035
 2659TIP3    H129392   5.707   3.260  14.659 -0.3099  0.5031 -0.2718
 2659TIP3    H229393   5.563   3.296  14.628 -0.0139 -0.5546 -3.1862
 2660TIP3   OH229394   1.909   4.736   1.494  0.1321 -0.5661  0.2035
 2660TIP3    H129395   1.991   4.777   1.465  0.1081 -2.1834 -2.4521
 2660TIP3    H229396   1.854   4.809   1.520  1.9176  0.6630  0.7679
 2661TIP3   OH229397   1.446   4.787   0.135 -0.0316  0.0513 -0.0542
 2661TIP3    H129398   1.497   4.728   0.190  1.8421 -0.5489 -2.2752
 2661TIP3    H229399   1.357   4.780   0.168  0.3905 -2.8901  0.7184
 2662TIP3   OH229400   3.011   0.126  12.335  0.0046 -0.0183 -0.0139
 2662TIP3    H129401   2.961   0.050  12.364 -0.2225  0.1979  0.1666
 2662TIP3    H229402   2.945   0.195  12.324  0.2460  0.2283  0.0854
 2663TIP3   OH229403   5.077   1.871   6.014 -0.1399 -0.0719 -0.2914
 2663TIP3    H129404   5.123   1.790   5.993 -0.6497 -0.1842 -1.0114
 2663TIP3    H229405   5.072   1.872   6.109  0.3527 -0.6136 -0.2550
 2664TIP3   OH229406   0.277   2.415   2.974 -0.0360 -0.2787  0.4140
 2664TIP3    H129407   0.321   2.438   2.892  0.9368  1.0910  1.2740
 2664TIP3    H229408   0.281   2.319   2.977  0.3717 -0.3205 -0.8872
 2665TIP3   OH229409   2.100   1.216  14.981 -0.2898 -0.5228 -0.5920
 2665TIP3    H129410   2.075   1.184  15.068 -1.6089 -0.3777 -0.8984
 2665TIP3    H229411   2.025   1.196  14.926  0.0646  0.4301 -1.4433
 2666TIP3   OH229412   1.438   1.087  17.094 -0.0317 -0.5867 -0.1801
 2666TIP3    H129413   1.368   1.047  17.043 -1.0902  0.0892  0.6822
 2666TIP3    H229414   1.413   1.179  17.101  0.6527 -0.4448  0.6088
 2667TIP3   OH229415   6.803   2.697  17.057  0.0889 -0.0476 -0.2929
 2667TIP3    H129416   6.890   2.687  17.020  0.2071  0.6559 -0.2266
 2667TIP3    H229417   6.783   2.790  17.045 -0.4259 -0.0952  0.1784
 2668TIP3   OH229418   4.807   1.149  15.382 -0.0440  0.3341 -0.1773
 2668TIP3    H129419   4.793   1.197  15.463  0.9275  0.5795 -0.1455
 2668TIP3    H229420   4.867   1.203  15.332  1.6113 -1.1326  0.1353
 2669TIP3   OH229421   4.339   1.907   4.170  0.7954  0.3813  0.6293
 2669TIP3    H129422   4.379   1.960   4.101  0.2127 -1.5063 -1.2685
 2669TIP3    H229423   4.393   1.827   4.173 -0.2905 -0.3586  1.0106
 2670TIP3   OH229424   4.031   1.593  11.479  0.3653  0.7069 -0.4302
 2670TIP3    H129425   3.958   1.629  11.528  0.1755  1.7985 -1.4570
 2670TIP3    H229426   4.008   1.502  11.463 -0.5951  0.9384 -0.4079
 2671TIP3   OH229427   1.229   1.908   5.240 -0.8724  0.9584 -0.4227
 2671TIP3    H129428   1.237   1.980   5.178 -3.3225  3.0134  1.4237
 2671TIP3    H229429   1.296   1.926   5.306 -0.4875  0.6892 -0.7405
 2672TIP3   OH229430   5.222   2.353  13.842 -0.0808 -0.1654 -0.1853
 2672TIP3    H129431   5.281   2.417  13.802  0.0840  0.0126  0.3458
 2672TIP3    H229432   5.179   2.401  13.913 -0.5817 -0.4046 -0.3210
 2673TIP3   OH229433   3.959   3.867  16.862 -0.9738  0.0920 -0.6476
 2673TIP3    H129434   4.020   3.897  16.795  0.2221 -0.8983 -0.0620
 2673TIP3    H229435   3.928   3.782  16.830  0.6305 -1.0379  0.5738
 2674TIP3   OH229436   5.861   5.554  15.168 -0.6243  0.2182 -0.4310
 2674TIP3    H129437   5.837   5.645  15.153 -0.3180  0.1378 -1.5192
 2674TIP3    H229438   5.841   5.510  15.085 -0.5237 -0.6495 -0.0083
 2675TIP3   OH229439   6.094   2.541  16.947 -0.1230  0.1885 -0.5359
 2675TIP3    H129440   6.184   2.510  16.958  0.8146  2.9405  0.5641
 2675TIP3    H229441   6.096   2.591  16.865 -1.2083 -1.2935 -1.5214
 2676TIP3   OH229442   2.564   3.772  11.163  0.2677 -0.0271 -0.4597
 2676TIP3    H129443   2.492   3.811  11.213  1.4521  0.1364  1.1736
 2676TIP3    H229444   2.542   3.792  11.072 -1.8531 -0.1595 -0.0428
 2677TIP3   OH229445   4.386   5.889  13.392 -0.0809  0.0331  0.0485
 2677TIP3    H129446   4.295   5.921  13.394 -0.3662 -0.7121  2.4811
 2677TIP3    H229447   4.387   5.816  13.453  2.2170  0.1099  0.1936
 2678TIP3   OH229448   3.281   5.873  14.171  0.0964 -0.0661  0.0376
 2678TIP3    H129449   3.240   5.909  14.250  1.2875  0.4170  0.4572
 2678TIP3    H229450   3.366   5.840  14.201 -0.3792 -2.0241 -0.6056
 2679TIP3   OH229451   5.494   5.108  16.837 -0.0648 -0.1890  0.6664
 2679TIP3    H129452   5.518   5.162  16.762 -0.2437  0.0694  0.7925
 2679TIP3    H229453   5.556   5.036  16.836  2.2576  1.6546  2.3486
 2680TIP3   OH229454   5.581   3.884  14.999  0.3405  0.0119  0.0210
 2680TIP3    H129455   5.592   3.979  15.003  1.9914 -0.1817  0.8390
 2680TIP3    H229456   5.528   3.863  15.076 -0.9291  0.3558 -0.7337
 2681TIP3   OH229457   4.740   1.323  12.387 -0.3496 -0.3698  0.2252
 2681TIP3    H129458   4.723   1.250  12.327 -0.5091 -0.6478  0.6077
 2681TIP3    H229459   4.832   1.315  12.410 -0.3952 -0.5153  0.3547
 2682TIP3   OH229460   3.010   0.829  15.919 -0.1153  0.4786 -0.4029
 2682TIP3    H129461   2.915   0.821  15.929 -0.1862  0.8275 -0.7564
 2682TIP3    H229462   3.037   0.889  15.988  0.3072 -1.9953  1.7424
 2683TIP3   OH229463   6.511   6.727  16.934  0.5687  0.2907 -0.5919
 2683TIP3    H129464   6.503   6.729  16.839  0.3493  0.3792 -0.5718
 2683TIP3    H229465   6.502   6.819  16.961  0.3243  0.2299 -0.4613
 2684TIP3   OH229466   0.924   5.546   0.807  0.1646 -0.7546 -0.7288
 2684TIP3    H129467   0.939   5.638   0.827 -0.2076 -0.5852 -1.2198
 2684TIP3    H229468   0.995   5.500   0.852  0.4020 -0.2214 -0.5531
 2685TIP3   OH229469   2.465   3.385   1.986 -0.0671 -0.3040  0.6867
 2685TIP3    H129470   2.491   3.322   1.918  2.1899 -0.7996  1.9048
 2685TIP3    H229471   2.486   3.471   1.950 -1.8322 -0.3039 -0.4292
 2686TIP3   OH229472   5.496   6.092   1.575  0.4513  0.3925 -0.6633
 2686TIP3    H129473   5.403   6.070   1.578  0.2905  1.0623 -0.7370
 2686TIP3    H229474   5.507   6.157   1.644  0.9420  0.0396 -0.4033
 2687TIP3   OH229475   0.780   0.573   0.390 -1.1057 -0.4103  0.3003
 2687TIP3    H129476   0.859   0.549   0.439 -0.4267 -2.1292 -1.4961
 2687TIP3    H229477   0.783   0.669   0.386  1.7306 -0.4307 -0.9220
 2688TIP3   OH229478   4.985   6.621   6.519 -0.5485  1.1121 -0.3737
 2688TIP3    H129479   4.913   6.683   6.516 -1.0103  0.7902  1.8389
 2688TIP3    H229480   5.061   6.669   6.485 -1.9019  1.1936 -3.5322
 2689TIP3   OH229481   1.563   3.387  14.218 -0.1202 -0.3538 -0.0049
 2689TIP3    H129482   1.572   3.333  14.139  0.0686 -1.5179  0.7822
 2689TIP3    H229483   1.475   3.366  14.251  0.1607 -0.5910  0.6008
 2690TIP3   OH229484   0.652   4.172  13.330  0.0160 -0.0661  0.1411
 2690TIP3    H129485   0.718   4.102  13.333 -0.7007 -0.7743 -0.2472
 2690TIP3    H229486   0.634   4.192  13.422  2.1719  1.5163  0.2895
 2691TIP3   OH229487   3.328   5.031  10.915  0.6064  0.4889 -0.2424
 2691TIP3    H129488   3.294   5.083  10.842  0.5631 -0.5328 -0.9739
 2691TIP3    H229489   3.250   4.994  10.957  0.6410  0.9309  0.2221
 2692TIP3   OH229490   0.196   6.432   3.466 -0.0402  0.0181 -0.3060
 2692TIP3    H129491   0.138   6.356   3.466 -0.5071  0.3018  2.0089
 2692TIP3    H229492   0.159   6.491   3.400 -1.2037 -0.6402 -0.2560
 2693TIP3   OH229493   6.198   3.517  12.273  0.1065  0.8541  0.2675
 2693TIP3    H129494   6.152   3.435  12.288 -2.0693  1.9217 -0.1432
 2693TIP3    H229495   6.191   3.531  12.178 -0.2562  1.8847  0.4347
 2694TIP3   OH229496   4.256   5.293  15.524  0.2060 -0.7494 -0.1439
 2694TIP3    H129497   4.252   5.341  15.607 -0.5574  0.8906 -1.0717
 2694TIP3    H229498   4.206   5.213  15.540 -0.8350  0.0284  0.6959
 2695TIP3   OH229499   5.148   1.129   5.955  0.4472  0.4977  0.1163
 2695TIP3    H129500   5.206   1.156   6.027  1.8959  0.3754 -0.9404
 2695TIP3    H229501   5.080   1.077   5.996  0.0910  2.0888  1.6466
 2696TIP3   OH229502   0.177   6.133  15.364  0.3328 -0.1715  0.1840
 2696TIP3    H129503   0.156   6.103  15.275 -0.0518 -1.2492  0.6148
 2696TIP3    H229504   0.270   6.112  15.375  0.8587  1.5599 -0.5496
 2697TIP3   OH229505   4.603   6.497  15.114 -0.9291  0.4994  0.0237
 2697TIP3    H129506   4.534   6.514  15.050 -0.0606  1.9530 -0.5792
 2697TIP3    H229507   4.684   6.503  15.064 -0.3053  0.1534  0.9733
 2698TIP3   OH229508   6.417   0.821  14.632 -0.1933  0.5279 -0.0515
 2698TIP3    H129509   6.328   0.821  14.667 -0.5259 -0.5676 -0.8268
 2698TIP3    H229510   6.412   0.767  14.553  1.1000  0.6817 -0.2672
 2699TIP3   OH229511   4.638   0.313  16.995 -0.0761  0.2149 -0.3078
 2699TIP3    H129512   4.617   0.245  17.059  1.3275  0.1227  0.0737
 2699TIP3    H229513   4.693   0.269  16.930  2.9560  1.4548  1.2266
 2700TIP3   OH229514   3.397   0.670  15.307 -0.2968  0.2493 -0.2537
 2700TIP3    H129515   3.354   0.585  15.306  1.2706 -0.6363 -3.3442
 2700TIP3    H229516   3.326   0.733  15.305 -1.4821 -0.9155  1.7906
 2701TIP3   OH229517   0.460   2.533  16.817  0.1702  0.4779 -0.2518
 2701TIP3    H129518   0.443   2.440  16.834  1.4484  0.2285 -0.2105
 2701TIP3    H229519   0.550   2.535  16.785  0.5990  1.8198  0.9283
 2702TIP3   OH229520   4.993   4.419  11.727  0.0756  0.7471 -0.0196
 2702TIP3    H129521   5.073   4.471  11.720  1.2134 -0.6167  1.8847
 2702TIP3    H229522   5.021   4.337  11.768 -1.8502 -0.9062 -1.7771
 2703TIP3   OH229523   3.630   4.459  15.719 -0.1397  0.4000 -0.0760
 2703TIP3    H129524   3.534   4.449  15.719 -0.1809  0.5194  1.5723
 2703TIP3    H229525   3.654   4.460  15.626 -1.8592  1.5949 -0.5515
 2704TIP3   OH229526   2.704   3.922  16.797 -0.1460  0.1871 -0.4734
 2704TIP3    H129527   2.657   3.983  16.740 -2.5233 -0.4061  0.6868
 2704TIP3    H229528   2.665   3.836  16.777 -0.8600 -0.0763  1.7540
 2705TIP3   OH229529   2.584   4.088   1.056 -0.2307 -0.0411 -0.3618
 2705TIP3    H129530   2.628   4.016   1.012  0.8084  0.8448 -0.8305
 2705TIP3    H229531   2.608   4.165   1.004 -0.8307  0.7172  0.4646
 2706TIP3   OH229532   6.447   3.026   0.298  0.1583  0.6966  0.3582
 2706TIP3    H129533   6.519   3.038   0.236 -1.1733 -2.2417 -1.9975
 2706TIP3    H229534   6.478   2.960   0.359 -0.2700 -0.1469 -0.3117
 2707TIP3   OH229535   3.217   6.795   1.648  0.8471  0.5827 -0.8022
 2707TIP3    H129536   3.220   6.716   1.593 -1.9513 -0.8552  0.8260
 2707TIP3    H229537   3.150   6.850   1.607  0.5579  0.6535 -0.2503
 2708TIP3   OH229538   0.230   5.540  14.591 -0.9430 -0.0910  0.1044
 2708TIP3    H129539   0.175   5.481  14.539 -1.8348  0.9624 -0.1805
 2708TIP3    H229540   0.205   5.628  14.563  0.3195  0.4399  0.5689
 2709TIP3   OH229541   1.949   2.914   2.862 -0.0152  0.0268 -0.1736
 2709TIP3    H129542   1.980   2.944   2.777  1.2227  0.3070  0.3591
 2709TIP3    H229543   2.023   2.929   2.922 -1.4749  1.6221  1.3522
 2710TIP3   OH229544   1.455   5.592   6.190  0.6897 -0.5307 -0.0271
 2710TIP3    H129545   1.521   5.545   6.241  1.8710  2.1434  1.0967
 2710TIP3    H229546   1.474   5.570   6.099  0.3461 -3.1623  0.4643
 2711TIP3   OH229547   4.602   5.352  15.509 -0.2529  0.3279  0.5393
 2711TIP3    H129548   4.583   5.295  15.434  1.1973  0.1846  0.2610
 2711TIP3    H229549   4.576   5.300  15.585  2.8272 -1.6122  0.4437
 2712TIP3   OH229550   5.812   6.056  16.809 -0.4471 -0.0820 -0.1117
 2712TIP3    H129551   5.859   6.126  16.764  0.1284 -0.8296 -0.7081
 2712TIP3    H229552   5.877   6.018  16.868  0.1743 -2.0088 -1.9207
 2713TIP3   OH229553   6.068   4.083  15.698 -0.3372 -0.3371  0.2238
 2713TIP3    H129554   6.000   4.111  15.637 -1.1175 -1.2954  0.6324
 2713TIP3    H229555   6.034   4.002  15.737  0.6681 -0.3816  1.0543
 2714TIP3   OH229556   6.530   3.662   3.792 -0.5057  0.2697  0.0735
 2714TIP3    H129557   6.605   3.611   3.821 -1.3254 -0.0198  1.8031
 2714TIP3    H229558   6.566   3.750   3.776  0.4171 -0.1748 -0.3691
 2715TIP3   OH229559   1.155   3.720   5.776  0.6251 -0.4932 -0.0339
 2715TIP3    H129560   1.200   3.800   5.801 -1.1466  0.4706  0.2245
 2715TIP3    H229561   1.136   3.731   5.683 -1.5434  0.4577  0.4430
 2716TIP3   OH229562   4.292   3.318   0.991  0.3427 -0.3035  0.2337
 2716TIP3    H129563   4.268   3.372   1.066 -0.7822 -0.4029 -0.0353
 2716TIP3    H229564   4.269   3.229   1.018 -1.1398 -0.2033 -0.6379
 2717TIP3   OH229565   0.428   0.174   4.197 -0.5567  0.4679 -0.3846
 2717TIP3    H129566   0.493   0.227   4.151 -0.3656  0.3535 -0.2436
 2717TIP3    H229567   0.354   0.169   4.135 -0.3488  0.4171 -0.6303
 2718TIP3   OH229568   5.473   5.715   1.114 -0.3194 -0.2031 -0.3798
 2718TIP3    H129569   5.408   5.651   1.142  0.5800 -1.5084 -1.1197
 2718TIP3    H229570   5.526   5.730   1.192  0.3300 -1.4996 -0.5315
 2719TIP3   OH229571   0.997   1.086  12.906  0.1964  0.3539 -0.2562
 2719TIP3    H129572   1.070   1.121  12.854 -0.4950  1.3264 -0.6036
 2719TIP3    H229573   0.980   1.000  12.868 -0.1261  0.9400 -1.5115
 2720TIP3   OH229574   4.434   1.891   5.142 -0.1861 -0.1554 -0.8046
 2720TIP3    H129575   4.409   1.947   5.069 -0.3356 -0.7093 -1.1889
 2720TIP3    H229576   4.491   1.825   5.103  1.6834  0.9008 -0.0111
 2721TIP3   OH229577   4.889   4.768  11.790 -0.0420  0.1203  0.3399
 2721TIP3    H129578   4.881   4.730  11.703 -0.6152  0.5496  0.1956
 2721TIP3    H229579   4.926   4.855  11.775  0.1683  0.0676  0.5523
 2722TIP3   OH229580   6.648   1.700  14.924 -0.1310 -0.1164  0.1213
 2722TIP3    H129581   6.659   1.727  14.833 -2.6858  1.9473  0.3271
 2722TIP3    H229582   6.641   1.781  14.973  0.5730 -1.1918  2.1272
 2723TIP3   OH229583   5.347   1.401   5.471 -0.0017 -0.4515 -0.2419
 2723TIP3    H129584   5.339   1.368   5.381 -0.6648 -1.2003  0.0832
 2723TIP3    H229585   5.280   1.469   5.477  0.1841 -0.2541 -0.3715
 2724TIP3   OH229586   6.677   3.534   0.320 -0.1511 -0.3373 -0.1179
 2724TIP3    H129587   6.604   3.595   0.321 -0.6181 -0.8283 -1.5744
 2724TIP3    H229588   6.699   3.524   0.228 -0.5141 -2.8313 -0.0159
 2725TIP3   OH229589   1.531   5.437   3.733 -0.3595 -0.1079  0.2624
 2725TIP3    H129590   1.584   5.516   3.735  1.8895 -1.4721 -0.6966
 2725TIP3    H229591   1.533   5.409   3.641 -3.0856 -0.0661  0.1174
 2726TIP3   OH229592   1.674   2.261   5.668 -0.3777  0.1006 -0.2626
 2726TIP3    H129593   1.718   2.225   5.745 -2.0492  0.1169  0.7608
 2726TIP3    H229594   1.622   2.188   5.635 -0.4544  0.3824 -0.7730
 2727TIP3   OH229595   3.415   5.036   2.730 -0.2228 -0.3407 -0.2686
 2727TIP3    H129596   3.356   5.029   2.806 -1.6184  0.5216 -1.2357
 2727TIP3    H229597   3.500   5.058   2.769 -0.5044 -1.5469  1.1583
 2728TIP3   OH229598   4.355   1.672  12.633 -0.0662 -0.0984 -0.3216
 2728TIP3    H129599   4.423   1.673  12.566  1.0322 -0.2596  0.7671
 2728TIP3    H229600   4.274   1.656  12.584  0.5483  0.9279 -1.7340
 2729TIP3   OH229601   3.078   4.685  15.666  0.5024  0.3272  0.2206
 2729TIP3    H129602   3.013   4.751  15.639  0.1361  0.0633  0.4561
 2729TIP3    H229603   3.027   4.619  15.713  0.8275 -0.2719 -0.2575
 2730TIP3   OH229604   0.629   0.488   2.394  0.2463  0.0577 -0.0165
 2730TIP3    H129605   0.711   0.498   2.346  0.5469  0.3127  0.5426
 2730TIP3    H229606   0.561   0.515   2.332  0.4968 -1.0114 -0.7794
 2731TIP3   OH229607   6.422   3.465   0.140 -0.2455  0.0830  0.0487
 2731TIP3    H129608   6.420   3.393   0.203  1.8553 -0.6148 -0.6147
 2731TIP3    H229609   6.430   3.544   0.194  0.9251 -0.4617  0.7079
 2732TIP3   OH229610   4.140   0.391   2.743  0.1865 -0.3694  0.5717
 2732TIP3    H129611   4.180   0.307   2.764 -0.7506 -0.9532  0.0906
 2732TIP3    H229612   4.126   0.388   2.648 -0.2929  0.1281  0.6187
 2733TIP3   OH229613   3.800   1.803  15.389  0.0376 -0.2870  0.0324
 2733TIP3    H129614   3.884   1.816  15.433  1.2233  0.6404 -2.3445
 2733TIP3    H229615   3.735   1.835  15.451  1.4148 -0.9307  1.8868
 2734TIP3   OH229616   2.117   1.541  13.539  0.4790  0.1845 -0.2611
 2734TIP3    H129617   2.153   1.462  13.498 -1.0566  0.2734 -1.9118
 2734TIP3    H229618   2.080   1.591  13.466  0.1582  1.7600  0.9232
 2735TIP3   OH229619   4.379   3.308  11.161  0.3371 -0.5025 -0.0734
 2735TIP3    H129620   4.415   3.321  11.249 -0.6642 -1.2597  0.4659
 2735TIP3    H229621   4.362   3.214  11.156 -0.9579 -0.2583 -0.5476
 2736TIP3   OH229622   3.724   3.178   3.152  0.0555  0.2537 -0.2084
 2736TIP3    H129623   3.706   3.142   3.239  0.1039  0.9955  0.1156
 2736TIP3    H229624   3.791   3.245   3.168 -0.9901  1.4152 -0.6134
 2737TIP3   OH229625   3.525   3.363  15.718  0.3302 -0.5342 -0.5554
 2737TIP3    H129626   3.518   3.427  15.788  4.1842 -0.5492  0.0502
 2737TIP3    H229627   3.588   3.401  15.657 -1.0230 -1.6440 -2.7929
 2738TIP3   OH229628   2.538   3.549  14.889 -0.7105  0.1124  0.1655
 2738TIP3    H129629   2.500   3.619  14.942  1.3209  1.2309  0.2576
 2738TIP3    H229630   2.578   3.490  14.953 -0.4246  0.1233  0.0003
 2739TIP3   OH229631   2.340   2.442   3.461  0.1995 -0.4462 -0.0158
 2739TIP3    H129632   2.394   2.512   3.498  2.7745 -2.0628 -0.3972
 2739TIP3    H229633   2.284   2.414   3.533 -0.3983  1.4890  0.3341
 2740TIP3   OH229634   6.051   6.594   4.065 -0.4098  0.1113 -0.4210
 2740TIP3    H129635   6.108   6.596   3.988  0.5684 -1.3698  0.2156
 2740TIP3    H229636   6.102   6.635   4.134  0.2871 -1.9341  0.3581
 2741TIP3   OH229637   6.326   2.716   0.938 -0.1273  0.0495  0.6944
 2741TIP3    H129638   6.268   2.642   0.919 -1.6904  1.1210  1.1411
 2741TIP3    H229639   6.273   2.776   0.991  1.7627  0.5384  2.1836
 2742TIP3   OH229640   5.000   4.070  15.978 -0.0707 -0.2275  0.4550
 2742TIP3    H129641   4.950   3.998  16.014 -1.2936 -0.0863 -0.8769
 2742TIP3    H229642   5.074   4.080  16.038  0.6395 -3.1453  0.2060
 2743TIP3   OH229643   1.963   2.232   2.202 -0.3179 -0.2765  0.5585
 2743TIP3    H129644   2.056   2.214   2.187 -0.5252 -1.4499  0.5781
 2743TIP3    H229645   1.924   2.146   2.215 -1.8136 -0.0268 -1.6443
 2744TIP3   OH229646   6.266   0.147   0.007 -0.1012  0.4629 -0.1781
 2744TIP3    H129647   6.355   0.160  -0.026 -0.4238  1.1579 -0.8040
 2744TIP3    H229648   6.234   0.235   0.027 -1.0207  0.3381 -0.9938
 2745TIP3   OH229649   2.858   4.279  12.992 -0.3341 -0.2559 -0.0499
 2745TIP3    H129650   2.937   4.280  12.938 -0.8914  1.1388 -0.8991
 2745TIP3    H229651   2.869   4.353  13.052 -0.5542 -0.6576  0.4845
 2746TIP3   OH229652   4.549   4.867   6.319 -0.5337  0.1355  0.9743
 2746TIP3    H129653   4.581   4.849   6.408  0.8643  1.4499  0.7776
 2746TIP3    H229654   4.454   4.872   6.329 -0.4876 -0.7972  2.1822
 2747TIP3   OH229655   4.630   1.650  17.027  0.3897  0.4870 -0.0172
 2747TIP3    H129656   4.599   1.737  17.054 -1.5545  0.0498 -0.6678
 2747TIP3    H229657   4.675   1.665  16.944 -1.4265  0.7065 -1.0120
 2748TIP3   OH229658   5.375   4.648  16.242  0.2734 -0.1543 -0.6211
 2748TIP3    H129659   5.301   4.588  16.247 -0.8747  1.3084  1.4047
 2748TIP3    H229660   5.449   4.599  16.277 -0.7717 -0.2537  1.5747
 2749TIP3   OH229661   3.266   1.709  16.499  0.1279  0.7779 -0.0467
 2749TIP3    H129662   3.191   1.671  16.545 -1.4821  1.8927 -1.6038
 2749TIP3    H229663   3.342   1.673  16.544 -1.2858 -2.0689  0.3498
 2750TIP3   OH229664   0.462   6.731   4.373  0.5049 -0.6181  0.3782
 2750TIP3    H129665   0.478   6.824   4.388  2.1435 -0.6903 -0.6742
 2750TIP3    H229666   0.373   6.727   4.337  0.1765  0.4654  1.0424
 2751TIP3   OH229667   1.254   3.216   6.157  0.6472 -0.3437  0.6591
 2751TIP3    H129668   1.221   3.240   6.244  2.1766 -0.2640  1.2356
 2751TIP3    H229669   1.326   3.156   6.174  2.3486  1.2892 -0.4719
 2752TIP3   OH229670   2.497   2.613   5.717 -0.3264 -0.1008  0.0117
 2752TIP3    H129671   2.541   2.605   5.633 -0.0111 -0.3500  0.1953
 2752TIP3    H229672   2.419   2.664   5.699  0.6400  1.3966 -0.1142
 2753TIP3   OH229673   2.097   1.351   3.626 -0.1943 -0.0444  0.0074
 2753TIP3    H129674   2.187   1.325   3.607  0.3648  1.3732  0.5720
 2753TIP3    H229675   2.044   1.300   3.565  1.1633  0.7100 -1.8979
 2754TIP3   OH229676   0.117   5.143  16.091  0.0156 -0.6838  0.3968
 2754TIP3    H129677   0.064   5.078  16.046 -0.0455 -0.6451  0.4117
 2754TIP3    H229678   0.200   5.144  16.045 -1.3365  2.2567 -2.3634
 2755TIP3   OH229679   2.289   2.831  10.750  0.0458 -0.0937 -0.0605
 2755TIP3    H129680   2.285   2.735  10.746 -1.6513 -0.0349 -0.5461
 2755TIP3    H229681   2.198   2.858  10.767  0.2643  1.4816 -1.1855
 2756TIP3   OH229682   5.002   4.299   0.517  0.1464  0.4263 -0.4957
 2756TIP3    H129683   4.966   4.288   0.430 -1.8343  0.1763  0.3047
 2756TIP3    H229684   5.087   4.341   0.503 -0.1396  0.4029 -2.5153
 2757TIP3   OH229685   3.075   6.082   2.246 -0.1502  0.8432  0.2102
 2757TIP3    H129686   3.087   6.167   2.288  0.1101  0.6526  0.5327
 2757TIP3    H229687   3.024   6.100   2.167 -2.1669  0.9778  1.4948
 2758TIP3   OH229688   3.562   1.933  12.218  0.3208 -0.5350  0.1145
 2758TIP3    H129689   3.522   1.884  12.146  1.2699  0.0028 -0.8041
 2758TIP3    H229690   3.648   1.960  12.184  0.2923  0.7725  1.0022
 2759TIP3   OH229691   2.618   5.612  14.170 -0.3986  0.3563 -0.0296
 2759TIP3    H129692   2.538   5.586  14.216 -0.4280  1.3212  0.4997
 2759TIP3    H229693   2.597   5.698  14.133  0.0899  0.2067 -0.6723
 2760TIP3   OH229694   1.793   1.591   1.814  0.3239 -0.0101  0.6074
 2760TIP3    H129695   1.710   1.604   1.767  0.5709  0.7093  0.3547
 2760TIP3    H229696   1.798   1.496   1.829 -0.6075 -0.0432  0.7455
 2761TIP3   OH229697   1.365   0.271   3.994 -0.8383  0.5054  0.0135
 2761TIP3    H129698   1.421   0.194   4.009  0.8312  1.5933 -0.4062
 2761TIP3    H229699   1.392   0.303   3.908 -2.4583  0.8020 -0.4050
 2762TIP3   OH229700   1.601   4.067   0.808  0.3392 -0.1596  0.2631
 2762TIP3    H129701   1.611   4.112   0.724 -1.2304  0.3933  0.3539
 2762TIP3    H229702   1.591   3.975   0.784  0.2921 -0.0546 -0.1307
 2763TIP3   OH229703   1.603   5.695  14.444  0.2641  0.5729 -0.6493
 2763TIP3    H129704   1.587   5.663  14.355  1.7288 -1.0980 -0.3630
 2763TIP3    H229705   1.690   5.662  14.466  0.3269  1.7555  1.0756
 2764TIP3   OH229706   4.350   5.011   3.849 -0.4392  0.3059  0.0335
 2764TIP3    H129707   4.273   4.981   3.801 -0.4960 -0.0814  0.3649
 2764TIP3    H229708   4.421   5.008   3.784 -0.4932 -0.3140  0.0008
 2765TIP3   OH229709   2.100   3.528  15.695 -0.3666  0.1420 -0.3211
 2765TIP3    H129710   2.027   3.526  15.757  0.7701  1.5111  1.1475
 2765TIP3    H229711   2.075   3.595  15.631  0.2751  1.8764  1.1560
 2766TIP3   OH229712   1.822   0.554   5.920  0.3778  0.0692  0.3278
 2766TIP3    H129713   1.821   0.561   6.015  0.4944 -1.9305  0.5107
 2766TIP3    H229714   1.731   0.566   5.894  0.2566  0.0652  0.7383
 2767TIP3   OH229715   2.246   0.300  13.977 -0.2004 -0.1319 -0.0859
 2767TIP3    H129716   2.333   0.323  14.011  0.2135 -2.7860  0.9454
 2767TIP3    H229717   2.261   0.284  13.884  0.4945 -0.7909  0.1246
 2768TIP3   OH229718   6.713   3.693   4.482  1.0602 -0.0000  0.5861
 2768TIP3    H129719   6.792   3.645   4.506  0.2556 -1.3547  0.6507
 2768TIP3    H229720   6.670   3.713   4.565  0.5745 -0.6403  0.4990
 2769TIP3   OH229721   1.266   3.952   3.684  0.3689  0.1507  0.3833
 2769TIP3    H129722   1.210   3.960   3.761  0.0385 -1.9971  0.4232
 2769TIP3    H229723   1.207   3.964   3.610 -0.6522 -3.6502  0.3687
 2770TIP3   OH229724   6.345   2.081  14.697 -0.5197  0.0076  0.3818
 2770TIP3    H129725   6.323   2.170  14.726 -0.2980  0.3179 -0.3985
 2770TIP3    H229726   6.441   2.076  14.705 -0.4937 -0.0273  0.0424
 2771TIP3   OH229727   0.840   6.400   5.519 -0.3855 -0.7719 -0.0497
 2771TIP3    H129728   0.842   6.314   5.477  0.0788 -1.2295  0.8707
 2771TIP3    H229729   0.918   6.445   5.486 -1.3564 -0.1532 -1.6029
 2772TIP3   OH229730   0.813   2.854   1.134 -0.1358  0.3724  0.3296
 2772TIP3    H129731   0.748   2.785   1.121 -0.7826  1.0394 -0.0858
 2772TIP3    H229732   0.884   2.811   1.180 -0.2238 -0.7326 -0.5104
 2773TIP3   OH229733   4.850   3.577   3.810 -0.2448  0.3327 -0.7312
 2773TIP3    H129734   4.765   3.534   3.818  0.1651 -0.1648  4.1718
 2773TIP3    H229735   4.912   3.515   3.847  2.0323  1.4293 -2.4664
 2774TIP3   OH229736   3.377   5.076   4.210  0.4167 -0.5811 -0.4569
 2774TIP3    H129737   3.442   5.066   4.280  0.3802  1.0446 -0.1449
 2774TIP3    H229738   3.293   5.057   4.252  0.1371  2.4797  0.6135
 2775TIP3   OH229739   6.741   6.057  16.368 -0.1951 -0.5316  0.2854
 2775TIP3    H129740   6.828   6.058  16.406 -0.2264  2.3606  0.5367
 2775TIP3    H229741   6.686   6.105  16.431 -1.6157 -0.9790 -0.5575
 2776TIP3   OH229742   2.605   3.392   4.068  0.1249 -0.2877 -0.1162
 2776TIP3    H129743   2.556   3.314   4.041 -0.9670 -0.4892  2.2132
 2776TIP3    H229744   2.687   3.387   4.019 -0.0899 -2.6823 -0.3572
 2777TIP3   OH229745   3.245   6.176  11.639  0.1310  0.2130  0.3496
 2777TIP3    H129746   3.232   6.104  11.578  0.6358  0.5544 -0.1722
 2777TIP3    H229747   3.159   6.220  11.642 -0.2783 -0.6037  0.9457
 2778TIP3   OH229748   3.404   0.600   2.051  0.2380  0.3105  0.2987
 2778TIP3    H129749   3.396   0.592   2.146 -1.8851 -1.1211  0.0562
 2778TIP3    H229750   3.400   0.694   2.034 -0.6235  0.5162  1.5300
 2779TIP3   OH229751   0.339   0.759  16.130 -0.0696  0.2503  0.3075
 2779TIP3    H129752   0.409   0.695  16.114  0.0685 -0.1309  2.2635
 2779TIP3    H229753   0.315   0.747  16.222 -1.0569  2.0370  0.3305
 2780TIP3   OH229754   1.785   0.306   0.442  0.4385 -0.1396  0.3288
 2780TIP3    H129755   1.730   0.250   0.387  0.2524 -0.0319  0.4058
 2780TIP3    H229756   1.742   0.306   0.527  0.5101  0.0158  0.3648
 2781TIP3   OH229757   4.698   1.642   0.898 -0.0476 -0.9065 -0.3482
 2781TIP3    H129758   4.765   1.669   0.960 -0.8513  2.0133 -0.6214
 2781TIP3    H229759   4.626   1.704   0.912 -0.9825 -1.2961 -2.9673
 2782TIP3   OH229760   1.160   4.362  15.085 -0.1662 -0.2219  0.1817
 2782TIP3    H129761   1.254   4.345  15.080  0.1299  1.4877 -1.5926
 2782TIP3    H229762   1.121   4.277  15.103  1.7389 -0.8477  1.8396
 2783TIP3   OH229763   3.213   0.472   5.705 -0.0814  0.0607  0.6920
 2783TIP3    H129764   3.255   0.545   5.661 -0.8951 -0.5440 -1.1836
 2783TIP3    H229765   3.275   0.399   5.698 -0.1716 -0.0129  0.6540
 2784TIP3   OH229766   4.235   5.326  13.913 -0.6815  0.1469 -0.6098
 2784TIP3    H129767   4.172   5.398  13.917 -1.4543 -0.5752  0.8978
 2784TIP3    H229768   4.204   5.263  13.978  1.7873 -0.0940  0.4502
 2785TIP3   OH229769   3.678   4.023   1.124  0.6043  0.3363  0.1123
 2785TIP3    H129770   3.759   4.024   1.175  1.0230 -0.2945 -0.5225
 2785TIP3    H229771   3.706   4.009   1.033 -0.2192 -0.0747 -0.0968
 2786TIP3   OH229772   5.981   1.318   0.383  0.5544 -0.4893 -0.5426
 2786TIP3    H129773   6.014   1.396   0.337 -0.2438  1.6488  2.2844
 2786TIP3    H229774   5.886   1.325   0.378  0.4589 -0.5302  0.8924
 2787TIP3   OH229775   0.083   4.346  15.781  0.3141 -0.3521 -0.0327
 2787TIP3    H129776   0.165   4.297  15.775  0.5987  0.1169 -0.0067
 2787TIP3    H229777   0.016   4.278  15.793  0.9073 -0.6509  2.1214
 2788TIP3   OH229778   2.852   3.962   4.651 -0.0554  0.1786 -0.0452
 2788TIP3    H129779   2.939   3.927   4.630  0.3577  0.8032  0.5406
 2788TIP3    H229780   2.792   3.914   4.594  0.3907 -1.9085  1.1295
 2789TIP3   OH229781   6.383   4.919   5.330 -0.3480 -0.1516 -0.5395
 2789TIP3    H129782   6.473   4.946   5.311 -0.6114 -0.2397 -2.0862
 2789TIP3    H229783   6.373   4.836   5.283 -1.4325  0.2033 -0.9602
 2790TIP3   OH229784   2.691   5.336   2.342 -0.2681  0.0477  1.0808
 2790TIP3    H129785   2.718   5.276   2.410  0.8526  0.1807  0.7700
 2790TIP3    H229786   2.737   5.307   2.263 -2.1065 -0.5646  0.1643
 2791TIP3   OH229787   6.419   4.379  13.968  0.4931  0.8568  0.1994
 2791TIP3    H129788   6.415   4.321  14.044  1.3101  1.7184  0.9331
 2791TIP3    H229789   6.334   4.423  13.968  0.7211  1.3180  1.0121
 2792TIP3   OH229790   5.773   3.108  13.874 -0.2819  0.2568  0.3808
 2792TIP3    H129791   5.812   3.189  13.841  1.1642 -0.5924 -0.1014
 2792TIP3    H229792   5.732   3.068  13.797  0.5269 -0.2888  0.2131
 2793TIP3   OH229793   6.442   3.919  15.896 -0.4595  0.0159 -0.2808
 2793TIP3    H129794   6.422   3.942  15.805 -0.2707  1.4144  0.0130
 2793TIP3    H229795   6.364   3.946  15.945 -0.3069 -0.1593  0.0604
 2794TIP3   OH229796   6.764   6.214  11.653  0.2044  0.1625 -0.1279
 2794TIP3    H129797   6.736   6.131  11.614  0.5874 -0.1554  0.2666
 2794TIP3    H229798   6.804   6.263  11.581  0.6580 -0.3069 -0.1972
 2795TIP3   OH229799   4.823   5.134   1.954  0.6085 -0.2053  0.4247
 2795TIP3    H129800   4.837   5.122   1.860  0.6053 -0.1797  0.4211
 2795TIP3    H229801   4.790   5.223   1.962  1.8612  0.2673  0.5699
 2796TIP3   OH229802   6.251   2.198  16.106  0.2070  0.8046  0.5207
 2796TIP3    H129803   6.286   2.110  16.098  2.4377  1.7115 -0.3915
 2796TIP3    H229804   6.274   2.226  16.195 -0.2961  0.5780  0.7275
 2797TIP3   OH229805   6.599   3.628   2.569  0.0703  0.1255  0.9164
 2797TIP3    H129806   6.692   3.630   2.548  0.1704  1.6956  1.4033
 2797TIP3    H229807   6.593   3.665   2.657 -0.9091 -1.0896  1.4076
 2798TIP3   OH229808   3.668   5.700   4.630  0.5705 -0.0722  0.1157
 2798TIP3    H129809   3.630   5.755   4.561 -0.5159 -0.8331  0.0849
 2798TIP3    H229810   3.695   5.620   4.585 -0.7455 -0.8495  0.6471
 2799TIP3   OH229811   4.989   1.110  10.934  0.2506 -0.0092 -0.1575
 2799TIP3    H129812   5.028   1.145  10.854  1.1142  1.7404  0.9613
 2799TIP3    H229813   4.910   1.163  10.948 -0.1202 -0.5769 -0.0524
 2800TIP3   OH229814   4.385   4.283  13.264 -0.2706  0.3554  0.1780
 2800TIP3    H129815   4.457   4.326  13.310 -0.8396 -0.1187  1.5712
 2800TIP3    H229816   4.414   4.193  13.253 -1.2334 -0.2460  2.1609
 2801TIP3   OH229817   6.136   1.637   2.999 -0.4239 -0.3524 -0.4442
 2801TIP3    H129818   6.230   1.646   2.982 -0.7621 -0.1182 -2.3655
 2801TIP3    H229819   6.103   1.727   2.997 -0.9864 -0.5679 -1.8077
 2802TIP3   OH229820   6.033   3.884  14.605 -0.3322  0.1905  0.3966
 2802TIP3    H129821   6.088   3.868  14.682 -0.1045 -0.1204  0.1702
 2802TIP3    H229822   5.950   3.842  14.625 -0.1900 -0.1033  0.3709
 2803TIP3   OH229823   3.360   3.804  12.591 -0.1243  0.0005  0.2347
 2803TIP3    H129824   3.274   3.824  12.628  0.2218  0.2270  0.9290
 2803TIP3    H229825   3.368   3.709  12.601 -1.1997 -0.3846 -1.8411
 2804TIP3   OH229826   4.602   4.956   4.117 -0.5981  0.4999  0.0751
 2804TIP3    H129827   4.528   5.007   4.149 -0.5263  1.1448 -0.7527
 2804TIP3    H229828   4.646   5.015   4.055 -0.3804 -0.4876 -0.7245
 2805TIP3   OH229829   2.549   6.225   3.399  0.4288  0.3972  0.0279
 2805TIP3    H129830   2.535   6.267   3.484  1.6577  0.2783  0.3212
 2805TIP3    H229831   2.483   6.156   3.395  1.0523 -0.3351  1.4276
 2806TIP3   OH229832   0.714   4.904   3.043  0.0878  0.0508  0.3073
 2806TIP3    H129833   0.759   4.885   3.125  1.5109  0.7466 -0.2783
 2806TIP3    H229834   0.780   4.887   2.975 -2.0406 -4.1508 -1.0793
 2807TIP3   OH229835   5.762   0.731   3.061 -0.8992  0.6025 -0.2189
 2807TIP3    H129836   5.729   0.661   3.116 -1.6959  1.1701  0.0433
 2807TIP3    H229837   5.776   0.690   2.976  1.8672 -0.6703  0.7450
 2808TIP3   OH229838   2.258   2.333  14.580 -0.2356 -0.3259 -0.1202
 2808TIP3    H129839   2.235   2.319  14.489  0.0749 -0.7285 -0.1388
 2808TIP3    H229840   2.305   2.417  14.581 -3.4090  1.6122  0.2078
 2809TIP3   OH229841   3.525   4.744   3.667  0.6407 -0.4966  0.4363
 2809TIP3    H129842   3.560   4.693   3.593  3.3661  1.1978  0.4223
 2809TIP3    H229843   3.600   4.756   3.725  0.3399  3.7368  0.2573
 2810TIP3   OH229844   1.746   1.901  16.453 -0.8247 -0.1639  0.3524
 2810TIP3    H129845   1.760   1.807  16.440  1.7734  0.3089 -0.8491
 2810TIP3    H229846   1.805   1.924  16.524  0.9235  1.0526 -1.4024
 2811TIP3   OH229847   1.703   4.199  11.279  0.0379 -0.2945  0.4364
 2811TIP3    H129848   1.694   4.254  11.201  1.5822 -0.0209  0.4034
 2811TIP3    H229849   1.654   4.119  11.259 -0.7470  0.3407 -0.2370
 2812TIP3   OH229850   0.151   1.371   0.057  0.5685 -0.2140  0.4133
 2812TIP3    H129851   0.132   1.465   0.053  0.1421 -0.2583  1.1623
 2812TIP3    H229852   0.205   1.354  -0.020 -0.3760  0.4148 -0.4168
 2813TIP3   OH229853   6.535   5.464  13.020 -0.0290  0.0217 -0.2789
 2813TIP3    H129854   6.475   5.427  13.085  0.1898  0.0089 -0.0853
 2813TIP3    H229855   6.504   5.554  13.008 -1.1353 -0.4704 -1.4257
 2814TIP3   OH229856   3.408   5.223  16.121 -0.1990  0.1927  0.0477
 2814TIP3    H129857   3.495   5.213  16.160 -0.9786 -2.4957  1.3778
 2814TIP3    H229858   3.406   5.159  16.050 -0.6674  1.1677 -0.8331
 2815TIP3   OH229859   0.799   5.930  13.859  1.0570 -0.3485 -0.1413
 2815TIP3    H129860   0.792   6.026  13.862 -0.5309 -0.4583  0.8506
 2815TIP3    H229861   0.732   5.899  13.920  2.3725 -2.0857  0.5187
 2816TIP3   OH229862   3.846   0.765   4.892  0.1015 -0.2883 -0.3600
 2816TIP3    H129863   3.784   0.838   4.886 -0.2279 -0.6309 -1.2988
 2816TIP3    H229864   3.929   0.807   4.912 -0.2398  0.2770 -0.1038
 2817TIP3   OH229865   0.127   3.130   5.501 -0.2084  0.3612 -0.4996
 2817TIP3    H129866   0.038   3.140   5.467 -0.5593 -2.0511 -0.4872
 2817TIP3    H229867   0.118   3.142   5.595 -0.4170  0.6583 -0.5559
 2818TIP3   OH229868   3.053   6.659  13.153  0.6329  0.4986 -0.0166
 2818TIP3    H129869   3.113   6.586  13.166  1.0390  0.4988 -1.7599
 2818TIP3    H229870   2.976   6.636  13.205  1.2610 -0.5342  0.4875
 2819TIP3   OH229871   4.422   2.228   5.216 -0.0804 -0.3888 -0.2025
 2819TIP3    H129872   4.437   2.168   5.143  1.5457  0.1306 -0.3294
 2819TIP3    H229873   4.401   2.170   5.290 -2.1354 -0.8990 -1.1268
 2820TIP3   OH229874   1.430   4.582  15.024  0.5509 -0.1469  0.1346
 2820TIP3    H129875   1.357   4.634  14.991  0.3584 -0.3730  0.2040
 2820TIP3    H229876   1.502   4.645  15.032  0.7997 -0.2198 -1.3322
 2821TIP3   OH229877   2.179   1.874   1.338 -0.4728 -0.1660  0.3566
 2821TIP3    H129878   2.160   1.811   1.268  0.8028 -0.1700 -0.0129
 2821TIP3    H229879   2.274   1.877   1.342 -0.5213  0.2777  1.7077
 2822TIP3   OH229880   2.302   0.043  14.945 -0.0009 -0.4749 -0.3016
 2822TIP3    H129881   2.337  -0.016  15.011  0.5978  2.1175  1.8668
 2822TIP3    H229882   2.218   0.004  14.919  0.0678 -1.9367  1.5001
 2823TIP3   OH229883   5.201   1.323   3.584  0.0159 -0.3239 -0.2736
 2823TIP3    H129884   5.198   1.283   3.671  1.3618 -0.1956 -0.1481
 2823TIP3    H229885   5.156   1.261   3.527 -0.4234 -0.6534  0.4189
 2824TIP3   OH229886   5.821   3.408   3.712  0.5088  0.0971  0.2236
 2824TIP3    H129887   5.865   3.487   3.679 -0.2716  0.2166 -0.5563
 2824TIP3    H229888   5.730   3.419   3.686  0.2027 -0.6170  0.9674
 2825TIP3   OH229889   2.132   3.395   2.600  0.3931 -0.0433  0.6003
 2825TIP3    H129890   2.101   3.305   2.585 -1.0716  0.8164 -2.1675
 2825TIP3    H229891   2.068   3.432   2.661 -1.4602  0.2595 -1.3997
 2826TIP3   OH229892   3.540   3.283   5.956 -0.2345 -0.2795  0.2947
 2826TIP3    H129893   3.622   3.319   5.990 -0.4741 -0.5776  1.2461
 2826TIP3    H229894   3.536   3.311   5.865  1.0296 -0.4499  0.1732
 2827TIP3   OH229895   6.135   4.805   0.303 -0.5153 -0.3465 -0.4363
 2827TIP3    H129896   6.162   4.897   0.305  0.6453 -0.6658 -0.4346
 2827TIP3    H229897   6.165   4.774   0.218  2.5043 -1.6494  0.9607
 2828TIP3   OH229898   3.408   2.931  12.228  0.0536 -0.2849 -0.4073
 2828TIP3    H129899   3.343   2.882  12.178 -0.9759  0.4466  0.1676
 2828TIP3    H229900   3.386   2.914  12.319  0.2089  0.5725 -0.2039
 2829TIP3   OH229901   4.571   6.029  16.587 -1.1865 -0.4550  0.1299
 2829TIP3    H129902   4.563   6.058  16.678 -1.7193  0.5247 -0.2193
 2829TIP3    H229903   4.529   5.943  16.586  1.2290 -1.7628  1.3743
 2830TIP3   OH229904   5.133   5.631   2.960 -0.9545 -0.1722  0.4557
 2830TIP3    H129905   5.117   5.665   2.872 -0.8909  1.7483  1.1205
 2830TIP3    H229906   5.047   5.601   2.990 -1.7342  2.2080  0.8783
 2831TIP3   OH229907   2.600   2.285  16.021 -0.2542  0.1436 -0.3011
 2831TIP3    H129908   2.595   2.208  15.963 -1.6440 -0.8093  1.0289
 2831TIP3    H229909   2.686   2.278  16.062 -0.3533 -0.6812 -0.2224
 2832TIP3   OH229910   2.195   0.863  10.539 -0.3446  0.0150 -0.5912
 2832TIP3    H129911   2.229   0.808  10.468  2.2910  2.0305 -1.0453
 2832TIP3    H229912   2.244   0.835  10.617  0.0324  0.7751 -0.5455
 2833TIP3   OH229913   3.713   5.730   5.565  0.1304 -0.0682 -0.4486
 2833TIP3    H129914   3.693   5.637   5.563 -1.6685  0.1328  2.1257
 2833TIP3    H229915   3.733   5.748   5.657 -0.8739  2.2964 -0.6111
 2834TIP3   OH229916   6.263   4.487  11.351 -0.0651 -0.1704 -0.0180
 2834TIP3    H129917   6.209   4.556  11.390  2.4614  0.6912  2.2400
 2834TIP3    H229918   6.240   4.489  11.258 -1.9860  1.8810  0.4050
 2835TIP3   OH229919   6.773   3.604   1.848  0.1555 -0.0001  0.2264
 2835TIP3    H129920   6.785   3.514   1.817  0.4325 -0.1058  0.6363
 2835TIP3    H229921   6.778   3.597   1.944  2.4563  0.7742  0.2040
 2836TIP3   OH229922   6.128   6.450  10.940  0.1501 -0.4011  0.0337
 2836TIP3    H129923   6.090   6.371  10.903  0.5172 -1.1203  1.1436
 2836TIP3    H229924   6.075   6.521  10.903 -0.4711 -1.1840 -0.6255
 2837TIP3   OH229925   0.915   2.058  13.531  0.1910 -0.0002  0.1087
 2837TIP3    H129926   0.922   2.089  13.622 -0.2931  1.6064 -0.3604
 2837TIP3    H229927   0.996   2.090  13.490  0.7990 -1.4180  0.1264
 2838TIP3   OH229928   2.765   5.907   5.136  0.4091  0.5232 -0.3593
 2838TIP3    H129929   2.676   5.890   5.104  0.0570  3.2428 -1.0700
 2838TIP3    H229930   2.778   6.000   5.120  2.7128  0.5907  1.4985
 2839TIP3   OH229931   5.712   1.306  14.260 -0.1558 -0.1025 -0.1961
 2839TIP3    H129932   5.644   1.238  14.254 -0.2111 -0.1504  0.8169
 2839TIP3    H229933   5.667   1.387  14.236 -1.3432  0.3360  2.9973
 2840TIP3   OH229934   4.246   2.452   5.139 -0.5786  0.7293  0.1813
 2840TIP3    H129935   4.278   2.367   5.169 -1.4717  0.6987  1.1024
 2840TIP3    H229936   4.318   2.513   5.157 -0.5559  0.4512  1.0825
 2841TIP3   OH229937   5.130   5.120  15.183  0.0325 -0.0743 -0.6365
 2841TIP3    H129938   5.103   5.208  15.209 -1.1364  0.1556 -2.4294
 2841TIP3    H229939   5.225   5.124  15.179  0.0937  0.5944  0.9507
 2842TIP3   OH229940   1.679   2.877   2.762 -0.3787 -0.5613  0.4091
 2842TIP3    H129941   1.680   2.962   2.718  1.3959 -0.4992  0.4828
 2842TIP3    H229942   1.770   2.865   2.792 -0.8309 -2.0264  1.2769
 2843TIP3   OH229943   4.103   5.699   3.328 -0.0503  0.2199 -0.3000
 2843TIP3    H129944   4.099   5.615   3.375  1.6896  0.0512 -0.4096
 2843TIP3    H229945   4.186   5.737   3.354 -0.6504  1.7601 -0.5661
 2844TIP3   OH229946   1.741   3.505   1.996 -0.3110  0.7281  0.8762
 2844TIP3    H129947   1.653   3.472   2.010  0.3663 -1.4318  0.4045
 2844TIP3    H229948   1.797   3.445   2.045  1.3152 -1.1997 -2.9863
 2845TIP3   OH229949   1.471   3.147   0.967 -0.4360  0.8238 -0.2442
 2845TIP3    H129950   1.440   3.163   1.056  1.3285  1.8042  0.2626
 2845TIP3    H229951   1.397   3.171   0.910 -0.9815  1.9776  0.9061
 2846TIP3   OH229952   5.538   3.643   5.666  0.9068  0.3274 -0.8673
 2846TIP3    H129953   5.592   3.617   5.591  1.5854  1.0435 -0.6510
 2846TIP3    H229954   5.602   3.665   5.734  0.3489 -3.4635  1.1319
 2847TIP3   OH229955   0.415   5.324   0.988 -0.1469  0.0238  0.2528
 2847TIP3    H129956   0.367   5.406   1.005 -1.9413 -1.0486  0.6655
 2847TIP3    H229957   0.356   5.256   1.019  1.8012 -1.3970  1.0098
 2848TIP3   OH229958   3.170   4.107   1.342 -0.0607 -0.2308 -0.2902
 2848TIP3    H129959   3.265   4.100   1.331 -0.2287 -0.6707 -1.5660
 2848TIP3    H229960   3.143   4.021   1.373  0.0564  0.1672  0.9639
 2849TIP3   OH229961   6.079   1.217   4.908  0.3199  0.0726 -0.3002
 2849TIP3    H129962   6.163   1.247   4.942  0.0209 -0.3175  0.8166
 2849TIP3    H229963   6.035   1.297   4.877  0.9972  0.3029 -0.6922
 2850TIP3   OH229964   0.448   0.574   3.257  0.3307  0.7825 -0.1127
 2850TIP3    H129965   0.366   0.526   3.268  0.7973 -0.2982 -1.0774
 2850TIP3    H229966   0.426   0.647   3.199 -0.2096  1.2561  0.6760
 2851TIP3   OH229967   3.549   2.329  14.756  0.3452  0.1681 -0.0287
 2851TIP3    H129968   3.511   2.294  14.675  1.7060  0.6801 -0.9237
 2851TIP3    H229969   3.518   2.419  14.760 -0.0525  0.0205  0.2413
 2852TIP3   OH229970   5.170   3.724  15.760 -0.3256 -0.2941 -0.6689
 2852TIP3    H129971   5.140   3.801  15.712 -2.1647 -0.4612  0.1509
 2852TIP3    H229972   5.229   3.759  15.827 -1.1383  0.4163 -0.3096
 2853TIP3   OH229973   0.040   0.106   3.308 -0.0843  0.1650  0.2578
 2853TIP3    H129974  -0.051   0.131   3.321 -0.3380  0.2978 -1.5683
 2853TIP3    H229975   0.082   0.124   3.393 -1.2917  2.1048  0.5079
 2854TIP3   OH229976   1.953   2.165   3.799  0.2211 -0.3558 -0.3330
 2854TIP3    H129977   1.944   2.178   3.894 -2.2586  0.6780 -0.6409
 2854TIP3    H229978   1.923   2.076   3.784 -1.5154  0.1839 -0.3266
 2855TIP3   OH229979   3.028   4.121   3.640 -0.2225 -0.2615  0.2069
 2855TIP3    H129980   2.962   4.131   3.572  0.0114 -0.4690 -0.0494
 2855TIP3    H229981   3.068   4.208   3.648 -0.0707 -0.3034 -0.1008
 2856TIP3   OH229982   2.512   1.590   5.287 -0.4046  0.5335 -0.4406
 2856TIP3    H129983   2.449   1.644   5.239 -0.5926  0.5614 -0.1650
 2856TIP3    H229984   2.545   1.528   5.223 -0.0616  1.0879 -0.8082
 2857TIP3   OH229985   0.720   1.420  16.973  0.2733  0.0577 -0.2644
 2857TIP3    H129986   0.805   1.448  16.940 -0.5226  0.9307 -1.6949
 2857TIP3    H229987   0.708   1.331  16.940  0.4094  0.1297 -0.5036
 2858TIP3   OH229988   3.985   2.856  12.061  0.6218 -0.4578 -0.6956
 2858TIP3    H129989   3.965   2.793  12.130  0.6055 -1.2357 -1.4023
 2858TIP3    H229990   3.911   2.916  12.060  1.2386  0.3933  0.8732
 2859TIP3   OH229991   6.515   3.850  11.272  0.2156 -0.0864  0.3102
 2859TIP3    H129992   6.477   3.772  11.313 -1.7340  1.2091  1.1129
 2859TIP3    H229993   6.597   3.819  11.235  0.4537 -2.1037  2.2671
 2860TIP3   OH229994   3.503   5.687   2.559  0.5432  0.4706  0.0248
 2860TIP3    H129995   3.525   5.660   2.470  0.6904 -0.8006  0.4273
 2860TIP3    H229996   3.488   5.605   2.606 -2.6724  1.1199  0.3941
 2861TIP3   OH229997   5.490   3.759  13.609  0.1665  0.2505  0.2848
 2861TIP3    H129998   5.538   3.819  13.552 -0.6349  1.4802  0.8428
 2861TIP3    H229999   5.544   3.755  13.689 -1.0814  2.5344  1.3663
 2862TIP3   OH230000   0.398   4.415   3.914 -0.1544  0.0217  0.1248
 2862TIP3    H130001   0.426   4.360   3.841  0.0840  0.0500  0.1907
 2862TIP3    H230002   0.377   4.500   3.874  0.7607  0.2885  0.1847
 2863TIP3   OH230003   0.489   3.815   4.089  0.1157  0.0279 -0.1119
 2863TIP3    H130004   0.516   3.905   4.109 -0.0623  0.0777 -0.0866
 2863TIP3    H230005   0.509   3.804   3.997 -1.3396  0.6560 -0.5460
 2864TIP3   OH230006   5.067   2.772   3.169 -0.1243 -0.1034  0.2525
 2864TIP3    H130007   5.015   2.781   3.089 -0.3681 -0.8933  0.3119
 2864TIP3    H230008   5.088   2.862   3.195 -1.6302  0.2534  0.3288
 2865TIP3   OH230009   0.822   6.182  12.585  0.0731  0.4613  0.1257
 2865TIP3    H130010   0.866   6.162  12.502 -1.0812  1.0325 -0.6653
 2865TIP3    H230011   0.841   6.108  12.642 -0.5895 -0.8156 -1.2636
 2866TIP3   OH230012   6.303   2.691   4.448  0.4921 -0.1118 -0.1931
 2866TIP3    H130013   6.391   2.661   4.469  0.9029  2.3353  2.0359
 2866TIP3    H230014   6.312   2.731   4.361  1.8011  0.8184  0.3414
 2867TIP3   OH230015   1.700   3.329  12.782  0.1172 -0.1656  0.1210
 2867TIP3    H130016   1.761   3.401  12.761 -0.5965  0.5197  0.3540
 2867TIP3    H230017   1.635   3.369  12.839  0.0524 -1.1602  0.7590
 2868TIP3   OH230018   6.566   6.504   4.731  0.1011  0.4724  0.0586
 2868TIP3    H130019   6.546   6.568   4.662  0.0663 -1.0386 -1.3974
 2868TIP3    H230020   6.573   6.421   4.685 -0.6324 -0.7299  2.0021
 2869TIP3   OH230021   2.180   4.063   5.448 -0.0155  0.4745 -0.5616
 2869TIP3    H130022   2.166   3.969   5.459  2.6923  0.0696  0.0339
 2869TIP3    H230023   2.157   4.101   5.533  2.4101 -0.1817  0.4518
 2870TIP3   OH230024   4.041   0.350  15.260  0.2478 -0.3443 -0.7372
 2870TIP3    H130025   4.050   0.287  15.189 -2.3157  0.8464 -2.2755
 2870TIP3    H230026   4.091   0.427  15.230  1.1292 -0.6701 -0.1245
 2871TIP3   OH230027   3.638   5.896  15.111 -0.0609  0.1816  0.1657
 2871TIP3    H130028   3.640   5.831  15.181  0.1680 -2.0655 -1.8062
 2871TIP3    H230029   3.613   5.846  15.033 -1.6637  2.8124 -1.1419
 2872TIP3   OH230030   2.241   2.528  15.570 -0.3076 -0.1925 -0.3888
 2872TIP3    H130031   2.238   2.610  15.520  1.8004  0.2651  0.1602
 2872TIP3    H230032   2.191   2.547  15.650 -0.3290  0.3629 -0.5318
 2873TIP3   OH230033   5.555   5.663  14.600  0.4191 -0.3898  0.3521
 2873TIP3    H130034   5.512   5.746  14.578  0.3758 -0.6913 -0.7936
 2873TIP3    H230035   5.485   5.598  14.595 -0.1180 -0.2277  3.7203
 2874TIP3   OH230036   0.520   1.395  10.442 -0.3219 -0.1784  0.0329
 2874TIP3    H130037   0.594   1.453  10.461 -1.2531  0.9313  0.3745
 2874TIP3    H230038   0.555   1.306  10.454  1.1462  0.2864 -0.5506
 2875TIP3   OH230039   6.276   6.672   0.257 -0.5183 -0.8198 -0.8409
 2875TIP3    H130040   6.350   6.709   0.306 -1.4989  0.3793 -0.2088
 2875TIP3    H230041   6.255   6.739   0.191 -1.9257 -0.4967 -0.0976
 2876TIP3   OH230042   5.861   5.188  11.299  0.5429  0.3402  0.0524
 2876TIP3    H130043   5.814   5.106  11.315  1.4163  0.1345  1.9832
 2876TIP3    H230044   5.814   5.230  11.227 -1.7245 -0.4830  0.9548
 2877TIP3   OH230045   2.942   1.216   1.504  0.3083 -0.4760 -0.7835
 2877TIP3    H130046   3.029   1.217   1.463  1.4116 -2.1384  1.3227
 2877TIP3    H230047   2.899   1.139   1.467  0.5689 -0.8729 -0.2741
 2878TIP3   OH230048   0.679   2.886  16.062 -0.1849  0.3867 -0.3513
 2878TIP3    H130049   0.589   2.856  16.072 -0.0715  0.7180  3.2739
 2878TIP3    H230050   0.728   2.836  16.127  1.9171  1.4494 -1.0273
 2879TIP3   OH230051   0.373   4.307  13.245  0.0919  0.4622  0.0431
 2879TIP3    H130052   0.343   4.329  13.333  0.5350 -1.1488  0.6286
 2879TIP3    H230053   0.406   4.390  13.210 -1.8047  1.5358  0.6461
 2880TIP3   OH230054   1.641   0.335   5.738 -0.4436 -0.1732 -0.5266
 2880TIP3    H130055   1.694   0.329   5.818 -1.4282 -0.6249  0.1143
 2880TIP3    H230056   1.571   0.271   5.752 -0.6741 -0.1892 -1.7224
 2881TIP3   OH230057   0.201   3.769   2.571 -0.1435  0.6067  0.4710
 2881TIP3    H130058   0.195   3.708   2.645 -1.0343 -0.3423 -0.3555
 2881TIP3    H230059   0.123   3.752   2.519  0.1515  1.6963 -0.3795
 2882TIP3   OH230060   2.394   4.458   4.681 -0.2412 -0.0992 -0.3291
 2882TIP3    H130061   2.342   4.378   4.676  0.8150 -0.8408  0.1786
 2882TIP3    H230062   2.393   4.493   4.592  0.8230 -1.6901 -1.0177
 2883TIP3   OH230063   0.548   1.924   0.884  0.1424 -0.1009  0.1188
 2883TIP3    H130064   0.612   1.937   0.815  0.0719  1.7360  0.3401
 2883TIP3    H230065   0.543   1.829   0.895  2.1165 -0.3316 -0.5435
 2884TIP3   OH230066   2.138   4.756  13.552  0.2058  0.0817 -0.3721
 2884TIP3    H130067   2.216   4.723  13.507 -0.1911 -0.0189 -1.0001
 2884TIP3    H230068   2.123   4.693  13.623  0.0179 -0.5682 -0.9717
 2885TIP3   OH230069   6.618   1.971   0.504  0.1885 -0.4043  0.5071
 2885TIP3    H130070   6.551   1.936   0.563 -0.1127  1.1752  1.1618
 2885TIP3    H230071   6.701   1.945   0.545 -0.0190  0.6528  1.6436
 2886TIP3   OH230072   5.026   2.708  16.555  0.4984  0.0294  0.1020
 2886TIP3    H130073   4.993   2.621  16.535  0.1402 -0.1714  1.4500
 2886TIP3    H230074   4.950   2.756  16.588  1.0274  0.3327  0.9243
 2887TIP3   OH230075   4.574   4.074   4.362  0.2155  0.0783  0.8459
 2887TIP3    H130076   4.522   4.154   4.353 -0.5471 -0.6507 -2.9783
 2887TIP3    H230077   4.531   4.026   4.432 -2.0329  1.1649  0.3182
 2888TIP3   OH230078   0.722   4.066  11.321 -0.7792  0.0826 -0.5430
 2888TIP3    H130079   0.652   4.024  11.371  0.0196  0.1606  0.6587
 2888TIP3    H230080   0.749   3.998  11.258 -1.4324 -0.1971 -0.5346
 2889TIP3   OH230081   3.766   3.260   1.922 -0.0785 -0.2093  0.5893
 2889TIP3    H130082   3.768   3.230   1.831  0.8551  0.6498  0.3203
 2889TIP3    H230083   3.791   3.183   1.973 -0.6987 -0.7212  0.1364
 2890TIP3   OH230084   5.429   2.824   3.486  0.0461 -0.0742 -0.4710
 2890TIP3    H130085   5.393   2.757   3.428 -0.7393 -0.5020  0.4793
 2890TIP3    H230086   5.524   2.810   3.484 -0.0457 -0.6523 -0.9399
 2891TIP3   OH230087   2.955   4.143  12.681  0.2372 -0.1509  0.6924
 2891TIP3    H130088   2.990   4.171  12.765 -0.4711 -1.0539  1.3096
 2891TIP3    H230089   2.970   4.217  12.622  0.3467  0.6621  1.7222
 2892TIP3   OH230090   2.577   4.643  13.861 -0.3557  0.7092 -0.1870
 2892TIP3    H130091   2.622   4.671  13.781  1.7626  0.3727  0.8162
 2892TIP3    H230092   2.594   4.714  13.923  1.5638 -0.8103  1.1510
 2893TIP3   OH230093   4.010   3.287  11.359  0.4139 -0.7346 -0.7785
 2893TIP3    H130094   4.015   3.353  11.289  0.0727  0.5419  0.3519
 2893TIP3    H230095   4.018   3.338  11.440 -2.7539 -1.6756  0.2807
 2894TIP3   OH230096   1.876   6.620   2.528 -0.0687 -0.1320 -0.2037
 2894TIP3    H130097   1.788   6.623   2.491 -0.3698 -2.3137  0.2097
 2894TIP3    H230098   1.921   6.552   2.478  0.9214 -0.0413  0.5381
 2895TIP3   OH230099   5.505   1.949   0.559 -0.0867  0.0083 -0.1097
 2895TIP3    H130100   5.424   1.998   0.573 -0.4535 -0.5536 -0.2332
 2895TIP3    H230101   5.500   1.920   0.468  0.3350  0.1107 -0.1692
 2896TIP3   OH230102   4.512   2.962  14.718  0.0261 -0.2542  0.1372
 2896TIP3    H130103   4.505   2.924  14.806  0.1047  0.0668  0.2815
 2896TIP3    H230104   4.422   2.964  14.686 -0.1762  0.8413  0.7214
 2897TIP3   OH230105   2.614   2.858  15.561  0.9837 -0.0217 -0.3772
 2897TIP3    H130106   2.615   2.953  15.570  1.5547 -0.0302 -0.3141
 2897TIP3    H230107   2.591   2.826  15.648 -2.9933  0.1210 -1.1673
 2898TIP3   OH230108   2.529   6.168  13.097  0.0765 -0.6754  0.3534
 2898TIP3    H130109   2.508   6.211  13.179 -0.1452  0.7714 -0.4384
 2898TIP3    H230110   2.584   6.094  13.122  0.0843 -0.2047  1.7875
 2899TIP3   OH230111   3.939   5.817  13.359 -0.0437  0.2581  0.2645
 2899TIP3    H130112   3.939   5.901  13.313 -1.5790 -0.5885 -1.4286
 2899TIP3    H230113   3.991   5.832  13.438 -1.6977  3.2681  0.9053
 2900TIP3   OH230114   2.750   0.651   4.193  0.6400 -0.9109 -0.0400
 2900TIP3    H130115   2.770   0.587   4.262 -0.8193 -0.2562  1.0340
 2900TIP3    H230116   2.794   0.731   4.222  4.2924 -1.7862 -2.4209
 2901TIP3   OH230117   4.476   3.258   4.035 -0.3229  0.2078  0.5015
 2901TIP3    H130118   4.452   3.167   4.016 -0.8700  0.0776  1.7009
 2901TIP3    H230119   4.566   3.266   4.004  0.5246 -1.4149  2.3174
 2902TIP3   OH230120   1.935   3.182  10.583  0.2006 -0.2204  0.2038
 2902TIP3    H130121   1.881   3.259  10.568 -0.6433 -0.7723  0.3575
 2902TIP3    H230122   2.004   3.212  10.643  0.3240  0.5944 -0.3421
 2903TIP3   OH230123   2.100   4.369  16.780 -0.2920 -0.2221 -0.6546
 2903TIP3    H130124   2.028   4.364  16.843 -0.0359 -2.5302 -0.4434
 2903TIP3    H230125   2.178   4.385  16.834 -0.2753 -0.6757 -0.5395
 2904TIP3   OH230126   6.180   1.351  10.900 -0.1445 -0.4416  0.3446
 2904TIP3    H130127   6.230   1.331  10.820  0.5313 -1.0319  0.8994
 2904TIP3    H230128   6.143   1.438  10.884  0.6421 -0.2064 -0.2897
 2905TIP3   OH230129   4.933   4.661   4.962  0.0402 -0.6774 -0.6600
 2905TIP3    H130130   4.846   4.636   4.933 -0.0741  0.5931 -1.4457
 2905TIP3    H230131   4.929   4.756   4.975  1.0589 -0.7222  0.1708
 2906TIP3   OH230132   5.829   4.452  15.309  0.4094  0.3116  0.2041
 2906TIP3    H130133   5.739   4.423  15.321  0.5587 -0.0287  0.5432
 2906TIP3    H230134   5.844   4.448  15.214 -0.6639  2.6409 -0.1441
 2907TIP3   OH230135   4.412   2.567   0.254  0.5858 -0.3615  0.0473
 2907TIP3    H130136   4.384   2.579   0.163  1.8825  2.6134 -0.0746
 2907TIP3    H230137   4.382   2.646   0.299  2.1014 -0.6155  1.6262
 2908TIP3   OH230138   4.657   2.767  15.774  0.9136  0.2468 -0.4661
 2908TIP3    H130139   4.589   2.770  15.706  0.3582  0.5450  0.0911
 2908TIP3    H230140   4.608   2.763  15.856  1.5354  2.0768  0.0420
 2909TIP3   OH230141   1.348   0.650   1.623 -0.1577 -0.0940 -0.3736
 2909TIP3    H130142   1.366   0.685   1.711  0.8481 -0.0348 -0.5845
 2909TIP3    H230143   1.302   0.721   1.579  0.8514  0.5588 -0.4279
 2910TIP3   OH230144   1.395   1.771  16.697 -0.1462  0.4253  0.1442
 2910TIP3    H130145   1.384   1.744  16.606 -1.0145  0.8898  0.1010
 2910TIP3    H230146   1.425   1.861  16.691  0.7470  0.1450  0.3117
 2911TIP3   OH230147   6.062   5.371  11.174 -0.0983  0.2101 -0.3453
 2911TIP3    H130148   6.014   5.368  11.091 -0.8553 -0.3567  0.1064
 2911TIP3    H230149   6.040   5.289  11.218  2.3853 -0.7449 -0.7129
 2912TIP3   OH230150   4.616   0.115   2.942 -0.2814 -0.7218  0.2364
 2912TIP3    H130151   4.580   0.093   2.856  0.1403 -0.2862 -0.0581
 2912TIP3    H230152   4.542   0.109   3.002 -0.2681 -2.5541  0.1153
 2913TIP3   OH230153   4.136   5.087   5.144 -0.5034  0.2114 -0.6658
 2913TIP3    H130154   4.114   5.051   5.058  0.3902 -0.6901 -0.5283
 2913TIP3    H230155   4.163   5.012   5.196 -0.2148  0.8606  0.1539
 2914TIP3   OH230156   2.174   4.858   0.146  0.2584  0.3865 -0.7449
 2914TIP3    H130157   2.163   4.917   0.072 -1.7886 -1.6268 -2.1777
 2914TIP3    H230158   2.110   4.888   0.211  1.3696  1.5454 -0.1375
 2915TIP3   OH230159   2.902   2.037   2.305 -0.3127 -0.3390 -0.1671
 2915TIP3    H130160   2.951   1.958   2.286 -0.9119  0.0289 -4.3322
 2915TIP3    H230161   2.837   2.011   2.370  1.2635 -2.4550  0.6575
 2916TIP3   OH230162   3.343   4.595  12.377  0.0662  0.7816 -0.1386
 2916TIP3    H130163   3.396   4.671  12.399  0.3023  0.7874 -0.7261
 2916TIP3    H230164   3.380   4.561  12.296 -0.7104  0.6832 -0.4696
 2917TIP3   OH230165   5.262   5.846  13.945  0.4110  0.0530 -0.3831
 2917TIP3    H130166   5.185   5.812  13.990  0.1570 -0.1169 -0.9440
 2917TIP3    H230167   5.262   5.939  13.965  1.0068 -0.2172  1.0115
 2918TIP3   OH230168   3.688   4.286  12.591 -0.3142  0.1643 -0.1718
 2918TIP3    H130169   3.644   4.265  12.673 -0.6260  0.4354 -0.2657
 2918TIP3    H230170   3.759   4.345  12.616 -1.5247  1.7524 -0.2837
 2919TIP3   OH230171   2.805   2.420  12.721 -0.0247  0.4290 -0.1314
 2919TIP3    H130172   2.873   2.409  12.654 -1.2047 -0.6296 -1.2002
 2919TIP3    H230173   2.851   2.460  12.795  2.1917 -1.9398 -0.0799
 2920TIP3   OH230174   4.596   2.354   2.484 -0.1633 -0.0533  0.7222
 2920TIP3    H130175   4.608   2.447   2.502 -0.8422  0.1346  0.2745
 2920TIP3    H230176   4.535   2.352   2.410  1.6704 -0.8108 -0.8353
 2921TIP3   OH230177   3.637   5.237  14.298 -0.0474 -0.7159  0.2415
 2921TIP3    H130178   3.599   5.231  14.386  0.2070 -1.6406  0.2895
 2921TIP3    H230179   3.581   5.301  14.253  1.0694  1.4035  1.7001
 2922TIP3   OH230180   6.344   5.786   2.017 -0.3806  0.8234 -0.3164
 2922TIP3    H130181   6.336   5.881   2.018 -1.5408  0.7509  1.8608
 2922TIP3    H230182   6.260   5.753   2.048 -0.2867 -0.9828 -1.7394
 2923TIP3   OH230183   4.828   2.663   1.706  0.1888 -0.0443 -0.1466
 2923TIP3    H130184   4.776   2.719   1.763  0.4531  0.1944 -0.1400
 2923TIP3    H230185   4.779   2.660   1.624 -0.7831 -1.3026  0.4408
 2924TIP3   OH230186   3.488   3.801  12.278  0.2696 -0.2596 -0.5061
 2924TIP3    H130187   3.484   3.850  12.360  2.0373  0.1028 -0.5994
 2924TIP3    H230188   3.397   3.792  12.251 -0.4565 -1.3405  2.0455
 2925TIP3   OH230189   5.164   0.497   4.831  0.0312 -0.0150  0.4975
 2925TIP3    H130190   5.202   0.413   4.856 -1.4492 -0.4783  1.3054
 2925TIP3    H230191   5.184   0.505   4.737 -2.7226 -2.9494 -0.5295
 2926TIP3   OH230192   0.384   3.236  13.524 -0.6613  0.2200 -0.6517
 2926TIP3    H130193   0.400   3.155  13.571 -2.3840  0.2369  0.0589
 2926TIP3    H230194   0.309   3.216  13.467 -2.1527  1.6791  0.6879
 2927TIP3   OH230195   2.196   1.089   1.160  0.0796 -0.5514  0.7181
 2927TIP3    H130196   2.174   1.156   1.095 -2.2114 -0.9494  0.9903
 2927TIP3    H230197   2.288   1.104   1.181  0.1347  1.2648 -0.6570
 2928TIP3   OH230198   0.842   5.798   1.935  0.5710 -0.0165  0.3040
 2928TIP3    H130199   0.803   5.739   1.869 -1.6502  1.4626  0.1760
 2928TIP3    H230200   0.817   5.759   2.019 -0.9078  0.6864  0.2193
 2929TIP3   OH230201   4.756   6.235   3.875  0.0769 -0.1244 -0.3400
 2929TIP3    H130202   4.690   6.281   3.927 -1.4935 -1.6951 -0.8399
 2929TIP3    H230203   4.799   6.304   3.824  0.0884  1.1547  1.3262
 2930TIP3   OH230204   5.047   3.297  12.187 -0.5473  0.5731  0.1125
 2930TIP3    H130205   4.975   3.355  12.213 -1.2524 -0.2763  0.1180
 2930TIP3    H230206   5.041   3.223  12.248 -0.9944 -0.5163 -1.1971
 2931TIP3   OH230207   3.864   5.828  12.561  0.0964 -0.3718 -0.3923
 2931TIP3    H130208   3.886   5.916  12.529 -0.3802  0.0032  0.2784
 2931TIP3    H230209   3.912   5.820  12.644 -0.8183 -0.2516  0.1696
 2932TIP3   OH230210   6.262   0.057   0.638 -0.9162 -0.0027  0.2467
 2932TIP3    H130211   6.214  -0.025   0.624 -0.5961 -0.1906  0.2463
 2932TIP3    H230212   6.199   0.126   0.615 -0.7126 -0.2777 -1.1975
 2933TIP3   OH230213   4.448   0.898  11.407  0.4787 -0.6596 -0.5372
 2933TIP3    H130214   4.405   0.833  11.352 -1.1371  1.0148 -1.3558
 2933TIP3    H230215   4.504   0.948  11.348  0.0439  0.0600 -0.3606
 2934TIP3   OH230216   0.176   1.775   3.640  0.1443  0.1918  0.1118
 2934TIP3    H130217   0.144   1.689   3.666  0.4967 -0.1907 -0.6777
 2934TIP3    H230218   0.270   1.763   3.626  0.0919  0.5529 -0.6012
 2935TIP3   OH230219   0.026   1.687   0.785 -0.2304  0.5280 -0.5856
 2935TIP3    H130220  -0.028   1.608   0.782  1.5608 -0.7368 -2.1675
 2935TIP3    H230221  -0.002   1.738   0.709  0.2119  0.2535 -0.9404
 2936TIP3   OH230222   6.792   4.068  11.880 -0.6233 -0.1698  0.3908
 2936TIP3    H130223   6.830   3.982  11.862 -0.1991 -0.4786  2.5035
 2936TIP3    H230224   6.786   4.110  11.794  0.6668 -1.6851 -0.4910
 2937TIP3   OH230225   3.097   5.847  12.645 -0.6461  0.2944  0.3362
 2937TIP3    H130226   3.068   5.797  12.569 -1.5048  0.3234  0.6351
 2937TIP3    H230227   3.092   5.938  12.618 -1.6842  0.3400  0.6734
 2938TIP3   OH230228   1.665   0.717   1.967  0.6682  0.3514 -0.2041
 2938TIP3    H130229   1.756   0.715   1.999  0.8863  0.2682 -0.8035
 2938TIP3    H230230   1.613   0.743   2.043  1.5969  4.4925 -0.7043
 2939TIP3   OH230231   2.797   3.521  12.001 -0.2415 -0.0729  0.1921
 2939TIP3    H130232   2.820   3.456  11.935 -1.7245  0.1058 -0.5526
 2939TIP3    H230233   2.791   3.604  11.953 -4.9924 -0.4774 -0.4564
 2940TIP3   OH230234   0.806   2.786   4.853 -0.3233  0.0009  0.4205
 2940TIP3    H130235   0.799   2.877   4.880 -0.8464  0.2877 -0.6315
 2940TIP3    H230236   0.900   2.768   4.853 -0.2157  0.5467  0.6084
 2941TIP3   OH230237   5.839   2.094   1.773 -0.2892 -0.3628  0.0275
 2941TIP3    H130238   5.896   2.144   1.714 -2.5460  0.3603 -1.6827
 2941TIP3    H230239   5.889   2.015   1.793  1.7490  0.7276 -0.4686
 2942TIP3   OH230240   2.218   2.739   3.523 -0.5385 -0.4840  0.2448
 2942TIP3    H130241   2.206   2.664   3.466  0.6180 -0.6208  0.1514
 2942TIP3    H230242   2.167   2.719   3.601  1.8889 -2.7140  1.4392
 2943TIP3   OH230243   3.865   5.136   4.828  0.3968  0.2681 -0.4370
 2943TIP3    H130244   3.831   5.161   4.914 -0.3626 -1.0992 -0.3062
 2943TIP3    H230245   3.952   5.174   4.824  0.4425  0.3552  0.9514
 2944TIP3   OH230246   4.780   0.335   0.455  0.6434  0.0016  0.3759
 2944TIP3    H130247   4.812   0.333   0.545  0.9245 -1.0566  0.2663
 2944TIP3    H230248   4.687   0.315   0.462  1.0224 -1.9567  0.3077
 2945TIP3   OH230249   4.396   5.143  15.915  1.1518 -0.1326  0.6199
 2945TIP3    H130250   4.306   5.173  15.926  1.6837  1.6579  0.3914
 2945TIP3    H230251   4.440   5.171  15.996  1.4564 -1.2618  0.8635
 2946TIP3   OH230252   2.552   3.936   5.447  0.4065 -0.3523 -0.2772
 2946TIP3    H130253   2.640   3.937   5.485 -0.3825 -0.0441  1.6446
 2946TIP3    H230254   2.494   3.922   5.521 -1.1903 -0.5728 -1.5109
 2947TIP3   OH230255   3.630   0.369   3.481  0.0798 -0.1050  0.5481
 2947TIP3    H130256   3.647   0.463   3.478  0.3113 -0.1661 -1.1192
 2947TIP3    H230257   3.565   0.358   3.551 -0.4532  1.3753  0.3191
 2948TIP3   OH230258   4.103   3.726  11.325  0.2876  0.1376 -0.6209
 2948TIP3    H130259   4.095   3.635  11.294  1.3033  0.4319 -1.8651
 2948TIP3    H230260   4.024   3.769  11.294 -0.7880 -0.5565  1.0043
 2949TIP3   OH230261   5.653   2.672  12.625  0.5212 -0.4660  0.0686
 2949TIP3    H130262   5.703   2.707  12.698  0.8829 -1.3890  0.2719
 2949TIP3    H230263   5.652   2.578  12.639  0.4941 -0.6469 -1.0501
 2950TIP3   OH230264   1.329   1.556  14.435 -0.2630  0.1742  0.6096
 2950TIP3    H130265   1.334   1.525  14.526 -0.1096 -0.8469  0.2622
 2950TIP3    H230266   1.416   1.594  14.418 -0.2818  0.3412  0.8736
 2951TIP3   OH230267   4.514   5.947   1.299  0.3640 -0.6113 -0.1210
 2951TIP3    H130268   4.561   5.878   1.347  1.0187 -0.5003 -0.6001
 2951TIP3    H230269   4.570   6.023   1.305 -1.1136  0.4166  1.8664
 2952TIP3   OH230270   5.883   0.456  12.298  1.2927  0.3543 -0.1031
 2952TIP3    H130271   5.885   0.495  12.210  1.7164  1.1296  0.2465
 2952TIP3    H230272   5.795   0.475  12.330  1.7274  1.7516  0.3667
 2953TIP3   OH230273   2.228   3.951  16.293  0.2986  0.3916  0.0962
 2953TIP3    H130274   2.173   4.023  16.261 -0.7004 -0.1898  0.4800
 2953TIP3    H230275   2.197   3.874  16.245  0.9631  0.1018  0.1265
 2954TIP3   OH230276   6.024   3.877   2.043  0.2893 -0.1291 -0.0791
 2954TIP3    H130277   6.032   3.869   2.139 -1.3699 -0.5349  0.0546
 2954TIP3    H230278   5.938   3.917   2.029 -0.4839 -2.1001 -1.4328
 2955TIP3   OH230279   2.383   1.510   2.011  0.1817  0.1530  0.8818
 2955TIP3    H130280   2.412   1.458   1.935  1.3568  0.4442  1.1078
 2955TIP3    H230281   2.301   1.549   1.983  0.5474  0.1747 -0.2128
 2956TIP3   OH230282   5.732   5.468   4.436  0.1351 -0.4817 -0.3036
 2956TIP3    H130283   5.692   5.386   4.408 -0.7560  0.0943 -0.7612
 2956TIP3    H230284   5.797   5.487   4.368  1.0953 -1.3345  0.3540
 2957TIP3   OH230285   5.950   5.584   1.466 -0.5550 -0.8083  0.9039
 2957TIP3    H130286   5.946   5.519   1.396  2.9551 -0.6563  0.3545
 2957TIP3    H230287   6.023   5.555   1.521  1.6449  2.8265  0.2424
 2958TIP3   OH230288   5.674   0.920  15.379 -0.2155  0.3607 -0.3052
 2958TIP3    H130289   5.677   0.869  15.298 -1.1261 -1.9996  1.0710
 2958TIP3    H230290   5.726   0.869  15.442 -1.4608  0.9243  1.2256
 2959TIP3   OH230291   4.777   5.111   2.975 -0.0394 -0.2913  0.6140
 2959TIP3    H130292   4.741   5.039   3.027 -0.0648 -0.4523  0.3784
 2959TIP3    H230293   4.848   5.071   2.925  1.2166  0.2553  1.8846
 2960TIP3   OH230294   1.237   1.630   3.071  0.3044  0.1585  0.2578
 2960TIP3    H130295   1.234   1.621   2.976 -1.5611 -0.0070  0.3077
 2960TIP3    H230296   1.244   1.540   3.104 -0.1407  0.1432  0.3082
 2961TIP3   OH230297   3.974   3.251   3.823 -0.0463  0.6886  0.2216
 2961TIP3    H130298   4.034   3.185   3.856 -0.6507  0.8255  1.6786
 2961TIP3    H230299   3.926   3.281   3.900 -1.6372  0.9341 -0.7966
 2962TIP3   OH230300   2.208   3.642   1.965  0.0008 -0.0418 -0.3061
 2962TIP3    H130301   2.117   3.619   1.949  0.2585 -0.4780 -1.1713
 2962TIP3    H230302   2.210   3.738   1.963 -0.3439 -0.0451 -0.7886
 2963TIP3   OH230303   3.471   1.631   1.859 -0.2760  0.5815  0.3127
 2963TIP3    H130304   3.556   1.593   1.838  0.1809  1.9692 -0.4648
 2963TIP3    H230305   3.483   1.673   1.944 -0.7234 -0.7895  1.0750
 2964TIP3   OH230306   5.946   6.178   5.604 -0.3382  0.3387 -0.1290
 2964TIP3    H130307   6.016   6.139   5.552 -0.4824 -0.0349 -0.0405
 2964TIP3    H230308   5.952   6.134   5.689  0.2220  1.2985  0.3458
 2965TIP3   OH230309   3.066   2.224  12.540  0.5270 -0.1865 -0.1639
 2965TIP3    H130310   3.125   2.296  12.561  1.1685  0.3875 -3.4202
 2965TIP3    H230311   2.984   2.267  12.516  0.0048 -0.7500  0.5626
 2966TIP3   OH230312   5.842   5.805  11.585 -0.3055  0.3545  0.3660
 2966TIP3    H130313   5.778   5.766  11.645 -1.0973  1.7970  0.4838
 2966TIP3    H230314   5.802   5.796  11.499  0.3323 -0.6953  0.1578
 2967TIP3   OH230315   0.893   0.631   3.838 -0.7696  0.5984  0.3735
 2967TIP3    H130316   0.848   0.716   3.845  1.1599  1.6308  1.0500
 2967TIP3    H230317   0.970   0.649   3.784 -0.0721 -0.6152  0.9334
 2968TIP3   OH230318   1.965   3.971  11.155 -0.1926 -0.3276  0.4136
 2968TIP3    H130319   1.966   4.057  11.197 -1.6170  1.1066 -2.2457
 2968TIP3    H230320   2.040   3.973  11.096 -0.7342 -0.5595 -0.2879
 2969TIP3   OH230321   5.265   4.932  14.687 -0.2266  0.2206  0.0349
 2969TIP3    H130322   5.261   4.918  14.782 -0.6546  0.2960  0.0284
 2969TIP3    H230323   5.199   4.999  14.670 -0.4184 -0.0683 -0.3683
 2970TIP3   OH230324   5.325   0.269  10.363 -0.0071  0.0651  0.1812
 2970TIP3    H130325   5.402   0.288  10.309  1.1638 -1.1743  1.3590
 2970TIP3    H230326   5.265   0.341  10.344  0.3969 -0.2339 -2.6372
 2971TIP3   OH230327   4.208   4.371  16.413 -0.1272  0.2518 -0.1421
 2971TIP3    H130328   4.172   4.334  16.494  1.6587  1.2977  1.2127
 2971TIP3    H230329   4.302   4.355  16.420 -0.0430 -0.7149 -2.6353
 2972TIP3   OH230330   3.945   2.846  15.238  0.0675 -0.0901 -0.5460
 2972TIP3    H130331   3.998   2.792  15.179 -0.5536  0.7348 -1.9034
 2972TIP3    H230332   3.972   2.819  15.326  1.0446 -1.3319 -1.1974
 2973TIP3   OH230333   3.731   4.613  11.349  0.0423 -0.3685  0.1791
 2973TIP3    H130334   3.713   4.522  11.326 -0.2909  0.1488 -1.8700
 2973TIP3    H230335   3.677   4.664  11.288  0.6470  1.2043  0.8910
 2974TIP3   OH230336   6.738   6.366   3.645  0.1401  0.4423  0.0264
 2974TIP3    H130337   6.779   6.298   3.591 -1.9201 -1.1216  0.3324
 2974TIP3    H230338   6.810   6.400   3.697  1.9282  0.9768 -2.5768
 2975TIP3   OH230339   0.613   3.034   6.078 -0.6948  0.1507  0.5124
 2975TIP3    H130340   0.692   3.034   6.133  1.6231 -0.7124 -2.5239
 2975TIP3    H230341   0.545   2.995   6.134  1.0045  0.7806  3.2333
 2976TIP3   OH230342   5.709   2.357   0.574  0.0760 -0.5700  0.3383
 2976TIP3    H130343   5.770   2.328   0.642  1.3724  1.1628 -0.0166
 2976TIP3    H230344   5.683   2.445   0.602  0.0856 -0.1074 -1.0426
 2977TIP3   OH230345   4.204   4.745   3.387 -0.4426  0.2586  0.0837
 2977TIP3    H130346   4.173   4.760   3.297  0.4817  0.3738 -0.2215
 2977TIP3    H230347   4.154   4.669   3.416 -0.9583  0.3887 -0.4288
 2978TIP3   OH230348   3.526   1.428  11.230  0.0800 -0.2095 -0.6699
 2978TIP3    H130349   3.490   1.488  11.296 -0.7199  1.6231 -2.6514
 2978TIP3    H230350   3.605   1.472  11.199  0.6727 -1.2518 -0.6789
 2979TIP3   OH230351   4.891   6.305  16.736 -0.3889  0.0192  0.4393
 2979TIP3    H130352   4.847   6.387  16.714 -0.0209  0.4035  1.1345
 2979TIP3    H230353   4.978   6.313  16.697 -1.9186 -2.2219 -4.2578
 2980TIP3   OH230354   2.300   6.368   3.199 -0.3318  0.0987 -0.5987
 2980TIP3    H130355   2.394   6.375   3.182 -0.1710  0.8629  0.5042
 2980TIP3    H230356   2.276   6.281   3.167  0.4656  0.4112 -2.1355
 2981TIP3   OH230357   3.964   2.178  15.846 -0.3208 -0.6938 -0.5376
 2981TIP3    H130358   3.914   2.183  15.764  0.1605 -0.2572 -0.8166
 2981TIP3    H230359   3.898   2.169  15.914 -0.8433  0.6807 -0.8147
 2982TIP3   OH230360   4.755   6.608  13.561  0.2844 -0.0072 -0.0766
 2982TIP3    H130361   4.843   6.635  13.537 -0.2352  0.9637 -0.9882
 2982TIP3    H230362   4.712   6.588  13.478 -0.2165 -0.9389  0.3841
 2983TIP3   OH230363   6.543   1.469   2.094  0.0408 -0.1101  0.2876
 2983TIP3    H130364   6.513   1.455   2.004  0.3903 -1.6687  0.3854
 2983TIP3    H230365   6.638   1.456   2.091  0.0694 -0.0808  0.8601
 2984TIP3   OH230366   1.919   4.965   6.592 -0.2547 -0.2760 -0.2864
 2984TIP3    H130367   1.982   5.018   6.642 -0.8625  1.3111 -1.1373
 2984TIP3    H230368   1.834   4.994   6.623 -0.6956  1.5472 -2.9118
 2985TIP3   OH230369   5.793   0.809  15.605  0.5060  0.1961  0.1510
 2985TIP3    H130370   5.883   0.792  15.633  0.2539  1.1505  1.6312
 2985TIP3    H230371   5.748   0.725  15.617  1.4223 -0.5808 -1.6357
 2986TIP3   OH230372   4.341   0.156  13.702 -0.1154  0.2519  0.0928
 2986TIP3    H130373   4.414   0.201  13.659  0.0712  0.9238  1.1001
 2986TIP3    H230374   4.369   0.064  13.706 -0.2919  0.0829 -1.5267
 2987TIP3   OH230375   4.516   2.061  16.636  0.0581  0.4646 -0.6329
 2987TIP3    H130376   4.426   2.046  16.608 -0.2803 -1.8073  1.3272
 2987TIP3    H230377   4.519   2.154  16.658 -1.3814  0.8871 -2.0546
 2988TIP3   OH230378   1.911   2.735  16.863  0.7939  0.5376 -0.2221
 2988TIP3    H130379   1.905   2.737  16.768 -1.0457 -1.3644 -0.2062
 2988TIP3    H230380   1.894   2.825  16.890  1.1304  1.0626 -1.6655
 2989TIP3   OH230381   0.451   6.342   0.587 -0.0156  0.0506  0.5140
 2989TIP3    H130382   0.412   6.256   0.602 -0.3352  0.1873  0.4747
 2989TIP3    H230383   0.508   6.330   0.512 -2.1316  0.4855 -1.2554
 2990TIP3   OH230384   6.577   2.424   4.552  0.0382  0.3047 -0.4202
 2990TIP3    H130385   6.617   2.361   4.612  1.9645  1.0238 -0.9107
 2990TIP3    H230386   6.562   2.502   4.605 -1.1608 -0.0876 -0.1392
 2991TIP3   OH230387   4.391   3.725   6.147 -0.3743 -0.2746  0.4413
 2991TIP3    H130388   4.358   3.728   6.237 -0.7017  0.3499  0.3097
 2991TIP3    H230389   4.333   3.785   6.099  0.5299  0.3021  0.0585
 2992TIP3   OH230390   4.389   2.197   0.017  0.1538  0.7134  0.0104
 2992TIP3    H130391   4.316   2.138  -0.003  0.6204  0.5068 -1.1986
 2992TIP3    H230392   4.348   2.281   0.035 -0.4810  0.1976  1.0320
 2993TIP3   OH230393   3.943   0.573   3.111  0.3415 -0.7023  0.1171
 2993TIP3    H130394   3.895   0.500   3.149  1.0541 -0.6929  1.0503
 2993TIP3    H230395   3.879   0.643   3.105 -0.0102 -0.9938  0.4398
 2994TIP3   OH230396   4.898   2.682  16.958  0.0468 -0.7138  0.4329
 2994TIP3    H130397   4.925   2.676  16.866  1.2510 -2.7555  0.8492
 2994TIP3    H230398   4.912   2.774  16.981  0.0824 -0.2452 -1.3087
 2995TIP3   OH230399   3.390   0.908   5.048  0.0290  0.0630 -0.7752
 2995TIP3    H130400   3.473   0.954   5.061  0.2641 -0.7503  0.7946
 2995TIP3    H230401   3.324   0.978   5.050  0.4692  0.4823  0.5916
 2996TIP3   OH230402   3.904   5.575  15.719  0.4066  0.1456 -0.7894
 2996TIP3    H130403   3.982   5.577  15.775 -0.2477  1.3069  0.1499
 2996TIP3    H230404   3.832   5.559  15.780 -0.1772 -0.0104 -1.5124
 2997TIP3   OH230405   6.411   1.219   1.009  0.2283  0.1448  0.0970
 2997TIP3    H130406   6.331   1.228   1.061  0.7096 -1.3368  1.1708
 2997TIP3    H230407   6.481   1.236   1.072  0.8079 -0.9164 -0.2496
 2998TIP3   OH230408   2.277   5.962   1.130 -0.2006  0.2127  0.0990
 2998TIP3    H130409   2.292   5.881   1.081  0.1241  0.2437  0.1410
 2998TIP3    H230410   2.226   6.017   1.071 -0.6958 -0.1442  0.1908
 2999TIP3   OH230411   1.694   3.890  14.790 -0.1895  0.0458  0.1013
 2999TIP3    H130412   1.727   3.947  14.721 -1.7707 -0.3057 -1.0027
 2999TIP3    H230413   1.610   3.928  14.815 -0.9737 -1.3892 -0.2090
 3000TIP3   OH230414   3.312   3.565   6.410  0.0118  0.0274  0.1014
 3000TIP3    H130415   3.351   3.496   6.463 -1.1614 -1.0514 -0.3663
 3000TIP3    H230416   3.223   3.534   6.393 -0.4438  1.5197 -0.3950
 3001TIP3   OH230417   5.245   4.257   4.374  0.4296  0.0533 -0.3598
 3001TIP3    H130418   5.210   4.341   4.402 -2.2017 -0.1966 -2.4645
 3001TIP3    H230419   5.333   4.277   4.342 -0.0957  1.9891 -0.6813
 3002TIP3   OH230420   3.495   2.105  16.584 -0.2183  0.2673 -0.4170
 3002TIP3    H130421   3.469   2.156  16.661 -1.7301 -2.5003  1.0501
 3002TIP3    H230422   3.531   2.024  16.619  2.1116  0.1984 -2.6615
 3003TIP3   OH230423   1.631   4.124   5.632 -0.1694  0.6051 -0.1894
 3003TIP3    H130424   1.718   4.091   5.611  0.2150  0.6179  1.2831
 3003TIP3    H230425   1.590   4.053   5.682 -1.5092  0.0782 -1.8942
 3004TIP3   OH230426   0.880   6.303   4.572 -0.1379 -0.1728 -0.3455
 3004TIP3    H130427   0.858   6.209   4.574  1.5195 -0.5969 -0.5680
 3004TIP3    H230428   0.828   6.338   4.499 -1.8527 -0.5953  0.6226
 3005TIP3   OH230429   6.455   5.028   1.503  0.3601 -0.4401 -0.4004
 3005TIP3    H130430   6.525   5.091   1.521 -0.4746  0.5241 -0.4534
 3005TIP3    H230431   6.471   5.001   1.413  0.1546  0.4638 -0.7218
 3006TIP3   OH230432   2.450   0.626   1.641  0.2755  0.5485 -0.1420
 3006TIP3    H130433   2.368   0.625   1.591 -0.0857  1.5679  0.4086
 3006TIP3    H230434   2.501   0.553   1.605 -1.1173 -0.4947 -0.0861
 3007TIP3   OH230435   6.792   4.176  13.518  0.0350 -0.0025  0.6323
 3007TIP3    H130436   6.714   4.135  13.482  0.5149 -2.7752  2.4671
 3007TIP3    H230437   6.865   4.134  13.471  0.5360 -1.2726  2.4315
 3008TIP3   OH230438   6.702   3.102  13.793  0.6536  0.2967 -0.3244
 3008TIP3    H130439   6.632   3.137  13.738  0.9392  0.9194 -0.2888
 3008TIP3    H230440   6.684   3.138  13.880  1.4839  1.1251 -0.4871
 3009TIP3   OH230441   6.759   0.834   3.102 -0.0822  0.2395  0.0983
 3009TIP3    H130442   6.844   0.803   3.070 -0.3085 -1.5059  1.0695
 3009TIP3    H230443   6.768   0.929   3.104  1.3882  0.1694 -1.0592
 3010TIP3   OH230444   1.082   2.632   4.333  0.1045 -0.1914  0.2824
 3010TIP3    H130445   1.148   2.648   4.266 -1.2039 -0.2223 -1.0722
 3010TIP3    H230446   1.058   2.540   4.322 -0.6396 -0.0082  0.2988
 3011TIP3   OH230447   3.153   0.745  13.609 -0.8025  0.0869 -0.0053
 3011TIP3    H130448   3.134   0.837  13.592 -0.4625  0.2871  0.6520
 3011TIP3    H230449   3.231   0.727  13.557 -1.7294 -0.2615 -1.3326
 3012TIP3   OH230450   1.983   5.679  15.521  0.1412 -0.2463  0.0152
 3012TIP3    H130451   2.062   5.666  15.468  0.1949 -0.8836  0.2430
 3012TIP3    H230452   1.914   5.694  15.457  0.3676 -0.1256 -0.2048
 3013TIP3   OH230453   2.615   1.613   3.846  0.6169  0.3558 -0.1484
 3013TIP3    H130454   2.547   1.660   3.896  0.5382 -0.5125  0.5917
 3013TIP3    H230455   2.691   1.670   3.850  0.9944 -0.2309  2.0537
 3014TIP3   OH230456   1.613   6.004  15.905  0.2154  0.2732 -0.5527
 3014TIP3    H130457   1.639   5.925  15.953  1.7081  1.3602  0.4969
 3014TIP3    H230458   1.546   6.044  15.960  4.2395  3.3368  2.7279
 3015TIP3   OH230459   1.018   0.585  13.130 -0.8022  0.2625 -0.2283
 3015TIP3    H130460   1.032   0.571  13.036  0.9026 -0.5047  0.0924
 3015TIP3    H230461   0.958   0.659  13.135 -2.4795 -0.8741 -1.9397
 3016TIP3   OH230462   6.287   2.546   3.257  0.3234 -0.4102 -0.6062
 3016TIP3    H130463   6.361   2.578   3.206  1.5516 -0.8300  0.8392
 3016TIP3    H230464   6.321   2.538   3.347 -1.3885 -0.9016  0.0413
 3017TIP3   OH230465   6.506   0.623   5.728  0.0502  0.3707 -0.2301
 3017TIP3    H130466   6.536   0.708   5.760 -0.2951  0.1857  0.6098
 3017TIP3    H230467   6.521   0.626   5.633  1.5477  0.7452  0.0024
 3018TIP3   OH230468   6.235   4.445  16.169 -0.0142  0.0081 -0.0171
 3018TIP3    H130469   6.197   4.506  16.232 -0.9597  0.5990 -1.1238
 3018TIP3    H230470   6.211   4.480  16.083  1.6719 -0.5086 -0.7423
 3019TIP3   OH230471   4.408   3.108   4.309  0.6400  0.1017 -0.0602
 3019TIP3    H130472   4.445   3.190   4.278  0.8089 -0.0647 -0.3030
 3019TIP3    H230473   4.315   3.114   4.288  0.6310  0.2798  0.0297
 3020TIP3   OH230474   6.605   2.704  11.030  0.0443  0.4047  0.2863
 3020TIP3    H130475   6.689   2.682  10.990  1.9361  3.6451  2.0484
 3020TIP3    H230476   6.548   2.724  10.955  1.2227 -0.5933 -0.9243
 3021TIP3   OH230477   3.709   6.063  12.862  0.0863 -0.0897  0.5920
 3021TIP3    H130478   3.696   6.107  12.946  0.2056 -0.5466  0.8527
 3021TIP3    H230479   3.656   5.984  12.868 -0.3080  0.1268  0.0345
 3022TIP3   OH230480   3.055   4.167   5.980  0.1819 -0.0287 -0.5206
 3022TIP3    H130481   3.136   4.122   6.004  0.6764  0.1798 -1.7471
 3022TIP3    H230482   2.994   4.097   5.961  0.4362 -0.1830 -0.7710
 3023TIP3   OH230483   2.444   6.519  12.602  0.5245 -0.0997  0.5809
 3023TIP3    H130484   2.453   6.426  12.584 -1.4167 -0.4387  1.2058
 3023TIP3    H230485   2.422   6.524  12.695  2.1617  1.1101  0.9598
 3024TIP3   OH230486   1.587   1.680  12.151  0.1740 -0.4790  0.2037
 3024TIP3    H130487   1.620   1.742  12.216 -0.1259  0.6142 -0.6544
 3024TIP3    H230488   1.519   1.631  12.196 -0.0368  0.2653  0.7151
 3025TIP3   OH230489   3.967   2.521   5.626 -0.3129  0.3057 -0.1672
 3025TIP3    H130490   3.953   2.600   5.573 -1.5844 -0.4823 -1.0634
 3025TIP3    H230491   3.906   2.531   5.700  0.7195  0.9190  0.6236
 3026TIP3   OH230492   0.673   0.108  13.617 -0.1751 -0.0303  0.3735
 3026TIP3    H130493   0.765   0.107  13.594 -0.3605  0.0213 -0.4056
 3026TIP3    H230494   0.668   0.166  13.693  0.3680  0.3422  0.1301
 3027TIP3   OH230495   2.443   0.205   3.670  0.1928 -0.0131 -0.1335
 3027TIP3    H130496   2.486   0.136   3.721  0.6289  0.8840  0.7365
 3027TIP3    H230497   2.485   0.201   3.584  1.0013 -0.1097  0.2542
 3028TIP3   OH230498   4.249   1.739  17.066 -0.1375  0.6343 -0.3900
 3028TIP3    H130499   4.262   1.700  17.152 -1.4785 -0.2580 -0.5706
 3028TIP3    H230500   4.258   1.666  17.004 -3.8264  0.2336 -0.6587
 3029TIP3   OH230501   0.704   2.031   3.876  0.1322  0.2994  0.2064
 3029TIP3    H130502   0.673   1.965   3.939 -0.6191  1.4897  1.1231
 3029TIP3    H230503   0.778   2.073   3.920  1.7731 -1.0665 -1.0951
 3030TIP3   OH230504   0.723   6.553   0.739 -0.4763 -0.4071  0.1154
 3030TIP3    H130505   0.738   6.502   0.818 -1.3232  2.7781  2.5022
 3030TIP3    H230506   0.755   6.641   0.760 -1.1285  0.6999 -2.9573
 3031TIP3   OH230507   6.597   3.243  15.925  0.2202  0.6603  0.1043
 3031TIP3    H130508   6.626   3.319  15.874  2.2548 -0.0924  0.0432
 3031TIP3    H230509   6.615   3.168  15.869  0.7414 -0.0512  1.1860
 3032TIP3   OH230510   4.994   1.662  15.148 -0.5180 -0.2749  0.0874
 3032TIP3    H130511   5.048   1.617  15.213  0.6334  0.7974 -0.0786
 3032TIP3    H230512   4.936   1.718  15.200  0.8196  1.0470  0.2378
 3033TIP3   OH230513   3.964   5.292   0.370 -0.5028  0.2061 -0.1898
 3033TIP3    H130514   3.895   5.336   0.321 -0.1553  0.5592 -0.3725
 3033TIP3    H230515   3.983   5.352   0.443 -1.2346 -0.4602  0.5645
 3034TIP3   OH230516   2.331   5.430   1.703  0.2257 -0.4726 -0.4621
 3034TIP3    H130517   2.290   5.350   1.672 -2.7228  1.1392 -1.0430
 3034TIP3    H230518   2.352   5.412   1.794 -0.6966 -1.7815 -0.4765
 3035TIP3   OH230519   0.840   2.219   0.833  0.9161  0.3399  0.4099
 3035TIP3    H130520   0.862   2.170   0.913 -0.6990 -0.4719  0.3968
 3035TIP3    H230521   0.774   2.283   0.862  0.2147 -0.0562 -0.2989
 3036TIP3   OH230522   6.138   0.899  12.571 -0.0010 -0.2709 -0.3194
 3036TIP3    H130523   6.189   0.835  12.521  0.1334 -0.6303  0.2682
 3036TIP3    H230524   6.122   0.970  12.509 -0.5726 -1.0823 -1.1346
 3037TIP3   OH230525   1.423   4.923  11.427  0.7369  0.6096 -0.1076
 3037TIP3    H130526   1.377   4.866  11.367  2.0780  0.3864 -0.9601
 3037TIP3    H230527   1.425   5.008  11.383  1.1030  0.6277 -0.0595
 3038TIP3   OH230528   6.274   4.644  16.912 -0.1672 -0.7414  1.0562
 3038TIP3    H130529   6.215   4.685  16.849  0.6546  0.1233  0.8278
 3038TIP3    H230530   6.302   4.563  16.870  0.6544 -0.0019  0.1384
 3039TIP3   OH230531   1.960   0.488   2.371  0.1615  0.0183  0.0681
 3039TIP3    H130532   1.949   0.577   2.407  0.8167  0.6493 -1.2230
 3039TIP3    H230533   2.042   0.492   2.322  0.4828 -1.4752  0.4387
 3040TIP3   OH230534   2.268   5.122   0.349  0.4385  0.1086 -0.3864
 3040TIP3    H130535   2.195   5.063   0.365  1.0194 -0.8683 -1.1792
 3040TIP3    H230536   2.246   5.202   0.396 -0.3488 -0.7532  0.7540
 3041TIP3   OH230537   4.642   4.803   6.014  0.1104  0.1538  0.6991
 3041TIP3    H130538   4.630   4.887   5.969  1.8962 -1.1644 -2.5972
 3041TIP3    H230539   4.584   4.808   6.090 -3.1453  2.7143 -1.6309
 3042TIP3   OH230540   5.659   4.144   2.331 -0.3922  0.3419 -0.0459
 3042TIP3    H130541   5.581   4.103   2.369 -0.6521  0.2521 -0.6597
 3042TIP3    H230542   5.630   4.232   2.306 -1.0969 -0.5457 -2.7189
 3043TIP3   OH230543   3.901   3.595  12.790 -0.0468 -0.2895 -0.3543
 3043TIP3    H130544   3.887   3.502  12.807  0.5641 -0.3858 -0.3658
 3043TIP3    H230545   3.813   3.633  12.791 -0.1848 -0.5829  1.2213
 3044TIP3   OH230546   4.505   6.079  14.682  0.8567  0.4543 -0.2588
 3044TIP3    H130547   4.510   6.130  14.763  0.4247 -1.6622  1.1947
 3044TIP3    H230548   4.580   6.020  14.686 -0.9243 -1.9413  0.3459
 3045TIP3   OH230549   5.680   1.194  14.994 -0.0922  0.3978  0.0566
 3045TIP3    H130550   5.623   1.265  15.024  0.0718  1.3630 -1.7765
 3045TIP3    H230551   5.766   1.236  14.983  0.6333 -0.6825  1.2973
 3046TIP3   OH230552   4.743   2.816  10.149  0.2682  0.1496 -0.2329
 3046TIP3    H130553   4.818   2.785  10.098  1.1349  1.3542  0.2697
 3046TIP3    H230554   4.709   2.737  10.191  0.9681 -0.4894 -0.8187
 3047TIP3   OH230555   1.701   1.975  11.624  0.0426 -0.2710 -0.6251
 3047TIP3    H130556   1.737   2.052  11.579 -0.4525  0.0126 -0.5403
 3047TIP3    H230557   1.770   1.909  11.618  0.4628  0.1751 -0.7181
 3048TIP3   OH230558   0.147   6.147   5.359  0.2872  0.3519  0.3776
 3048TIP3    H130559   0.199   6.071   5.386 -0.8305  0.0385  1.7251
 3048TIP3    H230560   0.211   6.206   5.320  1.3233 -0.8999  0.1080
 3049TIP3   OH230561   5.323   2.604  15.940 -0.2416 -0.1966 -0.6677
 3049TIP3    H130562   5.370   2.680  15.974 -0.9271  1.1882 -2.6487
 3049TIP3    H230563   5.231   2.631  15.936 -0.6549 -1.4768 -0.5133
 3050TIP3   OH230564   2.965   0.701  11.907 -0.2332  0.3019  0.1875
 3050TIP3    H130565   2.926   0.779  11.945 -0.1520  0.4829 -0.1025
 3050TIP3    H230566   3.040   0.733  11.856  0.5690 -0.0820  1.0961
 3051TIP3   OH230567   4.438   1.221  11.904 -0.1608 -0.1168 -0.2767
 3051TIP3    H130568   4.435   1.315  11.886  0.4631 -0.0290  0.0529
 3051TIP3    H230569   4.352   1.202  11.942 -0.3660  0.2772 -0.5279
 3052TIP3   OH230570   4.259   4.394   1.983 -0.5100 -0.0105 -0.1327
 3052TIP3    H130571   4.287   4.414   2.072  1.1981 -0.7525 -0.4805
 3052TIP3    H230572   4.238   4.480   1.945  2.9031  0.8605 -0.3429
 3053TIP3   OH230573   6.077   3.960   5.459  0.5374 -0.0278 -0.0543
 3053TIP3    H130574   6.057   3.874   5.423  0.9972  0.0965 -0.6340
 3053TIP3    H230575   6.138   3.943   5.531 -0.4981 -0.2898  0.7722
 3054TIP3   OH230576   5.948   4.650  11.719 -0.2277 -0.3508  0.2507
 3054TIP3    H130577   5.904   4.567  11.701 -0.3225  0.1681 -2.2572
 3054TIP3    H230578   6.002   4.633  11.796  0.6268 -3.0760 -0.8398
 3055TIP3   OH230579   3.042   1.133  14.542 -0.5138  0.5559  0.3609
 3055TIP3    H130580   3.002   1.194  14.481  0.7935  1.2394  0.1396
 3055TIP3    H230581   3.136   1.137  14.521 -0.3615 -1.2649  0.5846
 3056TIP3   OH230582   1.439   6.552  11.835  0.4163 -0.5760  0.3906
 3056TIP3    H130583   1.351   6.584  11.855 -0.1750 -1.5218 -0.6153
 3056TIP3    H230584   1.497   6.609  11.885 -0.8600 -1.7232  3.3725
 3057TIP3   OH230585   2.990   6.526  14.049  0.0059  0.4479 -0.3729
 3057TIP3    H130586   3.072   6.489  14.082  0.8878  1.3564 -1.4731
 3057TIP3    H230587   2.994   6.618  14.072 -1.0467  0.3830  0.1653
 3058TIP3   OH230588   3.140   6.798  13.902  0.2504  0.6673 -1.1634
 3058TIP3    H130589   3.139   6.890  13.874 -0.1447  1.5373  1.4892
 3058TIP3    H230590   3.228   6.785  13.938  0.8862 -0.5541 -2.9870
 3059TIP3   OH230591   2.118   3.003  13.724 -0.5133  0.1485  0.0364
 3059TIP3    H130592   2.100   3.097  13.725  0.7449  0.4142 -0.7858
 3059TIP3    H230593   2.208   2.995  13.691 -0.7712 -1.3661 -0.4063
 3060TIP3   OH230594   1.312   3.589   4.211  0.2492  0.1874 -0.3074
 3060TIP3    H130595   1.390   3.616   4.259  0.3722 -1.2448  0.3332
 3060TIP3    H230596   1.340   3.583   4.120  1.1836 -1.3243  0.0573
 3061TIP3   OH230597   6.761   3.997   3.184 -0.4043  0.1099  0.3300
 3061TIP3    H130598   6.846   4.036   3.204  0.6291 -0.3169 -2.7069
 3061TIP3    H230599   6.755   3.921   3.241  0.6639  0.8248  1.4425
 3062TIP3   OH230600   2.733   3.511  13.321  0.8329 -0.1945 -0.6219
 3062TIP3    H130601   2.823   3.528  13.292  2.5355  0.9742  4.3554
 3062TIP3    H230602   2.694   3.598  13.332  0.6184 -0.4672  1.0772
 3063TIP3   OH230603   0.552   3.877  10.860 -0.2556 -0.7036  0.2215
 3063TIP3    H130604   0.502   3.855  10.781  0.0961  0.3819 -0.3263
 3063TIP3    H230605   0.593   3.960  10.839  1.1550 -1.1859  0.9538
 3064TIP3   OH230606   1.849   6.594   3.404 -0.4718  0.2505  0.3677
 3064TIP3    H130607   1.805   6.582   3.320  0.3474 -1.3527  0.1207
 3064TIP3    H230608   1.943   6.589   3.383 -0.2429  0.5805  1.2744
 3065TIP3   OH230609   5.828   2.046   5.034 -0.2033 -0.1114 -0.1705
 3065TIP3    H130610   5.770   2.027   4.959 -0.0575  0.4379 -0.4247
 3065TIP3    H230611   5.806   2.136   5.059 -0.1424 -0.2410  0.3518
 3066TIP3   OH230612   5.829   3.240   0.046 -0.1344  0.3709 -0.1346
 3066TIP3    H130613   5.868   3.179   0.109 -0.8427 -0.2614 -0.2882
 3066TIP3    H230614   5.774   3.184  -0.009 -0.3007  1.0682 -0.6791
 3067TIP3   OH230615   3.995   6.621   6.426 -0.3236 -0.0526 -0.0209
 3067TIP3    H130616   4.089   6.609   6.438 -0.5101 -0.3696  1.1831
 3067TIP3    H230617   3.988   6.689   6.358  0.7538 -0.7512 -0.8653
 3068TIP3   OH230618   2.293   4.557  12.015  0.2136 -0.1713  0.0431
 3068TIP3    H130619   2.311   4.505  11.936 -0.0722 -0.6781  0.3069
 3068TIP3    H230620   2.220   4.614  11.989  1.8772  1.6331 -0.9109
 3069TIP3   OH230621   1.725   0.163  13.380 -0.0462  0.5254 -0.1423
 3069TIP3    H130622   1.768   0.091  13.426  1.0062  0.3555 -1.3479
 3069TIP3    H230623   1.638   0.129  13.359  0.4793 -0.4686 -0.8146
 3070TIP3   OH230624   4.644   4.194  12.960  0.5765  0.5294 -0.0879
 3070TIP3    H130625   4.648   4.272  13.015  1.9513  1.3038 -1.2201
 3070TIP3    H230626   4.678   4.123  13.016  3.0631  1.5152 -0.2218
 3071TIP3   OH230627   1.162   3.592   2.485  0.0908  0.5121  0.1132
 3071TIP3    H130628   1.170   3.497   2.479 -0.6473  0.4134  0.5889
 3071TIP3    H230629   1.198   3.624   2.402  0.1021 -0.1905 -0.1633
 3072TIP3   OH230630   0.144   2.148   1.320 -0.1744  0.5787 -0.0256
 3072TIP3    H130631   0.232   2.127   1.353 -0.2633  2.3269  1.4463
 3072TIP3    H230632   0.123   2.075   1.261  2.5749  0.5056 -1.0540
 3073TIP3   OH230633   3.012   5.880   5.512  0.1219 -0.4178  0.3288
 3073TIP3    H130634   2.955   5.938   5.562  0.6890  0.2800  0.1691
 3073TIP3    H230635   2.952   5.831   5.456 -0.4072 -0.3601  0.8318
 3074TIP3   OH230636   0.796   1.259  12.554  0.7110 -0.4046 -0.0697
 3074TIP3    H130637   0.862   1.241  12.488 -0.6435 -0.8032 -1.3831
 3074TIP3    H230638   0.746   1.333  12.519 -0.7045 -1.3056 -0.0665
 3075TIP3   OH230639   5.795   5.013  13.170  0.7734 -0.6605 -0.3561
 3075TIP3    H130640   5.765   5.096  13.207 -0.1861 -0.8777 -0.6314
 3075TIP3    H230641   5.837   5.038  13.088 -0.0016 -0.4897 -0.7102
 3076TIP3   OH230642   0.918   5.235   5.663 -0.0463 -0.0864  0.8645
 3076TIP3    H130643   0.828   5.230   5.631  0.2355 -2.9502  0.2398
 3076TIP3    H230644   0.972   5.220   5.585  0.9966  0.9269  1.3435
 3077TIP3   OH230645   0.859   3.143  16.086  0.4021  0.0801 -0.2327
 3077TIP3    H130646   0.827   3.071  16.032  2.9654 -1.0965 -0.3330
 3077TIP3    H230647   0.859   3.219  16.028  0.5645 -0.5508 -1.0636
 3078TIP3   OH230648   3.963   2.160   1.400  0.0600 -0.0081 -0.1844
 3078TIP3    H130649   3.919   2.116   1.473 -0.2341  0.0274 -0.3416
 3078TIP3    H230650   3.909   2.142   1.324  1.1641 -1.3131 -0.7027
 3079TIP3   OH230651   0.556   0.957   0.908 -0.4049  0.3931  0.6225
 3079TIP3    H130652   0.607   0.980   0.831  0.6081  1.7744  1.6484
 3079TIP3    H230653   0.475   0.919   0.873  0.2302  0.5250 -1.0861
 3080TIP3   OH230654   5.778   0.983   2.982 -0.3309  0.3259  0.3071
 3080TIP3    H130655   5.774   0.892   3.010 -1.7924  0.2886  0.0876
 3080TIP3    H230656   5.870   1.000   2.966 -0.2040 -1.7159 -1.5481
 3081TIP3   OH230657   1.007   1.735   2.832 -0.4496  0.0254  0.6879
 3081TIP3    H130658   0.995   1.822   2.795  1.0186 -0.3699 -0.8327
 3081TIP3    H230659   0.928   1.720   2.884 -1.3372  1.7208 -0.0926
 3082TIP3   OH230660   4.437   0.240  15.315  0.1616 -0.0359 -0.2510
 3082TIP3    H130661   4.461   0.196  15.397  0.9239 -0.8106 -0.8741
 3082TIP3    H230662   4.359   0.194  15.284 -0.8553  1.0170  0.6072
 3083TIP3   OH230663   6.506   0.213  16.962 -0.3157  0.0873  0.5722
 3083TIP3    H130664   6.451   0.253  16.895 -0.9359  0.8864  1.5407
 3083TIP3    H230665   6.578   0.274  16.974  0.9203 -1.0246 -0.8001
 3084TIP3   OH230666   4.516   1.133  12.882  0.1733 -0.5607 -0.3120
 3084TIP3    H130667   4.425   1.160  12.892  0.4512  0.3312 -0.1438
 3084TIP3    H230668   4.514   1.070  12.809 -0.5606 -0.5107 -0.3426
 3085TIP3   OH230669   1.452   4.284   3.546  0.4009  0.5142 -0.7971
 3085TIP3    H130670   1.358   4.278   3.564  0.4053  3.2089  0.5259
 3085TIP3    H230671   1.487   4.202   3.580 -0.8397  1.5604  3.7300
 3086TIP3   OH230672   6.096   4.290  14.427 -0.0513  0.0815  0.1658
 3086TIP3    H130673   6.073   4.232  14.500  1.8984 -1.7272 -0.5668
 3086TIP3    H230674   6.153   4.237  14.371  0.6111  2.2528 -1.3371
 3087TIP3   OH230675   3.531   5.836  16.415  0.4357  0.5748  0.2208
 3087TIP3    H130676   3.622   5.859  16.396  0.3375  0.1624 -0.8117
 3087TIP3    H230677   3.480   5.905  16.371  0.2488  1.0025  1.0896
 3088TIP3   OH230678   2.469   6.377   4.186 -0.1176 -0.1435 -0.2758
 3088TIP3    H130679   2.426   6.338   4.262 -0.6465  2.3025  0.7561
 3088TIP3    H230680   2.471   6.471   4.204  1.2397  0.3510 -2.5547
 3089TIP3   OH230681   2.238   2.068   4.304  0.4121 -0.3019 -0.2006
 3089TIP3    H130682   2.306   2.039   4.364  0.1646  0.1240  0.2869
 3089TIP3    H230683   2.209   2.153   4.338 -1.2746 -1.0521  0.3727
 3090TIP3   OH230684   1.180   4.486   1.659 -0.0060  0.1791 -0.2496
 3090TIP3    H130685   1.124   4.558   1.687 -2.1261 -0.5263 -2.3091
 3090TIP3    H230686   1.268   4.513   1.683 -0.9215  2.6518  0.6116
 3091TIP3   OH230687   5.950   5.324   4.895  0.4933  0.3387  0.2731
 3091TIP3    H130688   5.959   5.393   4.829 -0.7120  0.3544  0.0950
 3091TIP3    H230689   5.860   5.333   4.927  0.7966 -0.1952  1.3347
 3092TIP3   OH230690   0.697   2.955  15.815  0.1608  0.2863  0.2530
 3092TIP3    H130691   0.700   2.879  15.758  0.7972  0.3441  0.2074
 3092TIP3    H230692   0.690   2.919  15.903  1.1604  0.1578  0.2852
 3093TIP3   OH230693   2.803   5.232   3.465  0.2711 -0.0476 -0.1325
 3093TIP3    H130694   2.796   5.298   3.396 -0.4625  0.0685  0.0513
 3093TIP3    H230695   2.760   5.271   3.541 -0.4314 -0.8411 -0.1082
 3094TIP3   OH230696   5.460   5.194   0.134 -0.7799  0.1126 -0.1481
 3094TIP3    H130697   5.404   5.116   0.131 -1.7932  0.8353 -1.3110
 3094TIP3    H230698   5.431   5.241   0.212 -0.0749 -0.7075  0.6358
 3095TIP3   OH230699   5.672   5.363   3.478 -0.5151  0.2275 -0.3061
 3095TIP3    H130700   5.601   5.425   3.495 -0.1377  0.7579 -0.6572
 3095TIP3    H230701   5.682   5.364   3.383 -0.1790 -0.0080 -0.2726
 3096TIP3   OH230702   5.368   6.312  13.650 -0.5929  0.3921  0.0698
 3096TIP3    H130703   5.370   6.227  13.605 -0.5994  1.8065 -2.8639
 3096TIP3    H230704   5.276   6.323  13.675 -0.6218 -0.3836  0.3486
 3097TIP3   OH230705   0.963   4.544   6.306  0.2651  0.7626  0.2153
 3097TIP3    H130706   0.908   4.616   6.274  2.3633  2.7783  0.8683
 3097TIP3    H230707   0.903   4.489   6.356 -1.8731  0.7346 -2.1664
 3098TIP3   OH230708   5.848   2.193  15.241  0.1893  0.0158  0.1622
 3098TIP3    H130709   5.840   2.288  15.245 -0.9198  0.0464 -1.7479
 3098TIP3    H230710   5.817   2.163  15.326 -0.2381  1.3192  0.4957
 3099TIP3   OH230711   1.376   4.761  13.462 -0.5718 -0.0079 -0.6452
 3099TIP3    H130712   1.391   4.841  13.411 -1.8564  0.3617 -0.4848
 3099TIP3    H230713   1.404   4.690  13.404 -0.6139  0.4882 -1.2868
 3100TIP3   OH230714   5.518   5.557  16.091  0.1733 -0.2787 -0.2898
 3100TIP3    H130715   5.550   5.498  16.023 -0.1339  0.8449 -1.4601
 3100TIP3    H230716   5.495   5.637  16.044 -1.5947 -0.0202  0.9119
 3101TIP3   OH230717   0.143   0.468  12.920  0.2941  0.1476 -0.0774
 3101TIP3    H130718   0.228   0.425  12.926  0.4267  0.5108  1.0647
 3101TIP3    H230719   0.105   0.437  12.838 -0.4086 -3.6129  1.4647
 3102TIP3   OH230720   2.733   6.371   1.631  0.5278  0.0286 -0.1412
 3102TIP3    H130721   2.800   6.436   1.652  0.9106 -0.0147 -1.1453
 3102TIP3    H230722   2.749   6.299   1.692  0.9376  0.3232  0.1040
 3103TIP3   OH230723   4.040   5.568  14.051  0.1052 -0.3999  0.2081
 3103TIP3    H130724   4.000   5.503  14.109 -1.2573 -0.6709 -0.9616
 3103TIP3    H230725   4.105   5.613  14.105 -1.0589 -0.6846  1.9149
 3104TIP3   OH230726   5.624   3.311  13.565  0.1725  0.1873  0.1392
 3104TIP3    H130727   5.563   3.275  13.500 -0.5777 -0.9351  1.3943
 3104TIP3    H230728   5.704   3.260  13.554  0.7832  1.3768 -1.2272
 3105TIP3   OH230729   5.666   5.356   2.442  0.0572  0.2869 -0.6408
 3105TIP3    H130730   5.710   5.304   2.375 -0.3201 -0.4680 -0.3154
 3105TIP3    H230731   5.636   5.291   2.506  1.6309  1.0795  0.9848
 3106TIP3   OH230732   1.084   2.589  12.183 -0.2120 -0.1229 -0.0229
 3106TIP3    H130733   1.125   2.588  12.097  1.9330  0.5335  0.9163
 3106TIP3    H230734   1.073   2.681  12.205 -3.0373 -0.2586 -0.5443
 3107TIP3   OH230735   0.112   2.187   1.735 -0.3364 -0.5384 -0.0722
 3107TIP3    H130736   0.159   2.259   1.694 -0.1250  0.2408  1.4856
 3107TIP3    H230737   0.079   2.223   1.817 -1.2766 -1.8702  0.1686
 3108TIP3   OH230738   6.609   5.358   6.056 -0.1119  0.2887  0.3253
 3108TIP3    H130739   6.568   5.277   6.086 -0.1938  0.3199  0.2982
 3108TIP3    H230740   6.556   5.428   6.095  0.7047  0.3405  1.3741
 3109TIP3   OH230741   2.912   4.333  16.873 -0.2242 -0.0699 -0.7146
 3109TIP3    H130742   2.827   4.315  16.912  0.8974 -1.6181  1.1746
 3109TIP3    H230743   2.963   4.372  16.945  0.7511  0.5932 -1.7391
 3110TIP3   OH230744   5.226   4.251  13.214  0.1259 -0.1407 -0.4020
 3110TIP3    H130745   5.173   4.210  13.145 -0.8465 -0.9768  0.8031
 3110TIP3    H230746   5.206   4.200  13.293  0.9251  1.0296  0.5884
 3111TIP3   OH230747   2.324   2.368   5.722 -0.3542  0.1278  0.0899
 3111TIP3    H130748   2.391   2.300   5.732  0.2213  0.7128  0.3014
 3111TIP3    H230749   2.367   2.448   5.751 -0.9083  0.6505 -0.4952
 3112TIP3   OH230750   0.720   1.195   4.257  0.9492 -0.3689  0.0919
 3112TIP3    H130751   0.731   1.193   4.162  0.6111 -1.0153  0.0550
 3112TIP3    H230752   0.802   1.162   4.292  0.9325 -0.4981  0.0092
 3113TIP3   OH230753   3.812   2.153  17.116  0.0012  0.2513  0.6672
 3113TIP3    H130754   3.731   2.103  17.107  0.3121 -0.1719  0.1635
 3113TIP3    H230755   3.873   2.093  17.160  0.7374 -0.2482 -0.9675
 3114TIP3   OH230756   4.571   5.873   2.595 -0.6098  0.4660 -0.0721
 3114TIP3    H130757   4.616   5.940   2.544  3.2189 -1.1959  0.7242
 3114TIP3    H230758   4.565   5.910   2.683  0.5388  0.2068  0.1294
 3115TIP3   OH230759   3.026   5.342   5.877 -0.3301 -0.4562  0.3928
 3115TIP3    H130760   3.015   5.423   5.827 -1.2079 -1.3992 -1.0098
 3115TIP3    H230761   3.089   5.291   5.826 -0.3646 -0.9631  0.8581
 3116TIP3   OH230762   2.026   6.383   0.706  0.1217 -0.2108  0.6225
 3116TIP3    H130763   1.944   6.426   0.681  0.4855 -0.0380 -0.3125
 3116TIP3    H230764   2.051   6.424   0.789 -0.0477  0.6808  0.2409
 3117TIP3   OH230765   2.512   1.491   3.611  0.3272  0.2772  0.0662
 3117TIP3    H130766   2.486   1.399   3.602 -1.4584  0.7511  0.1362
 3117TIP3    H230767   2.553   1.496   3.697 -0.1983 -0.3228  0.3566
 3118TIP3   OH230768   6.082   2.797  10.589 -0.4813  0.3318  0.0196
 3118TIP3    H130769   6.001   2.747  10.598 -0.3761  0.5714  4.0535
 3118TIP3    H230770   6.151   2.732  10.601 -0.1925  0.6889  0.2916
 3119TIP3   OH230771   0.668   0.525   3.658 -0.1120  0.5267  0.1715
 3119TIP3    H130772   0.630   0.588   3.720 -1.1589 -1.3249  1.5462
 3119TIP3    H230773   0.752   0.501   3.696 -1.4030 -1.7489  1.8455
 3120TIP3   OH230774   6.032   6.294  11.558  0.3513 -0.1811 -0.0406
 3120TIP3    H130775   6.071   6.232  11.619 -0.2869 -0.7082 -0.1631
 3120TIP3    H230776   6.104   6.352  11.534  0.2715  1.1526  2.5461
 3121TIP3   OH230777   2.208   2.329   4.344  0.0982 -0.1009  0.2453
 3121TIP3    H130778   2.208   2.381   4.264 -0.7045 -1.0746 -0.3993
 3121TIP3    H230779   2.272   2.373   4.401  1.2842  0.1325 -1.2135
 3122TIP3   OH230780   0.531   0.457   0.445  0.2995  0.0471 -0.3046
 3122TIP3    H130781   0.622   0.485   0.441  0.5633 -0.7766 -0.3420
 3122TIP3    H230782   0.517   0.411   0.362  0.1391 -0.6573  0.1026
 3123TIP3   OH230783   1.940   2.668  15.460 -0.2176  0.0265  0.4169
 3123TIP3    H130784   1.845   2.654  15.470 -0.1042 -0.1964  1.3068
 3123TIP3    H230785   1.963   2.620  15.381 -0.5477 -1.4263  1.1584
 3124TIP3   OH230786   5.432   0.824   2.901 -0.2247  0.0721  0.3932
 3124TIP3    H130787   5.417   0.908   2.945 -0.9773 -0.0846  0.4550
 3124TIP3    H230788   5.361   0.818   2.836  2.2376  1.4559 -2.6898
 3125TIP3   OH230789   2.114   0.959  15.334 -0.1803 -0.0884  0.5055
 3125TIP3    H130790   2.160   0.936  15.253  0.6960  1.7736  0.4274
 3125TIP3    H230791   2.050   1.025  15.307 -0.7460 -0.3752  1.1373
 3126TIP3   OH230792   2.890   4.527   1.404  0.0852 -0.0257  0.2026
 3126TIP3    H130793   2.911   4.561   1.491 -3.0471 -1.3560  1.6585
 3126TIP3    H230794   2.957   4.462   1.386  1.5468  1.2136  0.9673
 3127TIP3   OH230795   6.009   0.896   2.609 -0.1769 -0.6754  0.3882
 3127TIP3    H130796   6.015   0.962   2.678 -1.2884 -0.1677  0.0257
 3127TIP3    H230797   5.915   0.881   2.599  0.0191 -1.4715 -0.3326
 3128TIP3   OH230798   5.515   3.377   1.866  0.2258 -0.7740 -0.3191
 3128TIP3    H130799   5.528   3.468   1.843 -2.1299  0.4898  2.6124
 3128TIP3    H230800   5.506   3.331   1.783  1.0562  1.7249 -1.8648
 3129TIP3   OH230801   6.697   1.539   4.005  0.2729  0.6665  0.3402
 3129TIP3    H130802   6.690   1.588   4.087  0.7157 -0.1953  0.9169
 3129TIP3    H230803   6.786   1.501   4.007 -0.4658 -1.1837  0.5342
 3130TIP3   OH230804   2.748   5.752   5.842 -0.1434  0.2802 -0.3257
 3130TIP3    H130805   2.832   5.791   5.867 -0.1971  1.0935 -1.3506
 3130TIP3    H230806   2.765   5.709   5.758 -0.4048 -0.8204  0.1678
 3131TIP3   OH230807   4.868   6.553  14.455 -0.1467  0.0502 -0.6578
 3131TIP3    H130808   4.806   6.603  14.402 -1.7806 -0.7703  0.3890
 3131TIP3    H230809   4.813   6.493  14.506  1.5051 -0.5724  0.4804
 3132TIP3   OH230810   4.174   6.501  15.476 -0.0357 -0.1617  0.2674
 3132TIP3    H130811   4.177   6.528  15.384  0.1039  0.1832  0.3734
 3132TIP3    H230812   4.113   6.562  15.517 -1.4920 -1.3812  0.0483
 3133TIP3   OH230813   1.796   0.360   1.950  0.5539  0.9204  0.5243
 3133TIP3    H130814   1.853   0.436   1.953  1.3891  0.3469 -0.3595
 3133TIP3    H230815   1.855   0.285   1.948 -0.2613  0.2190  1.7578
 3134TIP3   OH230816   1.792   5.088  14.287 -0.4533 -0.1146  0.2546
 3134TIP3    H130817   1.729   5.084  14.358 -0.8037  1.0914  0.0312
 3134TIP3    H230818   1.761   5.159  14.231 -0.6818 -1.5764 -1.5849
 3135TIP3   OH230819   6.169   1.470   0.716 -0.2226  0.5009 -0.2741
 3135TIP3    H130820   6.102   1.536   0.732  0.3422  0.5974  1.9993
 3135TIP3    H230821   6.245   1.500   0.765 -0.2570 -2.2817  1.7104
 3136TIP3   OH230822   0.427   4.371  15.589 -0.0747 -0.8714  0.1860
 3136TIP3    H130823   0.474   4.353  15.670 -0.5483 -2.5003  0.1411
 3136TIP3    H230824   0.472   4.318  15.523 -0.9008 -1.1358 -0.1859
 3137TIP3   OH230825   6.635   4.813   5.016 -0.5821  0.5932 -0.1862
 3137TIP3    H130826   6.701   4.750   5.047  0.4003  0.6266 -2.0417
 3137TIP3    H230827   6.623   4.873   5.090  0.2321 -0.3906  0.7839
 3138TIP3   OH230828   3.056   1.057   0.063 -0.1265 -0.2200  0.1248
 3138TIP3    H130829   3.034   1.075  -0.029  1.5869  0.0997 -0.2700
 3138TIP3    H230830   3.085   0.966   0.063 -2.9376 -1.2090  0.9663
 3139TIP3   OH230831   5.326   1.994  12.127  0.6256 -0.4853 -0.6264
 3139TIP3    H130832   5.396   1.985  12.192  0.2656  0.1870 -0.1402
 3139TIP3    H230833   5.323   1.908  12.084  1.0852 -0.8380  0.0231
 3140TIP3   OH230834   3.292   4.285  12.240 -0.0661  0.4142  0.7194
 3140TIP3    H130835   3.279   4.192  12.258 -0.6306  0.1043 -1.1251
 3140TIP3    H230836   3.378   4.305  12.278  0.1679 -0.9106  0.9309
 3141TIP3   OH230837   0.158   0.940  12.272  0.3337  0.3113  0.3295
 3141TIP3    H130838   0.067   0.967  12.255 -0.4955 -0.8618  2.4211
 3141TIP3    H230839   0.180   0.882  12.200 -1.1982 -0.6725  0.5972
 3142TIP3   OH230840   1.929   0.310   2.746 -0.1530 -0.2656  0.4094
 3142TIP3    H130841   2.012   0.311   2.793  0.8639  0.4448 -1.3541
 3142TIP3    H230842   1.951   0.280   2.658 -1.5087  1.3683 -0.5328
 3143TIP3   OH230843   6.794   1.157   2.244 -0.7711 -0.6608 -0.2370
 3143TIP3    H130844   6.795   1.061   2.242 -0.5817 -0.6501 -0.6600
 3143TIP3    H230845   6.732   1.179   2.314  0.1635 -1.0980  0.7573
 3144TIP3   OH230846   1.283   1.710   5.481  0.3485 -0.3847 -0.0229
 3144TIP3    H130847   1.243   1.776   5.538 -0.8438 -0.9458 -0.1703
 3144TIP3    H230848   1.358   1.677   5.531 -0.4830 -0.6405  1.1014
 3145TIP3   OH230849   5.825   3.750   2.608 -0.2011 -0.4655 -0.0251
 3145TIP3    H130850   5.747   3.788   2.649  1.9087  3.1779  1.0795
 3145TIP3    H230851   5.811   3.761   2.514 -1.6838 -1.4878  0.0427
 3146TIP3   OH230852   4.735   2.649  16.392  0.0787 -0.4246  0.6442
 3146TIP3    H130853   4.771   2.574  16.346  3.4137  0.9337  0.7680
 3146TIP3    H230854   4.719   2.618  16.481  0.6994 -1.1627  0.5001
 3147TIP3   OH230855   3.616   0.809   5.322  0.1573 -0.3727 -0.0455
 3147TIP3    H130856   3.673   0.768   5.257  1.0599 -0.5436  0.8268
 3147TIP3    H230857   3.629   0.903   5.310 -1.0691 -0.3318 -1.3032
 3148TIP3   OH230858   1.007   1.018  16.534 -0.3523 -0.2418  0.2258
 3148TIP3    H130859   0.960   1.097  16.562  0.6699  2.3475 -4.2258
 3148TIP3    H230860   0.949   0.977  16.470  1.1854  0.0629 -1.4697
 3149TIP3   OH230861   6.366   6.037  11.656 -0.0063  0.1148  0.0509
 3149TIP3    H130862   6.451   6.021  11.696  0.1492 -1.1269 -0.7229
 3149TIP3    H230863   6.369   6.129  11.629  0.3671  0.6233  1.6545
 3150TIP3   OH230864   2.198   5.145  15.881 -0.3385 -0.4001 -0.0467
 3150TIP3    H130865   2.244   5.229  15.874  0.0666 -0.6054  0.1090
 3150TIP3    H230866   2.151   5.136  15.798 -0.9993  0.3368  0.2368
 3151TIP3   OH230867   3.934   1.577  13.443 -0.4084 -0.0757 -0.0169
 3151TIP3    H130868   4.018   1.609  13.410 -0.9268  1.6148  0.1959
 3151TIP3    H230869   3.876   1.581  13.367 -0.5400 -0.3007  0.0716
 3152TIP3   OH230870   4.596   3.228  13.501 -0.6579  0.3412  0.8932
 3152TIP3    H130871   4.635   3.175  13.571 -0.3356 -0.3249  0.2139
 3152TIP3    H230872   4.535   3.286  13.547  2.3402  2.6782  2.2295
 3153TIP3   OH230873   1.896   3.092   6.670  0.5429  0.1570 -0.2069
 3153TIP3    H130874   1.904   3.181   6.637  0.3378 -0.3680 -1.7601
 3153TIP3    H230875   1.984   3.071   6.702  1.2281  0.1553 -1.9533
 3154TIP3   OH230876   4.688   0.448   1.084  0.0712 -0.6180 -0.2863
 3154TIP3    H130877   4.719   0.417   1.169  2.5157  0.7640 -0.5592
 3154TIP3    H230878   4.683   0.369   1.030  1.8418 -1.1317  0.2242
 3155TIP3   OH230879   5.097   0.594  11.084 -0.1610  0.5121 -0.2182
 3155TIP3    H130880   5.060   0.506  11.090 -1.4339  1.0275 -0.1254
 3155TIP3    H230881   5.175   0.584  11.029  0.0254 -0.7504  0.2359
 3156TIP3   OH230882   2.922   5.820   1.338  0.3977 -0.4329  0.6391
 3156TIP3    H130883   2.914   5.752   1.405 -1.1148 -2.6594 -1.6072
 3156TIP3    H230884   2.989   5.787   1.279 -1.4536 -0.8554 -1.3334
 3157TIP3   OH230885   5.480   5.378  15.561  0.0874  0.1774 -0.0985
 3157TIP3    H130886   5.523   5.439  15.501  0.9494 -1.0349 -0.7518
 3157TIP3    H230887   5.465   5.299  15.509 -0.6471 -0.3177  0.8330
 3158TIP3   OH230888   3.790   6.176  13.446  0.1798 -0.4672  0.1401
 3158TIP3    H130889   3.872   6.204  13.487  0.0821 -0.0989  0.0852
 3158TIP3    H230890   3.724   6.237  13.479  0.2937  0.5465 -1.4093
 3159TIP3   OH230891   2.284   3.631  16.958  0.2271 -0.2492 -0.2779
 3159TIP3    H130892   2.371   3.597  16.935  1.9159  2.1640  1.8967
 3159TIP3    H230893   2.278   3.618  17.052 -2.3429 -1.3613 -0.5225
 3160TIP3   OH230894   5.887   3.039  14.798 -0.3624  0.1473 -0.0600
 3160TIP3    H130895   5.809   2.983  14.802 -0.4358  0.0775 -1.7606
 3160TIP3    H230896   5.853   3.128  14.801 -0.5070  0.1145 -0.5743
 3161TIP3   OH230897   1.236   3.600  11.793  0.0770 -0.5864 -0.6428
 3161TIP3    H130898   1.238   3.563  11.881 -2.4748  0.5200 -0.0226
 3161TIP3    H230899   1.238   3.524  11.735  0.5053 -1.3888  0.3926
 3162TIP3   OH230900   6.519   0.513  12.277  0.8071  0.4544  0.1871
 3162TIP3    H130901   6.597   0.563  12.300 -0.2107  1.1793  2.3482
 3162TIP3    H230902   6.461   0.577  12.237  1.0664  0.0400 -0.8908
 3163TIP3   OH230903   4.742   0.104  12.767 -0.2926  0.1548  0.2808
 3163TIP3    H130904   4.820   0.080  12.717 -1.9596 -0.9635 -1.9811
 3163TIP3    H230905   4.683   0.030  12.756 -1.7722  1.0539  1.7417
 3164TIP3   OH230906   6.629   6.699   4.336  0.1628 -0.1776  0.1010
 3164TIP3    H130907   6.659   6.610   4.317 -2.2204 -0.8162 -1.0764
 3164TIP3    H230908   6.572   6.689   4.412 -1.8245 -0.0879 -1.3114
 3165TIP3   OH230909   5.406   5.464  14.502  0.1145  0.4317 -0.6464
 3165TIP3    H130910   5.387   5.371  14.493  1.7274 -0.1089  0.9851
 3165TIP3    H230911   5.434   5.491  14.415  2.5225 -1.3647 -0.5164
 3166TIP3   OH230912   3.932   4.922  12.007 -0.0675 -0.0743 -0.3037
 3166TIP3    H130913   3.847   4.877  12.000  0.2034 -0.4240 -1.8082
 3166TIP3    H230914   3.910   5.010  12.038 -0.9038 -0.3816  0.0128
 3167TIP3   OH230915   2.455   1.451  14.134 -0.0348  0.4446  0.5261
 3167TIP3    H130916   2.371   1.457  14.089  0.8027  1.8533 -0.9990
 3167TIP3    H230917   2.516   1.496  14.075  1.5833  0.3738  2.0731
 3168TIP3   OH230918   6.610   1.732   4.187  0.1586 -0.3337 -0.2204
 3168TIP3    H130919   6.537   1.698   4.239  0.7340 -1.0529  0.1525
 3168TIP3    H230920   6.601   1.827   4.190 -0.5655 -0.4120  0.1045
 3169TIP3   OH230921   3.995   2.319  17.000  0.4884 -0.3932 -0.2857
 3169TIP3    H130922   3.937   2.267  17.056  0.6954 -0.1323  0.1805
 3169TIP3    H230923   4.017   2.396  17.053  0.6470 -0.1160 -0.7484
 3170TIP3   OH230924   4.120   2.116  12.009  0.6541  0.1312 -0.0224
 3170TIP3    H130925   4.102   2.043  11.950  2.9133 -0.9871  0.5641
 3170TIP3    H230926   4.163   2.181  11.954  2.3685 -0.7352  0.2064
 3171TIP3   OH230927   5.752   4.128  13.187  0.1344  0.1807  0.4018
 3171TIP3    H130928   5.789   4.069  13.252  0.4248 -0.1693 -0.0693
 3171TIP3    H230929   5.663   4.095  13.173  1.3071 -2.3608 -2.3359
 3172TIP3   OH230930   0.230   0.967   3.410  0.3650  0.0722 -0.5977
 3172TIP3    H130931   0.322   0.985   3.395  0.0906  1.5641 -0.6689
 3172TIP3    H230932   0.184   1.012   3.339 -0.4764  0.4364  0.1409
 3173TIP3   OH230933   5.294   5.923   2.735 -0.0655 -0.5071  0.0843
 3173TIP3    H130934   5.335   5.990   2.680  1.0285  0.0825  1.5217
 3173TIP3    H230935   5.203   5.920   2.706  0.4051 -0.0367 -1.5396
 3174TIP3   OH230936   5.043   0.106  14.294 -0.2527  0.7286 -0.1869
 3174TIP3    H130937   4.949   0.119  14.278 -0.3144  1.6577  0.8329
 3174TIP3    H230938   5.081   0.102  14.206 -1.4866 -1.9542 -0.7053
 3175TIP3   OH230939   2.433   0.593   3.265  0.6947  0.2805 -0.0985
 3175TIP3    H130940   2.340   0.588   3.287  0.8735  0.4233  0.7249
 3175TIP3    H230941   2.472   0.515   3.307  0.8057 -0.2592 -1.1804
 3176TIP3   OH230942   0.079   5.125  16.754 -0.2799 -0.2301  0.1081
 3176TIP3    H130943   0.069   5.213  16.719  0.0688 -0.6595 -1.1247
 3176TIP3    H230944   0.165   5.124  16.795  0.9480 -0.7473 -2.3105
 3177TIP3   OH230945   4.792   3.476  13.467  0.2848 -0.2073 -0.2974
 3177TIP3    H130946   4.770   3.497  13.558  2.5568  1.9195 -0.1199
 3177TIP3    H230947   4.723   3.517  13.415 -0.6632 -0.8632  0.4033
 3178TIP3   OH230948   4.406   2.613   4.909 -0.0526 -0.0153 -0.1640
 3178TIP3    H130949   4.370   2.620   4.821 -1.9532  1.0163  0.6155
 3178TIP3    H230950   4.355   2.676   4.961 -0.1650 -1.7497  2.0199
 3179TIP3   OH230951   6.031   0.741  13.284 -0.5774 -0.0315  0.2272
 3179TIP3    H130952   6.026   0.806  13.354 -0.7047  0.2244 -0.0172
 3179TIP3    H230953   6.118   0.700  13.295  0.2419  1.3817 -0.6650
 3180TIP3   OH230954   5.587   6.265   1.778  0.1121 -0.8209 -0.0490
 3180TIP3    H130955   5.610   6.338   1.720 -1.9044  0.1798  0.3190
 3180TIP3    H230956   5.652   6.268   1.847  0.0661  0.6737 -0.0382
 3181TIP3   OH230957   3.976   5.001   4.195  0.0770  0.1483  0.4025
 3181TIP3    H130958   4.013   4.914   4.184 -1.8304 -0.4582 -2.3006
 3181TIP3    H230959   4.051   5.061   4.187  0.9819 -1.1303 -1.1596
 3182TIP3   OH230960   6.667   2.845   4.886 -0.1444 -0.1621  0.4932
 3182TIP3    H130961   6.758   2.868   4.906  0.0504 -0.4098 -0.0636
 3182TIP3    H230962   6.618   2.925   4.902  0.0908 -0.1813  1.3251
 3183TIP3   OH230963   3.507   2.211  13.349 -0.0572 -0.5284 -0.2771
 3183TIP3    H130964   3.558   2.133  13.369 -1.6352 -1.7304 -0.7269
 3183TIP3    H230965   3.448   2.185  13.278 -1.3956  0.7187  0.3008
 3184TIP3   OH230966   5.351   1.417   4.470 -0.0028 -0.0654 -0.6284
 3184TIP3    H130967   5.399   1.364   4.406 -0.6172  0.0127 -1.1653
 3184TIP3    H230968   5.368   1.507   4.444  1.8373  0.0711  0.8639
 3185TIP3   OH230969   3.853   3.322   4.058  0.1499  0.2812 -0.2450
 3185TIP3    H130970   3.814   3.261   4.120  1.7468  0.0270  0.5709
 3185TIP3    H230971   3.800   3.402   4.066 -1.1592 -0.5439 -0.3737
 3186TIP3   OH230972   6.746   2.073   5.143  0.3168  0.2630 -0.1724
 3186TIP3    H130973   6.697   2.136   5.195  2.0692  2.3475 -0.9388
 3186TIP3    H230974   6.704   2.075   5.057 -0.1615 -0.2813  0.0435
 3187TIP3   OH230975   2.653   6.673   1.614 -0.1574 -0.4315 -0.0802
 3187TIP3    H130976   2.740   6.637   1.629  0.2826 -0.0550 -1.5332
 3187TIP3    H230977   2.603   6.599   1.579  0.5573  0.0957 -2.4183
 3188TIP3   OH230978   4.783   1.960  15.918 -0.3156 -0.0734 -0.2299
 3188TIP3    H130979   4.793   1.876  15.874 -2.5193 -0.0482 -0.8893
 3188TIP3    H230980   4.734   1.940  15.998  2.0732  0.1521  1.3917
 3189TIP3   OH230981   4.355   0.059   4.624  0.4458 -0.4842 -0.0489
 3189TIP3    H130982   4.325   0.147   4.648 -0.6810 -1.1195  0.9277
 3189TIP3    H230983   4.366   0.014   4.707  3.0196 -0.6831 -0.3994
 3190TIP3   OH230984   4.728   0.541  14.169 -0.4032  0.0758 -0.5048
 3190TIP3    H130985   4.779   0.600  14.114  0.6758  1.6642  2.0260
 3190TIP3    H230986   4.654   0.594  14.199 -0.3173 -0.3726  0.5238
 3191TIP3   OH230987   0.647   5.403  16.731 -0.2807  0.1616 -0.2222
 3191TIP3    H130988   0.637   5.493  16.700 -0.4211 -0.6704 -2.8569
 3191TIP3    H230989   0.559   5.378  16.760 -0.6693  0.2849 -1.2600
 3192TIP3   OH230990   1.111   3.277   6.390  1.0021 -0.0027  0.1397
 3192TIP3    H130991   1.075   3.359   6.423  0.6804 -0.8268  1.9544
 3192TIP3    H230992   1.059   3.209   6.432  2.8088 -1.1843  0.5829
 3193TIP3   OH230993   0.268   0.459   2.395  0.7430 -0.3525  0.0608
 3193TIP3    H130994   0.197   0.401   2.367 -0.0617 -0.4788  2.1677
 3193TIP3    H230995   0.317   0.477   2.315  0.3681 -3.0270 -0.8741
 3194TIP3   OH230996   0.457   0.166   2.161  0.0858 -0.0890  0.4139
 3194TIP3    H130997   0.387   0.156   2.096 -1.5934 -1.1636  2.2751
 3194TIP3    H230998   0.532   0.200   2.111 -1.0392 -1.0710 -2.0845
 3195TIP3   OH230999   3.169   2.576  12.136  0.2472 -0.4069 -0.6457
 3195TIP3    H131000   3.147   2.666  12.112 -0.2916 -0.7567 -1.5423
 3195TIP3    H231001   3.246   2.583  12.191  0.3129  0.5930 -0.8568
 3196TIP3   OH231002   5.256   2.867  16.129 -0.2735 -0.1772  0.2323
 3196TIP3    H131003   5.180   2.853  16.185 -0.6480 -2.5948 -0.7750
 3196TIP3    H231004   5.329   2.828  16.178  0.4152  2.1087  1.1826
 3197TIP3   OH231005   2.686   4.946   2.430  0.1520  0.3363 -0.3605
 3197TIP3    H131006   2.715   4.889   2.359  1.4461 -0.5015  0.7803
 3197TIP3    H231007   2.751   5.016   2.434  1.9543 -1.3240  1.9465
 3198TIP3   OH231008   2.580   6.065   3.756 -0.6074  0.2967 -0.0552
 3198TIP3    H131009   2.497   6.111   3.771 -1.5199 -1.3848  0.3352
 3198TIP3    H231010   2.562   5.975   3.783  1.5505  0.0228  0.6334
 3199TIP3   OH231011   4.106   4.270  13.272 -0.7800  0.0637 -0.2290
 3199TIP3    H131012   4.201   4.280  13.279 -0.8673  1.3803 -0.6392
 3199TIP3    H231013   4.080   4.336  13.207 -1.8572 -0.9807 -0.8986
 3200TIP3   OH231014   2.023   2.559   2.963 -0.2189  0.9589  0.4881
 3200TIP3    H131015   2.069   2.642   2.973  1.2325  0.2558 -0.1070
 3200TIP3    H231016   1.996   2.557   2.871  0.5059  0.4121  0.2778
 3201TIP3   OH231017   1.807   5.392   4.657  0.2869 -0.2413  0.6881
 3201TIP3    H131018   1.753   5.324   4.616 -0.7523  0.9900 -0.0646
 3201TIP3    H231019   1.747   5.438   4.715  0.6616  0.7669  0.2993
 3202TIP3   OH231020   3.866   4.095   6.647 -0.4765  0.5253  0.5564
 3202TIP3    H131021   3.919   4.037   6.592 -2.9271 -1.2611 -0.1093
 3202TIP3    H231022   3.777   4.087   6.611 -1.1661  3.8681  1.1761
 3203TIP3   OH231023   0.672   4.776  14.533  0.2914 -0.3755  0.0567
 3203TIP3    H131024   0.648   4.816  14.449 -0.9953 -2.7493 -0.8156
 3203TIP3    H231025   0.732   4.839  14.573 -0.2787  1.5755 -1.9128
 3204TIP3   OH231026   5.250   3.331   3.282 -0.2483  0.4575 -0.1601
 3204TIP3    H131027   5.235   3.332   3.188  0.2968  1.4274 -0.2456
 3204TIP3    H231028   5.338   3.293   3.292 -0.7047 -0.6013  0.0381
 3205TIP3   OH231029   2.169   3.269   0.721  0.4520 -0.9943  0.1208
 3205TIP3    H131030   2.116   3.348   0.711  0.9688 -0.5119  0.9873
 3205TIP3    H231031   2.106   3.198   0.728 -0.0028 -0.9453 -2.5724
 3206TIP3   OH231032   2.084   3.354  11.146  0.0209 -0.0273  0.0300
 3206TIP3    H131033   2.146   3.426  11.155 -1.2516  0.8189  4.2886
 3206TIP3    H231034   1.998   3.396  11.138 -0.5664 -1.0724  0.5639
 3207TIP3   OH231035   6.180   4.492   5.441  0.3541  0.7754 -0.6002
 3207TIP3    H131036   6.105   4.551   5.448  0.6684  1.1497 -0.3297
 3207TIP3    H231037   6.142   4.405   5.447  0.0164  0.9736  0.4417
 3208TIP3   OH231038   5.369   2.930  13.169  0.0784 -0.2275  0.0617
 3208TIP3    H131039   5.427   2.995  13.209 -0.7525  1.2187 -0.9661
 3208TIP3    H231040   5.427   2.871  13.122  0.8114  0.4293  0.1225
 3209TIP3   OH231041   0.177   5.276  15.041  0.4230  0.7783 -0.6272
 3209TIP3    H131042   0.241   5.317  15.098  0.4711  0.8447 -0.7287
 3209TIP3    H231043   0.142   5.348  14.988  1.1953  0.5529 -1.4685
 3210TIP3   OH231044   6.155   0.373  15.537  0.3813 -0.0606  0.1541
 3210TIP3    H131045   6.136   0.429  15.461  3.3589 -1.6563 -1.9544
 3210TIP3    H231046   6.075   0.321  15.548 -0.7756  1.4373 -0.7064
 3211TIP3   OH231047   6.444   0.919   0.880 -0.4793  0.1069  0.7959
 3211TIP3    H131048   6.381   0.857   0.843 -0.3306 -0.4763  1.5061
 3211TIP3    H231049   6.401   1.004   0.871 -1.4209 -0.2909  1.3419
 3212TIP3   OH231050   5.068   3.683   0.208  0.5764  0.1912  0.2256
 3212TIP3    H131051   5.006   3.642   0.148  1.2171 -0.1328 -0.2317
 3212TIP3    H231052   5.014   3.734   0.268 -0.1588 -0.4403  0.1146
 3213TIP3   OH231053   0.081   0.789   5.677 -0.2423  0.7489  0.0425
 3213TIP3    H131054   0.082   0.782   5.772  0.0012  0.9528  0.0557
 3213TIP3    H231055   0.126   0.872   5.658 -0.5367  0.8472 -0.2366
 3214TIP3   OH231056   6.704   2.678  15.786 -0.1448 -0.0580  0.1876
 3214TIP3    H131057   6.702   2.650  15.877 -2.6941  1.8263  0.8365
 3214TIP3    H231058   6.612   2.688  15.761  0.4913  0.6457 -2.2212
 3215TIP3   OH231059   1.409   3.256   0.298  0.0432 -0.5190 -0.0782
 3215TIP3    H131060   1.431   3.349   0.297 -0.7458 -0.3145  0.6509
 3215TIP3    H231061   1.327   3.250   0.249 -0.1239 -0.7734  0.2301
 3216TIP3   OH231062   4.599   0.903  14.970  0.0145  0.4297  0.2176
 3216TIP3    H131063   4.633   0.863  14.890 -0.8336  0.2802 -0.0810
 3216TIP3    H231064   4.677   0.930  15.018  0.5350  0.6045 -0.6998
 3217TIP3   OH231065   6.446   0.208   3.053 -0.0461 -0.4649  0.0298
 3217TIP3    H131066   6.381   0.141   3.074  0.7904 -0.6219  2.3821
 3217TIP3    H231067   6.528   0.160   3.045  1.0849  0.3488  4.3518
 3218TIP3   OH231068   5.436   0.971  15.901 -1.0112 -0.3450 -0.4756
 3218TIP3    H131069   5.464   1.047  15.952 -0.6848  0.2739 -1.5523
 3218TIP3    H231070   5.348   0.951  15.933 -0.9855  0.3114  0.0096
 3219TIP3   OH231071   4.975   0.394  17.007  0.2414  0.8531  0.5016
 3219TIP3    H131072   5.030   0.440  17.069  1.7082  0.3567 -0.3817
 3219TIP3    H231073   5.008   0.421  16.921 -0.4395  0.0059 -0.0432
 3220TIP3   OH231074   4.429   4.158   6.739 -0.1345 -0.6806  0.1580
 3220TIP3    H131075   4.453   4.234   6.687  0.3157  0.4726  1.9381
 3220TIP3    H231076   4.508   4.138   6.790 -0.7676 -1.2882  0.9290
 3221TIP3   OH231077   4.314   4.434  15.373  0.3230 -0.0258 -0.2018
 3221TIP3    H131078   4.253   4.362  15.356  0.7013 -0.2410 -0.6833
 3221TIP3    H231079   4.285   4.471  15.456  0.3934 -1.0065  0.2683
 3222TIP3   OH231080   6.242   2.335  16.376 -0.1113  0.1323  0.1170
 3222TIP3    H131081   6.209   2.305  16.460  1.3586  1.6804  1.3153
 3222TIP3    H231082   6.174   2.394  16.343 -1.0816 -1.1440 -0.2405
 3223TIP3   OH231083   2.364   3.170  14.294 -0.4163 -0.0705 -0.1168
 3223TIP3    H131084   2.274   3.175  14.327 -0.0221  0.0866  1.0090
 3223TIP3    H231085   2.363   3.216  14.210 -1.0378  1.4839  0.6974
 3224TIP3   OH231086   5.967   0.163   1.715  0.2978 -0.2785 -0.1878
 3224TIP3    H131087   5.888   0.160   1.661 -1.0826  0.2362  1.6758
 3224TIP3    H231088   5.996   0.254   1.709 -0.2765 -0.0390  0.4452
 3225TIP3   OH231089   1.043   3.223   4.983 -0.0545  0.1561 -0.0650
 3225TIP3    H131090   1.040   3.292   4.917  1.2882 -0.3953 -0.7382
 3225TIP3    H231091   1.026   3.142   4.935 -0.0547 -0.1582  0.4491
 3226TIP3   OH231092   2.783   3.857  12.667  0.0712  0.6168  0.5600
 3226TIP3    H131093   2.719   3.839  12.597  0.8454  2.8251 -0.8109
 3226TIP3    H231094   2.754   3.940  12.704  1.0229  0.6210  1.3089
 3227TIP3   OH231095   0.707   0.071   3.887  0.2756 -0.3794 -0.3749
 3227TIP3    H131096   0.662   0.001   3.840 -0.0095 -1.7313  1.7854
 3227TIP3    H231097   0.759   0.026   3.954  2.7697  1.2875 -1.0259
 3228TIP3   OH231098   5.105   5.983  14.328 -0.3584 -0.3167  0.0522
 3228TIP3    H131099   5.151   6.065  14.346 -0.4277 -0.4544  0.8879
 3228TIP3    H231100   5.052   6.002  14.250 -0.9180  0.6528  0.6445
 3229TIP3   OH231101   5.834   3.039   5.844  0.1629  0.1184  0.2247
 3229TIP3    H131102   5.902   2.972   5.838  0.9926  0.9726 -4.4394
 3229TIP3    H231103   5.752   2.991   5.833  0.5305 -0.4443 -0.1214
 3230TIP3   OH231104   3.165   4.345   3.949 -0.3211  0.3061 -0.7462
 3230TIP3    H131105   3.193   4.253   3.956 -0.4435  0.2163 -1.3081
 3230TIP3    H231106   3.200   4.373   3.864 -2.0078  0.1484 -1.5523
 3231TIP3   OH231107   0.286   5.666  15.134 -0.3144  0.4541 -0.5768
 3231TIP3    H131108   0.301   5.692  15.043  1.2936  0.3090 -0.3737
 3231TIP3    H231109   0.357   5.707  15.183 -0.5837 -0.2935  0.4730
 3232TIP3   OH231110   5.436   1.304   0.966  0.9117  0.0441  0.1259
 3232TIP3    H131111   5.400   1.245   1.033  0.4447 -0.8891 -0.9132
 3232TIP3    H231112   5.364   1.365   0.948  1.5050  1.1942  1.4379
 3233TIP3   OH231113   2.391   1.880   2.841  0.4714  0.5852  0.6415
 3233TIP3    H131114   2.398   1.910   2.750  0.4376  1.0942  0.8018
 3233TIP3    H231115   2.305   1.838   2.846 -0.5604  2.6339  1.0158
 3234TIP3   OH231116   2.331   4.413  14.373  0.0398 -0.3554  0.4902
 3234TIP3    H131117   2.278   4.390  14.297 -1.0586  0.6167  0.9203
 3234TIP3    H231118   2.309   4.505  14.390  0.7035 -0.3872  1.6161
 3235TIP3   OH231119   3.646   1.470   3.260  0.3548  0.4174  0.6430
 3235TIP3    H131120   3.565   1.438   3.299  0.2308  0.7630  0.6709
 3235TIP3    H231121   3.658   1.558   3.297 -1.6182  2.3010 -2.7082
 3236TIP3   OH231122   6.242   0.552  11.887  0.1436  0.1076 -0.0658
 3236TIP3    H131123   6.300   0.596  11.949 -0.2114  0.7281 -0.1615
 3236TIP3    H231124   6.287   0.559  11.803 -0.1944  0.8541 -0.1950
 3237TIP3   OH231125   4.413   5.738   2.425 -0.4906  0.0662 -0.4860
 3237TIP3    H131126   4.469   5.776   2.492  1.1159 -1.0607 -1.1486
 3237TIP3    H231127   4.372   5.814   2.383  0.3323  0.9005  0.1669
 3238TIP3   OH231128   0.750   1.325   0.148 -0.1888  0.2078  0.0449
 3238TIP3    H131129   0.720   1.373   0.071 -1.5013 -1.9215 -0.8658
 3238TIP3    H231130   0.684   1.257   0.161  1.5166 -1.2911  1.2928
 3239TIP3   OH231131   0.317   1.080   1.557  0.3227 -0.4301 -0.3580
 3239TIP3    H131132   0.364   1.011   1.510  1.4666  0.5635 -0.7430
 3239TIP3    H231133   0.244   1.104   1.500  0.4605 -0.6951 -0.6450
 3240TIP3   OH231134   0.220   4.116   4.763 -0.2982 -0.2637 -0.6904
 3240TIP3    H131135   0.188   4.190   4.814  0.0303 -1.0993  0.8023
 3240TIP3    H231136   0.148   4.052   4.768  0.9380 -1.6111  1.5188
 3241TIP3   OH231137   5.817   6.274   4.920  0.1285  0.4012 -0.0633
 3241TIP3    H131138   5.809   6.179   4.910 -1.4735  0.5277 -0.3371
 3241TIP3    H231139   5.726   6.305   4.920  0.5706  1.8179  1.2109
 3242TIP3   OH231140   2.458   5.636  11.514  0.1023  0.2860 -0.0944
 3242TIP3    H131141   2.540   5.590  11.493  0.8579  0.9067  1.3536
 3242TIP3    H231142   2.428   5.597  11.596 -0.7331  0.4823 -0.2977
 3243TIP3   OH231143   3.482   1.480   5.313  0.5354 -0.2505  0.6623
 3243TIP3    H131144   3.448   1.564   5.282 -0.6311 -0.5824  0.9998
 3243TIP3    H231145   3.576   1.484   5.296 -0.0045 -0.5595 -3.3457
 3244TIP3   OH231146   2.272   5.160   1.574  0.3367 -0.4092 -0.1086
 3244TIP3    H131147   2.182   5.138   1.551 -0.6810  2.6691  0.4292
 3244TIP3    H231148   2.313   5.182   1.490  0.2559 -0.7446 -0.2376
 3245TIP3   OH231149   0.423   6.085  11.933  0.4023  0.5167 -0.3739
 3245TIP3    H131150   0.349   6.027  11.917  0.4813 -0.3017  1.8510
 3245TIP3    H231151   0.384   6.163  11.972  0.6660  0.1823  0.5831
 3246TIP3   OH231152   2.087   1.631   1.712 -0.1519  0.1132  0.2727
 3246TIP3    H131153   2.113   1.715   1.750 -1.4370  2.5429 -3.6174
 3246TIP3    H231154   1.994   1.624   1.730 -0.0157 -0.5826  0.7225
 3247TIP3   OH231155   5.842   1.427  12.805  0.0662  0.4474 -0.0647
 3247TIP3    H131156   5.899   1.350  12.810  0.1358  0.4131 -1.1800
 3247TIP3    H231157   5.760   1.399  12.846  0.5700  0.2372  0.8134
 3248TIP3   OH231158   1.199   0.087   3.495  0.4746  0.0297 -0.1447
 3248TIP3    H131159   1.251   0.008   3.512  2.3134  1.3935  0.8475
 3248TIP3    H231160   1.232   0.152   3.557 -1.7407  1.2931 -0.1833
 3249TIP3   OH231161   2.846   3.453  15.869  0.0649 -0.0448 -0.1464
 3249TIP3    H131162   2.804   3.448  15.783 -0.0408  0.4654 -0.1262
 3249TIP3    H231163   2.923   3.397  15.861  0.4081  0.4979 -0.7808
 3250TIP3   OH231164   2.312   5.042  16.557  0.1664 -0.7890  0.2665
 3250TIP3    H131165   2.339   5.133  16.553 -1.9699 -0.1535 -1.4886
 3250TIP3    H231166   2.388   4.993  16.527  0.3244  0.6966 -1.9336
 3251TIP3   OH231167   4.120   2.345  15.252 -0.5051  0.6835  0.4383
 3251TIP3    H131168   4.183   2.404  15.293 -1.8146  2.2651  0.2604
 3251TIP3    H231169   4.106   2.276  15.317  1.5522  0.1419  0.3802
 3252TIP3   OH231170   2.661   1.262   3.321 -0.2893  0.1637 -0.0023
 3252TIP3    H131171   2.584   1.206   3.325 -0.5110  0.4329  4.2830
 3252TIP3    H231172   2.627   1.351   3.332  0.5083  0.2350  2.5735
 3253TIP3   OH231173   3.333   4.187  11.361  0.0715 -0.1382  0.7610
 3253TIP3    H131174   3.266   4.136  11.316  0.1886 -0.0780  0.5152
 3253TIP3    H231175   3.393   4.122  11.397  1.3631 -0.1675 -1.2943
 3254TIP3   OH231176   1.955   1.302  12.123 -0.1081  0.1475 -0.1407
 3254TIP3    H131177   1.949   1.342  12.210  1.9344  1.7971 -0.6688
 3254TIP3    H231178   1.889   1.348  12.071 -0.0292  0.5111  0.0774
 3255TIP3   OH231179   4.901   4.990   3.797  0.0804  0.2171  0.4321
 3255TIP3    H131180   4.906   4.936   3.876  0.2680  0.5844  0.6744
 3255TIP3    H231181   4.856   4.934   3.733 -0.6466  0.1414  0.9908
 3256TIP3   OH231182   4.396   1.540   4.705  0.1272 -0.4571  0.5126
 3256TIP3    H131183   4.433   1.471   4.650  0.7497 -0.1205  0.4991
 3256TIP3    H231184   4.302   1.535   4.690  0.1274 -1.5523  0.8053
 3257TIP3   OH231185   3.644   3.461   0.054 -0.2212  0.3271 -0.5041
 3257TIP3    H131186   3.710   3.395   0.033 -0.5033 -0.3383  0.6183
 3257TIP3    H231187   3.684   3.545   0.030  1.8426  0.1581  1.9265
 3258TIP3   OH231188   4.757   6.727   2.611  0.1951 -0.8766  0.0948
 3258TIP3    H131189   4.766   6.656   2.676 -0.2657 -2.1539 -1.1803
 3258TIP3    H231190   4.847   6.757   2.597  0.3085 -0.6119  1.2795
 3259TIP3   OH231191   0.851   3.922   1.035 -0.0763 -0.2857 -0.2432
 3259TIP3    H131192   0.905   3.985   0.988 -2.0085  0.3690 -1.7204
 3259TIP3    H231193   0.912   3.852   1.060  1.8141  1.3767  0.0547
 3260TIP3   OH231194   4.715   4.074  10.414 -0.2430 -0.1461  0.1366
 3260TIP3    H131195   4.750   4.010  10.476 -0.8163 -0.6786 -0.0775
 3260TIP3    H231196   4.792   4.104  10.365  0.1723  0.0680  0.8996
 3261TIP3   OH231197   2.364   6.033   0.852 -0.0491  0.3272  0.2061
 3261TIP3    H131198   2.374   6.094   0.780  1.6160 -0.7087 -0.5040
 3261TIP3    H231199   2.352   6.088   0.929 -0.5171  1.4775 -0.6677
 3262TIP3   OH231200   3.599   5.587   6.482  0.1821  0.6720 -0.4567
 3262TIP3    H131201   3.545   5.553   6.410 -0.1635  0.7523 -0.2370
 3262TIP3    H231202   3.573   5.535   6.558 -0.7470  1.7569  0.0098
 3263TIP3   OH231203   5.487   3.472   3.055  0.2009 -0.4499  0.2624
 3263TIP3    H131204   5.489   3.447   2.962 -0.1608  1.9837 -0.4559
 3263TIP3    H231205   5.571   3.516   3.069 -0.7679  1.4143  0.3874
 3264TIP3   OH231206   5.453   2.810  14.039 -0.5977 -0.3341  0.8877
 3264TIP3    H131207   5.368   2.780  14.005 -1.0432 -0.4686  2.0778
 3264TIP3    H231208   5.510   2.733  14.032 -1.0389 -0.7329  1.5999
 3265TIP3   OH231209   4.378   6.102  12.429  0.2762 -0.9957 -0.2812
 3265TIP3    H131210   4.345   6.012  12.420  2.4511 -2.0712  1.3465
 3265TIP3    H231211   4.445   6.096  12.497  0.0833  2.0228  0.3144
 3266TIP3   OH231212   5.962   6.228  16.300  0.0763  0.1827  0.0523
 3266TIP3    H131213   5.930   6.192  16.383  0.5707 -0.5285 -0.0586
 3266TIP3    H231214   6.040   6.279  16.324 -1.5865  2.6996  0.4544
 3267TIP3   OH231215   1.829   5.599   3.647  0.1494 -0.4336 -0.0192
 3267TIP3    H131216   1.867   5.673   3.694  1.0311 -1.2930  0.6681
 3267TIP3    H231217   1.785   5.638   3.572  0.4016  0.8009  0.4528
 3268TIP3   OH231218   5.374   2.264   4.211  0.0996 -0.2434 -0.6716
 3268TIP3    H131219   5.376   2.314   4.129  1.1589  0.8677  0.0011
 3268TIP3    H231220   5.396   2.327   4.279  0.1089 -1.3335  0.3819
 3269TIP3   OH231221   1.578   1.399   2.303  0.3535 -0.9138 -0.0457
 3269TIP3    H131222   1.655   1.433   2.258  0.9667 -1.0012  0.9125
 3269TIP3    H231223   1.575   1.447   2.386 -1.9770  0.8257 -1.0085
 3270TIP3   OH231224   4.711   4.122   4.105  0.2638  0.3095 -0.4098
 3270TIP3    H131225   4.680   4.179   4.035  0.1461  0.9750  0.1739
 3270TIP3    H231226   4.640   4.123   4.170  1.6257  2.2191  1.1570
 3271TIP3   OH231227   5.578   6.740   1.262 -0.7917  0.1031  0.3806
 3271TIP3    H131228   5.604   6.756   1.171 -0.5605 -0.1677  0.3970
 3271TIP3    H231229   5.511   6.671   1.256 -0.9495  0.2530  0.3989
 3272TIP3   OH231230   5.289   6.221   5.148  0.2314  0.5917  0.2458
 3272TIP3    H131231   5.291   6.129   5.176 -1.3869  0.2737 -0.5748
 3272TIP3    H231232   5.263   6.217   5.056  0.4844  1.8688  0.1085
 3273TIP3   OH231233   0.718   1.195   1.201  0.8050 -0.0107 -0.2416
 3273TIP3    H131234   0.693   1.233   1.117  1.7037 -0.4929 -0.7540
 3273TIP3    H231235   0.735   1.102   1.181 -1.0613 -0.6434  0.9153
 3274TIP3   OH231236   1.342   5.779  11.585 -0.1000 -0.7065  0.1827
 3274TIP3    H131237   1.250   5.774  11.557 -0.4591 -0.1232  1.1914
 3274TIP3    H231238   1.386   5.828  11.516 -0.2889 -1.9534 -0.8743
 3275TIP3   OH231239   1.386   0.145  12.196 -0.4078  0.5043  0.2490
 3275TIP3    H131240   1.370   0.056  12.163  0.8239 -0.1080  1.2067
 3275TIP3    H231241   1.398   0.197  12.117 -3.6941  0.4274 -0.4595
 3276TIP3   OH231242   4.849   4.036   0.847 -0.0466  0.2150 -0.1627
 3276TIP3    H131243   4.814   4.009   0.762 -0.9503  0.4422  0.1280
 3276TIP3    H231244   4.891   3.957   0.882 -0.2803 -0.0701 -0.5157
 3277TIP3   OH231245   1.435   4.619  14.321  0.2370  0.0765  0.2974
 3277TIP3    H131246   1.421   4.524  14.322 -0.4086  0.1628  0.0251
 3277TIP3    H231247   1.518   4.631  14.367 -1.1454 -0.3716  3.1039
 3278TIP3   OH231248   3.746   3.303   1.127  0.8363 -0.8335  0.2830
 3278TIP3    H131249   3.821   3.245   1.114  1.8793  0.7692 -1.3063
 3278TIP3    H231250   3.730   3.300   1.221  2.3819 -1.8412  0.5558
 3279TIP3   OH231251   4.265   5.618   0.463 -0.8332  0.3257 -0.1111
 3279TIP3    H131252   4.272   5.695   0.519 -0.5470 -0.1399  0.4979
 3279TIP3    H231253   4.184   5.632   0.413 -0.3324  1.4249 -0.6301
 3280TIP3   OH231254   2.178   4.335   2.875 -0.0725 -0.5203  0.7429
 3280TIP3    H131255   2.144   4.424   2.865  0.6949 -0.2698  0.2476
 3280TIP3    H231256   2.257   4.334   2.822  0.2582 -1.3256  1.2348
 3281TIP3   OH231257   6.523   1.368   4.284 -0.2075  0.4967  0.0554
 3281TIP3    H131258   6.555   1.447   4.241  0.0159  1.7576  2.3422
 3281TIP3    H231259   6.549   1.379   4.376  0.9749 -2.8554  0.2579
 3282TIP3   OH231260   6.255   0.963  10.902  0.1373  0.0743  0.1204
 3282TIP3    H131261   6.333   1.017  10.898  1.4126 -1.6421  0.5908
 3282TIP3    H231262   6.286   0.874  10.881 -1.6676 -0.6649  0.3780
 3283TIP3   OH231263   3.212   0.454  15.315  0.2216  0.0839  0.1762
 3283TIP3    H131264   3.143   0.504  15.359  0.5924  1.5319 -0.8344
 3283TIP3    H231265   3.184   0.363  15.324 -0.3162  0.3933  2.3429
 3284TIP3   OH231266   3.604   6.194   3.356  0.0029 -0.7709  0.3598
 3284TIP3    H131267   3.670   6.253   3.392  1.8873 -2.4516 -0.1742
 3284TIP3    H231268   3.613   6.203   3.262 -0.8655 -0.6912  0.2781
 3285TIP3   OH231269   3.737   6.439  13.543 -0.2072 -0.1715 -0.0308
 3285TIP3    H131270   3.737   6.436  13.447  1.0139  0.9550 -0.0823
 3285TIP3    H231271   3.701   6.525  13.564  0.7249  0.0921  0.4955
 3286TIP3   OH231272   5.624   4.937   0.870 -0.4535 -0.7514  0.4645
 3286TIP3    H131273   5.607   4.991   0.792  0.1542  0.7318  1.3287
 3286TIP3    H231274   5.558   4.965   0.933  0.6722 -0.0658  1.3741
 3287TIP3   OH231275   4.729   5.756  12.095 -0.6046 -0.4067  0.7978
 3287TIP3    H131276   4.700   5.701  12.022  0.7264 -2.2480  1.5808
 3287TIP3    H231277   4.824   5.745  12.099 -0.5105  0.5053  2.1481
 3288TIP3   OH231278   3.092   5.190  16.229 -0.2024 -0.3985 -0.0529
 3288TIP3    H131279   3.155   5.251  16.192  2.0538 -1.9379  1.0272
 3288TIP3    H231280   3.073   5.225  16.316 -0.4770 -0.1880 -0.1960
 3289TIP3   OH231281   0.217   5.443  16.725  0.1236 -0.3606 -0.6249
 3289TIP3    H131282   0.131   5.471  16.756  0.7268  0.3052  0.5449
 3289TIP3    H231283   0.232   5.492  16.644 -0.1682  0.3099 -0.2775
 3290TIP3   OH231284   3.574   3.441   0.340  0.2678 -0.6015 -0.5683
 3290TIP3    H131285   3.539   3.371   0.284 -0.7069 -0.0843 -0.6283
 3290TIP3    H231286   3.634   3.490   0.284 -0.9610  0.1260 -1.2983
 3291TIP3   OH231287   5.310   3.030   4.551 -0.1884 -0.3497  0.3339
 3291TIP3    H131288   5.343   2.997   4.635 -0.9563 -0.2547  0.6830
 3291TIP3    H231289   5.291   2.951   4.500  0.8307 -0.4050  0.0162
 3292TIP3   OH231290   4.567   3.683  14.115  0.3791  0.2050 -0.3712
 3292TIP3    H131291   4.477   3.661  14.137 -0.1020  0.3240 -2.1453
 3292TIP3    H231292   4.619   3.642  14.185 -1.0050 -0.1461  0.4799
 3293TIP3   OH231293   0.486   2.279  13.722 -0.5104  0.5207  0.1801
 3293TIP3    H131294   0.533   2.325  13.791 -1.5610  0.2849  1.0801
 3293TIP3    H231295   0.453   2.200  13.764 -2.7512  1.2510 -0.0322
 3294TIP3   OH231296   1.750   3.273   5.753 -0.5763 -0.1035  0.0026
 3294TIP3    H131297   1.814   3.219   5.800 -0.3656  1.0808  1.1240
 3294TIP3    H231298   1.684   3.294   5.818 -2.2959 -1.5116 -1.2080
 3295TIP3   OH231299   2.184   2.246  14.334 -0.2626  0.2216  0.4842
 3295TIP3    H131300   2.117   2.224  14.399 -0.3209  0.4210  0.4944
 3295TIP3    H231301   2.200   2.165  14.286 -1.5717  0.5010 -0.4853
 3296TIP3   OH231302   1.858   3.578  12.315  0.2958 -0.3053  0.3679
 3296TIP3    H131303   1.868   3.624  12.398  0.1675  1.2682 -0.4538
 3296TIP3    H231304   1.947   3.548  12.294  1.3559  3.1686 -1.0070
 3297TIP3   OH231305   1.709   0.299   4.332  0.1281 -0.0756 -0.2167
 3297TIP3    H131306   1.755   0.354   4.395 -0.4456 -1.3817  1.4092
 3297TIP3    H231307   1.631   0.349   4.308  0.9016  0.9033 -0.7834
 3298TIP3   OH231308   6.764   2.491  15.595 -0.1803 -0.4555 -0.0197
 3298TIP3    H131309   6.857   2.469  15.593 -0.2429 -0.6943 -0.6101
 3298TIP3    H231310   6.756   2.556  15.665  0.4485 -0.3396 -0.0464
 3299TIP3   OH231311   1.519   1.354   1.476 -0.7211 -0.0772  0.0894
 3299TIP3    H131312   1.584   1.296   1.517 -0.3430 -0.8857 -1.5772
 3299TIP3    H231313   1.439   1.301   1.472 -1.4635  0.8257  1.8972
 3300TIP3   OH231314   1.017   4.112  11.024 -0.2746 -0.1852 -0.2607
 3300TIP3    H131315   0.973   4.028  11.007  0.9182 -0.7715 -0.6165
 3300TIP3    H231316   1.086   4.089  11.087  0.4926  0.3941 -0.8816
 3301TIP3   OH231317   5.436   2.553  14.521 -0.3739 -0.1088 -0.1048
 3301TIP3    H131318   5.374   2.489  14.557 -0.2760  0.7756  1.7732
 3301TIP3    H231319   5.439   2.623  14.588  4.3011 -1.1198  1.0526
 3302TIP3   OH231320   3.204   0.816   2.162  0.1210 -0.1802  0.2559
 3302TIP3    H131321   3.136   0.826   2.228 -0.2022 -2.2022  0.2843
 3302TIP3    H231322   3.281   0.858   2.200 -0.8016  1.2956  0.6249
 3303TIP3   OH231323   3.719   2.669   0.472  0.3784 -0.0954  0.1857
 3303TIP3    H131324   3.632   2.631   0.459 -0.0507  0.3631  1.4499
 3303TIP3    H231325   3.780   2.598   0.455 -0.2206 -0.3386 -1.0364
 3304TIP3   OH231326   5.040   4.889   2.339 -0.0434 -0.2948  0.4555
 3304TIP3    H131327   5.002   4.908   2.253 -1.8982 -0.4723  1.1961
 3304TIP3    H231328   5.116   4.947   2.345 -1.7048  2.0753 -0.0429
 3305TIP3   OH231329   5.255   6.080  14.961  0.0129  0.2731 -0.6604
 3305TIP3    H131330   5.287   6.157  15.008 -0.6240 -0.0684  0.3716
 3305TIP3    H231331   5.260   6.104  14.869  0.7330  1.1870 -0.3980
 3306TIP3   OH231332   5.109   4.358   2.127  0.2701 -0.2152 -0.1232
 3306TIP3    H131333   5.154   4.435   2.165 -0.8291 -0.7931  2.6104
 3306TIP3    H231334   5.043   4.395   2.069 -0.7552  1.0581  1.7262
 3307TIP3   OH231335   3.639   6.672  14.143 -0.2301 -0.0373  0.1819
 3307TIP3    H131336   3.637   6.593  14.088  0.5540  0.8137 -1.1148
 3307TIP3    H231337   3.679   6.643  14.224 -1.6463 -1.3887  0.4423
 3308TIP3   OH231338   0.174   2.800   0.658 -0.2121 -0.5054  0.1533
 3308TIP3    H131339   0.115   2.747   0.604 -1.9614  0.5178  1.0045
 3308TIP3    H231340   0.189   2.746   0.736 -3.2666  0.7429  1.7605
 3309TIP3   OH231341   6.164   3.967   0.493  0.0173  0.1511 -0.2273
 3309TIP3    H131342   6.170   3.948   0.399 -0.2392 -0.5017 -0.1115
 3309TIP3    H231343   6.155   4.063   0.497  0.5832  0.2403 -0.8410
 3310TIP3   OH231344   6.646   3.112   0.136  0.5185  0.4975  0.3245
 3310TIP3    H131345   6.713   3.059   0.179 -0.1080 -0.5706  0.0130
 3310TIP3    H231346   6.680   3.201   0.140  1.7802  0.0270  0.5130
 3311TIP3   OH231347   6.236   6.535   1.471 -0.2623 -0.3491  0.4422
 3311TIP3    H131348   6.203   6.570   1.554  0.0333  0.9046  0.0523
 3311TIP3    H231349   6.205   6.596   1.405  1.0006 -0.3369 -0.1763
 3312TIP3   OH231350   3.007   0.335   2.462  0.8129  0.5754  0.2532
 3312TIP3    H131351   3.080   0.277   2.482  1.2156  1.2682  0.8531
 3312TIP3    H231352   3.010   0.346   2.367  0.1726 -1.0795  0.0079
 3313TIP3   OH231353   1.393   2.386  15.573  0.6807  0.9620  0.1878
 3313TIP3    H131354   1.383   2.477  15.601  1.5661  0.7076  1.3984
 3313TIP3    H231355   1.476   2.358  15.613 -0.0017 -0.6424  0.5343
 3314TIP3   OH231356   2.818   0.467  12.030 -0.2810  0.0245  0.2456
 3314TIP3    H131357   2.826   0.530  11.958  1.8378 -0.7875 -0.2957
 3314TIP3    H231358   2.795   0.385  11.987 -0.2085 -0.1965  0.6313
 3315TIP3   OH231359   6.412   0.038   3.980  0.3354  0.0966 -0.3019
 3315TIP3    H131360   6.499  -0.001   3.989 -0.3022 -1.3186  0.0117
 3315TIP3    H231361   6.428   0.133   3.980  1.7991 -0.1197  0.4950
 3316TIP3   OH231362   5.940   0.982  16.521  0.2633 -0.0197  0.0434
 3316TIP3    H131363   5.942   0.909  16.459 -0.4821 -0.7897  0.9050
 3316TIP3    H231364   5.961   0.943  16.606 -1.0211  0.5799  0.6718
 3317TIP3   OH231365   1.210   1.155  12.216 -0.1398 -0.2159  0.6349
 3317TIP3    H131366   1.235   1.064  12.200  1.5351  0.1502  0.9715
 3317TIP3    H231367   1.268   1.206  12.159 -0.0970  0.6951  1.4676
 3318TIP3   OH231368   0.882   1.433   5.474  0.7076 -0.7634 -0.6707
 3318TIP3    H131369   0.941   1.462   5.544  0.8526 -0.8397 -0.7619
 3318TIP3    H231370   0.890   1.502   5.407 -2.5041  1.5611  1.0546
 3319TIP3   OH231371   5.181   3.852  11.504 -0.2884  0.2190 -0.3073
 3319TIP3    H131372   5.255   3.797  11.530  0.5713  0.9397 -1.1447
 3319TIP3    H231373   5.147   3.811  11.424  0.1473  0.7010 -0.7480
 3320TIP3   OH231374   4.521   4.757  11.988 -0.1665  0.9182 -0.2320
 3320TIP3    H131375   4.591   4.716  12.039 -0.3872  1.6832  0.7398
 3320TIP3    H231376   4.555   4.762  11.899  1.1259  1.4874  0.2666
 3321TIP3   OH231377   3.959   3.848   1.464  0.4186 -0.3867  0.0537
 3321TIP3    H131378   3.975   3.916   1.398  0.1202  1.3280  1.6811
 3321TIP3    H231379   3.863   3.838   1.465  0.1979  1.3471  1.8344
 3322TIP3   OH231380   3.524   0.006   5.099  0.0140 -0.2573  0.6028
 3322TIP3    H131381   3.573  -0.046   5.035 -2.0461 -0.5562 -0.8403
 3322TIP3    H231382   3.432  -0.008   5.076 -0.7050  2.4063  1.4707
 3323TIP3   OH231383   4.962   3.977   2.938 -0.3380 -0.1090  0.3558
 3323TIP3    H131384   4.918   3.966   2.853  1.4787  0.6218 -0.7430
 3323TIP3    H231385   4.917   4.052   2.978 -0.1095  0.6560 -0.7592
 3324TIP3   OH231386   3.356   3.339  16.864 -0.1863  0.2802  0.2344
 3324TIP3    H131387   3.369   3.246  16.845 -0.0802  0.5318 -0.9917
 3324TIP3    H231388   3.369   3.346  16.959 -1.2884 -1.1343  0.5253
 3325TIP3   OH231389   4.618   0.829  17.144  0.5988  0.4888 -0.3538
 3325TIP3    H131390   4.531   0.794  17.162  1.1455 -1.4342 -1.1802
 3325TIP3    H231391   4.663   0.758  17.098  1.9798  2.1358 -1.6648
 3326TIP3   OH231392   3.177   4.524   1.521  0.4947 -0.2393  0.5909
 3326TIP3    H131393   3.160   4.471   1.442  1.8886  0.7121 -0.3991
 3326TIP3    H231394   3.186   4.613   1.488  0.0315  0.3397  1.9936
 3327TIP3   OH231395   4.185   6.376   5.663 -0.2528  0.6428 -0.4403
 3327TIP3    H131396   4.167   6.351   5.754 -0.4849  0.8461 -0.4259
 3327TIP3    H231397   4.099   6.374   5.621 -0.1815  0.7936 -0.5934
 3328TIP3   OH231398   6.258   4.966   0.809  0.0164 -0.1085 -0.3999
 3328TIP3    H131399   6.323   4.947   0.741 -0.4782 -0.7759 -0.6906
 3328TIP3    H231400   6.279   4.905   0.880 -1.4613 -1.7094 -1.2642
 3329TIP3   OH231401   2.393   4.922  13.145  0.7756 -0.4490  0.4434
 3329TIP3    H131402   2.465   4.949  13.202  1.8528 -1.8506 -0.1939
 3329TIP3    H231403   2.420   4.837  13.110 -1.9267 -1.8922  1.5056
 3330TIP3   OH231404   2.163   0.827   5.111 -0.0942 -0.0925  0.4328
 3330TIP3    H131405   2.209   0.887   5.170 -0.0861 -2.4247  2.9536
 3330TIP3    H231406   2.074   0.821   5.147 -0.2072 -1.2769  0.0048
 3331TIP3   OH231407   2.422   4.458  11.306  0.6321  0.0898 -0.2133
 3331TIP3    H131408   2.468   4.442  11.223  1.1871  0.2291  0.0627
 3331TIP3    H231409   2.417   4.553  11.313  1.1511  0.0905  0.2130
 3332TIP3   OH231410   2.422   4.347   2.129  0.0274 -0.2757  0.3316
 3332TIP3    H131411   2.491   4.282   2.119  0.1817  0.0622 -0.8866
 3332TIP3    H231412   2.466   4.431   2.120 -0.5133 -0.0541 -0.3133
 3333TIP3   OH231413   3.742   3.061  16.275  0.4325  0.0431  0.3385
 3333TIP3    H131414   3.819   3.110  16.303 -0.1471  0.5178  1.1442
 3333TIP3    H231415   3.758   3.042  16.183  1.2755  0.5780  0.3596
 3334TIP3   OH231416   5.341   1.711   3.128  0.0111  0.5834  0.2152
 3334TIP3    H131417   5.405   1.745   3.191 -0.7460 -0.9997  1.9451
 3334TIP3    H231418   5.383   1.635   3.090 -0.4390  0.1333  0.6060
 3335TIP3   OH231419   6.144   1.180   3.313  0.2056 -0.1121  0.4995
 3335TIP3    H131420   6.184   1.189   3.226 -2.1132 -0.8510 -0.7365
 3335TIP3    H231421   6.183   1.251   3.364  1.3858  0.5749 -1.2358
 3336TIP3   OH231422   2.917   6.592  12.698 -0.0522  0.2237  0.0416
 3336TIP3    H131423   2.863   6.631  12.629 -2.1523  0.6303  1.8263
 3336TIP3    H231424   2.887   6.633  12.778  0.4328 -2.1715  1.5489
 3337TIP3   OH231425   0.207   0.958  16.621 -0.0834  0.6310  0.2227
 3337TIP3    H131426   0.147   0.975  16.694  0.0520  0.5663  0.3501
 3337TIP3    H231427   0.155   0.909  16.558 -0.9689  2.8169 -0.8544
 3338TIP3   OH231428   4.616   1.514  12.510 -0.2970  0.0082  0.3205
 3338TIP3    H131429   4.529   1.479  12.492 -0.8961  0.4303  2.1884
 3338TIP3    H231430   4.675   1.461  12.456 -1.3120 -2.8772  1.8762
 3339TIP3   OH231431   1.109   1.553  13.824  0.0918 -0.2128 -0.0462
 3339TIP3    H131432   1.163   1.626  13.854 -0.7360  1.4162 -2.2624
 3339TIP3    H231433   1.034   1.552  13.884 -0.0407  0.9953 -0.1607
 3340TIP3   OH231434   5.751   4.995  12.744 -0.3702  0.5556  0.2855
 3340TIP3    H131435   5.666   5.013  12.783 -0.2735 -0.8425  1.2295
 3340TIP3    H231436   5.737   4.919  12.688  0.9112 -2.4378  3.6057
 3341TIP3   OH231437   4.501   0.715  13.405 -0.2292  0.4769  0.0543
 3341TIP3    H131438   4.419   0.756  13.434  0.9490  1.6284  1.8794
 3341TIP3    H231439   4.547   0.692  13.485  0.5993 -1.5686 -0.9375
 3342TIP3   OH231440   3.948   6.217  10.663 -0.6239  0.3966  0.6565
 3342TIP3    H131441   3.992   6.270  10.729  0.0972 -0.1922  0.6542
 3342TIP3    H231442   4.018   6.179  10.611 -1.1525 -0.0027  0.2159
 3343TIP3   OH231443   0.151   4.339   2.257  0.4851 -0.1762 -0.1508
 3343TIP3    H131444   0.155   4.315   2.349 -0.9756  0.0729  0.0074
 3343TIP3    H231445   0.228   4.394   2.243  0.5801  0.0031  0.9866
 3344TIP3   OH231446   4.764   5.457  15.238 -0.2359 -0.3966 -0.7565
 3344TIP3    H131447   4.720   5.533  15.199  1.0126 -0.0046 -1.4791
 3344TIP3    H231448   4.745   5.463  15.331 -2.1718 -0.5822 -1.0958
 3345TIP3   OH231449   4.637   5.380  16.495  0.2258 -0.1535  0.2946
 3345TIP3    H131450   4.595   5.318  16.554 -0.3802 -0.3529 -0.3454
 3345TIP3    H231451   4.592   5.463  16.512  0.9277  0.0957  1.0336
 3346TIP3   OH231452   2.766   6.313   4.234 -0.1223  0.4773  0.1013
 3346TIP3    H131453   2.701   6.357   4.180 -1.6082 -1.9718 -0.2672
 3346TIP3    H231454   2.744   6.337   4.324 -0.8842  0.5133 -0.0873
 3347TIP3   OH231455   4.000   0.338   2.011 -0.2309 -0.0898 -0.0096
 3347TIP3    H131456   3.912   0.352   2.046  0.0244 -0.6715  0.9154
 3347TIP3    H231457   4.056   0.392   2.067 -0.0159  0.4230 -0.7121
 3348TIP3   OH231458   4.023   2.773   0.196  0.3170 -0.6291  0.0344
 3348TIP3    H131459   4.099   2.828   0.178 -0.5660  1.5133  2.2579
 3348TIP3    H231460   3.948   2.832   0.188 -0.9077 -2.0916  0.2538
 3349TIP3   OH231461   4.325   2.179   4.013 -0.0243  0.4407  0.7336
 3349TIP3    H131462   4.364   2.257   3.974  0.5001 -0.0057  0.3536
 3349TIP3    H231463   4.274   2.139   3.942 -2.2016  1.6493  1.5201
 3350TIP3   OH231464   5.764   1.304  11.116  0.1187  0.2991  0.0516
 3350TIP3    H131465   5.808   1.319  11.200  0.1786  3.1524 -0.3831
 3350TIP3    H231466   5.833   1.278  11.056 -0.1471 -3.4230  1.1221
 3351TIP3   OH231467   2.973   4.793   1.066  0.1951  0.0464  0.0783
 3351TIP3    H131468   3.054   4.766   1.109  1.0163  1.0898 -0.7574
 3351TIP3    H231469   2.945   4.715   1.018  1.2188 -0.0645 -0.3727
 3352TIP3   OH231470   4.947   3.919  10.950 -0.0576 -0.2839  0.1419
 3352TIP3    H131471   4.872   3.969  10.917 -2.0860 -1.6103  2.4288
 3352TIP3    H231472   4.988   3.977  11.014  0.8060  0.3589 -0.9541
 3353TIP3   OH231473   4.758   0.247  13.600  0.1236 -0.4144 -0.4329
 3353TIP3    H131474   4.744   0.305  13.525  0.4386 -0.9898 -0.9469
 3353TIP3    H231475   4.849   0.218  13.591 -0.4669 -2.2059 -1.0752
 3354TIP3   OH231476   0.122   3.330  11.871  0.3596 -0.9278  0.2895
 3354TIP3    H131477   0.040   3.337  11.918  0.3005  2.7004 -0.0539
 3354TIP3    H231478   0.108   3.260  11.807 -2.1797 -0.9245  0.7671
 3355TIP3   OH231479   2.323   3.001   5.543 -0.4148 -0.3522 -0.0973
 3355TIP3    H131480   2.291   2.958   5.623 -1.8438  1.4614  0.3895
 3355TIP3    H231481   2.246   3.046   5.508  0.6838  0.6809 -1.2901
 3356TIP3   OH231482   3.433   5.165   0.854 -0.2259  0.0487 -0.9338
 3356TIP3    H131483   3.384   5.224   0.911  0.5098 -0.8716  0.7204
 3356TIP3    H231484   3.510   5.216   0.828  0.4942 -0.1840  0.6200
 3357TIP3   OH231485   4.801   3.541  13.737 -0.3979  0.6351 -0.3691
 3357TIP3    H131486   4.820   3.600  13.810 -2.2966  0.2946  0.4691
 3357TIP3    H231487   4.810   3.454  13.774 -0.5678  0.4554 -0.7488
 3358TIP3   OH231488   2.018   2.005   4.583  0.0793 -0.0887  0.1983
 3358TIP3    H131489   2.110   2.003   4.610 -0.3216 -0.8285  1.6442
 3358TIP3    H231490   1.997   1.915   4.561 -0.0273  0.2595 -1.2051
 3359TIP3   OH231491   3.150   0.521   4.130 -0.2783  0.5800  0.0022
 3359TIP3    H131492   3.074   0.463   4.136  0.2587  0.0602  3.7502
 3359TIP3    H231493   3.225   0.463   4.128  0.1904  1.0412  2.0624
 3360TIP3   OH231494   1.006   1.792  15.135 -1.0089  0.1142 -0.2501
 3360TIP3    H131495   0.988   1.751  15.220 -0.7279  1.4319  0.4828
 3360TIP3    H231496   0.950   1.746  15.074  0.8148 -2.7961  0.0852
 3361TIP3   OH231497   6.534   4.737  15.596  0.0190  0.5987 -0.1035
 3361TIP3    H131498   6.570   4.786  15.522 -1.4262  0.5334 -0.8954
 3361TIP3    H231499   6.580   4.653  15.595  0.8567  1.0495 -0.1764
 3362TIP3   OH231500   3.000   4.040  13.084 -0.4965 -0.1997 -0.4961
 3362TIP3    H131501   3.032   4.121  13.043  0.8294 -0.4930 -0.0622
 3362TIP3    H231502   2.980   4.065  13.174  0.9455 -0.5721 -0.0493
 3363TIP3   OH231503   0.814   1.406  16.544  0.0673 -0.0511 -0.2680
 3363TIP3    H131504   0.861   1.420  16.462  0.3423  1.7691  0.1814
 3363TIP3    H231505   0.733   1.456  16.535 -1.0580 -1.7607 -0.3395
 3364TIP3   OH231506   1.349   5.085   4.421  0.0981  0.7263 -0.3035
 3364TIP3    H131507   1.392   5.000   4.428  0.0730  0.7198 -0.2322
 3364TIP3    H231508   1.383   5.122   4.339 -0.7538  0.1581 -0.9209
 3365TIP3   OH231509   2.354   6.775   1.286  0.1088 -0.0385 -0.0548
 3365TIP3    H131510   2.340   6.715   1.213 -0.5775  0.3917 -0.2856
 3365TIP3    H231511   2.448   6.770   1.303  0.3592  0.1452 -1.2404
 3366TIP3   OH231512   5.611   2.167  16.661  0.4698 -0.1130  0.4662
 3366TIP3    H131513   5.658   2.192  16.582  0.2888 -0.3574  0.2781
 3366TIP3    H231514   5.618   2.243  16.719 -0.0592  0.3660 -0.0905
 3367TIP3   OH231515   5.861   3.930   0.479 -0.3608  0.7498 -0.0915
 3367TIP3    H131516   5.885   3.957   0.390  1.4316  0.4333  0.2628
 3367TIP3    H231517   5.921   3.978   0.535 -0.9510  0.3316  0.9184
 3368TIP3   OH231518   4.375   2.937  11.495  0.1039  0.2778 -0.5909
 3368TIP3    H131519   4.414   2.908  11.412  0.8432 -0.6211  0.0598
 3368TIP3    H231520   4.285   2.903  11.492  0.3740 -0.4363 -0.6725
 3369TIP3   OH231521   3.890   0.324  14.473  0.2063 -0.6741 -0.3214
 3369TIP3    H131522   3.949   0.253  14.499 -1.1978 -1.3900  1.0714
 3369TIP3    H231523   3.948   0.399  14.461  1.6702 -1.9060 -1.3678
 3370TIP3   OH231524   4.232   2.362  14.843 -0.1137 -0.0956 -0.2352
 3370TIP3    H131525   4.253   2.269  14.852  1.7694  0.1977 -1.1764
 3370TIP3    H231526   4.174   2.380  14.917  1.6859 -1.4101  1.6111
 3371TIP3   OH231527   6.115   6.042   2.875 -0.1872  0.3716 -0.2484
 3371TIP3    H131528   6.056   6.074   2.944 -1.9376 -1.0305 -1.0227
 3371TIP3    H231529   6.151   6.122   2.836 -0.5712  1.2321  1.0909
 3372TIP3   OH231530   2.157   3.605   2.382  0.0130 -0.0149 -0.2981
 3372TIP3    H131531   2.125   3.559   2.460 -1.0626  1.6472  0.2867
 3372TIP3    H231532   2.250   3.583   2.379 -0.2524 -1.4439  0.4851
 3373TIP3   OH231533   2.687   4.387   5.906 -0.2606 -0.0546 -0.1805
 3373TIP3    H131534   2.633   4.436   5.969 -1.4313 -1.9751  0.3849
 3373TIP3    H231535   2.630   4.316   5.876  1.3301 -0.9942 -1.0834
 3374TIP3   OH231536   5.825   0.748   6.009 -0.6673 -0.8495  0.7487
 3374TIP3    H131537   5.902   0.714   6.054 -0.9398 -1.2773  0.9043
 3374TIP3    H231538   5.757   0.682   6.026 -0.3699 -1.8944 -1.6472
 3375TIP3   OH231539   1.336   6.179  11.111  0.0099  0.0266 -0.0847
 3375TIP3    H131540   1.353   6.262  11.156 -0.7460  0.5592 -0.7663
 3375TIP3    H231541   1.259   6.196  11.057  0.6439 -0.7320 -1.2544
 3376TIP3   OH231542   3.940   1.601  13.159 -0.1128 -0.3378  0.7262
 3376TIP3    H131543   3.860   1.550  13.156 -0.3584  0.0765  0.0200
 3376TIP3    H231544   3.920   1.680  13.108  0.5757  0.0026  0.9707
 3377TIP3   OH231545   3.980   3.380   2.207  0.2117  0.5208  0.2129
 3377TIP3    H131546   4.017   3.412   2.124 -1.0534 -0.6204 -0.8437
 3377TIP3    H231547   4.051   3.330   2.247  1.7305  3.2104  1.1754
 3378TIP3   OH231548   6.243   4.789  15.486 -0.1578  0.3693 -0.3414
 3378TIP3    H131549   6.305   4.768  15.416 -0.8828 -0.6472 -0.6854
 3378TIP3    H231550   6.273   4.874  15.519  0.8860  0.3129 -1.0976
 3379TIP3   OH231551   5.539   2.166   5.796 -0.1673  0.3760  0.1341
 3379TIP3    H131552   5.568   2.106   5.728 -1.2360 -0.3020  0.2540
 3379TIP3    H231553   5.620   2.198   5.836  0.4975  1.0874 -1.6919
 3380TIP3   OH231554   4.477   5.858  14.282  0.0207 -0.0413 -0.0728
 3380TIP3    H131555   4.440   5.824  14.363 -0.1231 -1.5115 -0.7267
 3380TIP3    H231556   4.564   5.891  14.307  0.3909 -1.3978  0.4995
 3381TIP3   OH231557   3.510   3.860   0.316 -0.8015  0.4013  0.1635
 3381TIP3    H131558   3.481   3.936   0.365  0.8943  2.0804 -1.2776
 3381TIP3    H231559   3.554   3.896   0.239 -0.6003 -2.0557 -0.9837
 3382TIP3   OH231560   5.312   5.217  14.454 -0.2137 -0.7081 -0.0871
 3382TIP3    H131561   5.338   5.130  14.427 -1.5148 -1.1009 -0.1689
 3382TIP3    H231562   5.252   5.202  14.528  1.2951  0.2195  1.3957
 3383TIP3   OH231563   1.595   6.071  12.879 -0.3331  0.3260 -0.1907
 3383TIP3    H131564   1.618   6.059  12.787  0.3362  1.9993 -0.2784
 3383TIP3    H231565   1.518   6.015  12.892  0.7266 -1.4652 -1.2195
 3384TIP3   OH231566   6.709   5.607  16.165 -0.0287 -0.4165  0.1271
 3384TIP3    H131567   6.742   5.525  16.202  0.7555  0.1644  0.7424
 3384TIP3    H231568   6.777   5.672  16.184 -0.5823  0.3601 -0.4545
 3385TIP3   OH231569   2.178   0.260   3.378  0.0913 -0.1465  0.1002
 3385TIP3    H131570   2.254   0.272   3.321  0.2952  0.1119  0.4268
 3385TIP3    H231571   2.163   0.346   3.416 -0.4779 -0.1571 -0.1029
 3386TIP3   OH231572   2.548   4.362  12.241 -0.1192 -0.7368  0.5083
 3386TIP3    H131573   2.503   4.328  12.164  0.7918 -1.0336  0.0990
 3386TIP3    H231574   2.481   4.361  12.310 -1.1856  0.3092 -0.4512
 3387TIP3   OH231575   0.393   3.272   3.992 -0.1895  0.1323 -0.0133
 3387TIP3    H131576   0.369   3.305   3.905  3.4835  0.8414 -0.9388
 3387TIP3    H231577   0.401   3.351   4.045  0.7416  0.0196  0.0279
 3388TIP3   OH231578   3.151   1.317   1.325 -0.0642  0.1273  0.0255
 3388TIP3    H131579   3.231   1.295   1.372  1.7432  1.0803 -2.4167
 3388TIP3    H231580   3.154   1.412   1.313 -0.1871 -0.0909 -2.3081
 3389TIP3   OH231581   1.806   4.996  10.013  0.0131  0.7130 -0.2748
 3389TIP3    H131582   1.893   4.962  10.033 -0.9189 -1.5036  0.3803
 3389TIP3    H231583   1.774   5.029  10.097 -0.3721  0.0152 -0.1396
 3390TIP3   OH231584   3.814   5.027   0.980 -0.1387  0.0309 -0.4394
 3390TIP3    H131585   3.806   5.048   0.887  3.2634  0.3187 -0.7943
 3390TIP3    H231586   3.729   4.990   1.004 -0.9964 -0.4264 -3.7367
 3391TIP3   OH231587   0.665   5.427  11.671 -0.2522  0.1119 -0.3528
 3391TIP3    H131588   0.670   5.344  11.624  1.7822 -0.6620  1.0787
 3391TIP3    H231589   0.690   5.406  11.761  0.5840  2.2931  0.0096
 3392TIP3   OH231590   3.471   1.214  15.525  0.2422  0.1038 -0.0324
 3392TIP3    H131591   3.519   1.212  15.608  1.3304  0.3943 -0.6338
 3392TIP3    H231592   3.487   1.129  15.485  0.1908  0.1724 -0.2027
 3393TIP3   OH231593   0.364   0.833  17.131 -0.1913  0.0184 -0.1273
 3393TIP3    H131594   0.365   0.767  17.201 -1.4015 -0.2358 -0.3210
 3393TIP3    H231595   0.438   0.810  17.075  0.0181 -0.5482  0.3725
 3394TIP3   OH231596   0.562   2.751  16.510 -0.1560 -0.2657  0.0427
 3394TIP3    H131597   0.539   2.823  16.451  0.1151 -0.5040 -0.3540
 3394TIP3    H231598   0.478   2.712  16.534 -0.2268 -0.5568 -0.6699
 3395TIP3   OH231599   1.558   4.065  14.584  0.0800  0.3984  0.4057
 3395TIP3    H131600   1.573   4.159  14.590  0.5704  0.4277 -0.9631
 3395TIP3    H231601   1.469   4.053  14.617  0.1394  1.2952  0.9182
 3396TIP3   OH231602   1.360   6.397  14.823  0.2040 -0.0405  0.1140
 3396TIP3    H131603   1.426   6.362  14.763  0.0763 -1.3199  0.7009
 3396TIP3    H231604   1.388   6.488  14.837  0.8854 -0.0607 -0.9584
 3397TIP3   OH231605   0.154   3.908  13.189 -0.7372  0.4012 -0.0864
 3397TIP3    H131606   0.210   3.953  13.252 -0.4697  1.3247 -0.9418
 3397TIP3    H231607   0.065   3.931  13.216 -0.6657 -0.0235  0.5270
 3398TIP3   OH231608   4.320   1.671  13.487 -0.2636  0.5084  0.1138
 3398TIP3    H131609   4.378   1.743  13.510 -1.6556  1.4958  0.7014
 3398TIP3    H231610   4.251   1.674  13.554 -1.0240 -0.5821 -0.5864
 3399TIP3   OH231611   6.593   3.595   0.623  0.1917 -0.0813 -0.2434
 3399TIP3    H131612   6.522   3.655   0.603  0.2415  0.5222  1.2076
 3399TIP3    H231613   6.551   3.510   0.638  0.1279 -0.4634 -2.3626
 3400TIP3   OH231614   4.008   4.760  13.514  0.2069 -0.1967  0.7534
 3400TIP3    H131615   3.967   4.690  13.566  2.3353 -0.1149  2.7082
 3400TIP3    H231616   4.029   4.718  13.431 -0.9694 -1.0904  0.8645
 3401TIP3   OH231617   4.293   3.109  12.428 -0.4215  0.0812 -0.4983
 3401TIP3    H131618   4.331   3.051  12.495 -1.4828 -0.7111 -0.5649
 3401TIP3    H231619   4.369   3.148  12.384  0.3223 -1.2863 -0.4686
 3402TIP3   OH231620   3.151   6.791  11.823  0.1355  0.3787 -0.6242
 3402TIP3    H131621   3.218   6.805  11.756 -0.0900 -0.2538 -1.0009
 3402TIP3    H231622   3.200   6.771  11.902  0.4041  0.1758 -0.8375
 3403TIP3   OH231623   4.228   4.549   4.858  0.2376 -0.0267 -0.1056
 3403TIP3    H131624   4.266   4.633   4.882  0.6339 -0.8837  2.5915
 3403TIP3    H231625   4.147   4.571   4.813  0.3033  1.7876  0.5941
 3404TIP3   OH231626   6.560   3.678   3.031 -0.7319 -0.1676  0.4059
 3404TIP3    H131627   6.558   3.583   3.016 -1.1105 -0.0892 -0.0958
 3404TIP3    H231628   6.624   3.711   2.968 -1.6188  0.0568 -0.4125
 3405TIP3   OH231629   4.116   4.162   5.331 -0.0202 -0.4861 -0.6049
 3405TIP3    H131630   4.163   4.088   5.293  0.3371 -0.0099 -1.1055
 3405TIP3    H231631   4.057   4.122   5.395  0.0919 -1.2096 -0.9389
 3406TIP3   OH231632   6.381   3.044   2.805 -0.8540 -0.1207 -0.2142
 3406TIP3    H131633   6.287   3.041   2.788 -1.1231 -2.0736  1.3371
 3406TIP3    H231634   6.388   3.047   2.900  0.6637 -0.3151 -0.2945
 3407TIP3   OH231635   0.224   2.800  16.314  0.1563  0.2300  0.0356
 3407TIP3    H131636   0.139   2.842  16.315 -0.0727 -0.2385  0.4391
 3407TIP3    H231637   0.225   2.743  16.391  1.4411  1.4122  0.9615
 3408TIP3   OH231638   5.616   6.482   3.630 -0.0123 -0.6147  0.1484
 3408TIP3    H131639   5.551   6.453   3.565  0.8130 -1.4989 -0.3043
 3408TIP3    H231640   5.615   6.414   3.697 -2.2231  1.1966  2.1240
 3409TIP3   OH231641   2.987   3.214  15.935  0.3379  0.3123  0.2947
 3409TIP3    H131642   3.043   3.274  15.984  0.1324  0.3635  0.4671
 3409TIP3    H231643   3.038   3.133  15.930  1.4749  1.0866 -1.6561
 3410TIP3   OH231644   4.756   1.723  13.370 -0.3712 -0.4836  0.0715
 3410TIP3    H131645   4.749   1.640  13.416  1.4193  0.1792  1.6529
 3410TIP3    H231646   4.849   1.736  13.355 -0.3671  2.1179  1.6760
 3411TIP3   OH231647   3.177   6.295  16.889 -0.1592  0.3734 -0.2270
 3411TIP3    H131648   3.109   6.229  16.877 -1.4381  1.0915  2.2578
 3411TIP3    H231649   3.258   6.244  16.897 -0.6398 -0.6335 -1.3775
 3412TIP3   OH231650   2.199   1.747   5.426  0.2550 -0.2370 -0.3404
 3412TIP3    H131651   2.219   1.694   5.349  3.2474 -0.5226  0.5141
 3412TIP3    H231652   2.283   1.785   5.452 -1.2563  2.7069  0.7654
 3413TIP3   OH231653   1.368   1.975   5.860 -0.1144  1.3623  0.2043
 3413TIP3    H131654   1.424   1.898   5.868 -0.8532  0.7363 -0.4387
 3413TIP3    H231655   1.379   2.021   5.943  1.7720  1.5760 -0.1067
 3414TIP3   OH231656   4.921   0.317  14.553 -0.3293  0.1020  0.1915
 3414TIP3    H131657   4.903   0.411  14.562  0.2389  0.1631  0.7825
 3414TIP3    H231658   4.836   0.278  14.537 -0.3863  0.8965 -1.6449
 3415TIP3   OH231659   4.176   4.756  12.247 -0.1005  0.3119  0.0160
 3415TIP3    H131660   4.096   4.805  12.228  0.8992  1.7194 -0.7134
 3415TIP3    H231661   4.213   4.800  12.324  0.4303  0.2436 -0.1975
 3416TIP3   OH231662   5.860   5.201  12.150 -0.4145  0.3295 -0.0911
 3416TIP3    H131663   5.898   5.284  12.120  0.0657  0.6655  1.3855
 3416TIP3    H231664   5.771   5.201  12.115 -0.1728  1.1137 -0.7349
 3417TIP3   OH231665   3.318   4.651  16.067 -0.0998  0.2868 -0.8236
 3417TIP3    H131666   3.271   4.629  15.987 -1.0069  1.5398 -0.6685
 3417TIP3    H231667   3.405   4.678  16.038  0.6494 -2.2098 -1.1044
 3418TIP3   OH231668   4.824   3.394   2.843  0.7044 -0.0696 -0.3032
 3418TIP3    H131669   4.730   3.407   2.855  0.4594 -0.7100 -1.3862
 3418TIP3    H231670   4.844   3.317   2.897  0.9193  0.9109  1.0770
 3419TIP3   OH231671   2.297   6.256  16.909  0.4770  0.0697  0.2818
 3419TIP3    H131672   2.337   6.170  16.916  2.9315  0.9906 -1.2354
 3419TIP3    H231673   2.260   6.258  16.821  1.5796  0.9736 -0.1824
 3420TIP3   OH231674   2.191   6.136  14.579 -0.1127 -0.3615  0.0222
 3420TIP3    H131675   2.263   6.197  14.596 -0.2739  0.4268 -1.8713
 3420TIP3    H231676   2.132   6.147  14.654  0.4637  0.9150  0.3099
 3421TIP3   OH231677   3.246   3.421   4.768 -0.4817  0.1193  0.5130
 3421TIP3    H131678   3.199   3.341   4.791 -0.5771 -0.2833 -1.0072
 3421TIP3    H231679   3.339   3.398   4.776 -0.5118  0.0963  0.8162
 3422TIP3   OH231680   6.759   3.116   3.574  0.5598  0.4955 -0.2516
 3422TIP3    H131681   6.668   3.137   3.557  0.0411 -0.9897  0.5458
 3422TIP3    H231682   6.757   3.053   3.646  2.1945  0.2449 -0.3697
 3423TIP3   OH231683   1.221   0.866  11.868  1.0833  0.3718 -0.1359
 3423TIP3    H131684   1.155   0.923  11.827 -0.4024 -0.5490  0.8501
 3423TIP3    H231685   1.188   0.777  11.854  3.2343 -0.2795 -1.4279
 3424TIP3   OH231686   6.670   2.660  11.595 -0.0271  0.2437  0.3928
 3424TIP3    H131687   6.763   2.655  11.617  0.0794  1.9703  0.4053
 3424TIP3    H231688   6.626   2.675  11.679 -0.2642  0.1334  0.2894
 3425TIP3   OH231689   1.778   4.881  16.598  0.0066 -0.1574 -0.2558
 3425TIP3    H131690   1.860   4.915  16.634  1.2199  0.2535 -3.1322
 3425TIP3    H231691   1.730   4.959  16.570 -0.0684 -0.5062 -1.1258
 3426TIP3   OH231692   0.274   3.044  11.442  0.2690 -0.6211 -0.0573
 3426TIP3    H131693   0.184   3.015  11.427 -0.1350  0.1784  0.7191
 3426TIP3    H231694   0.313   3.049  11.355 -0.9992  0.7455 -0.5857
 3427TIP3   OH231695   3.334   0.013  13.553  0.3536 -0.5562  0.2784
 3427TIP3    H131696   3.244  -0.016  13.569  0.3886 -0.6445  0.3194
 3427TIP3    H231697   3.359   0.062  13.631  0.3716 -0.6091  0.3060
 3428TIP3   OH231698   2.106   6.775   2.368  0.0113  0.4265 -0.0768
 3428TIP3    H131699   2.133   6.722   2.443 -0.4885 -0.1013 -0.2659
 3428TIP3    H231700   2.054   6.846   2.405  0.4974  0.6735  0.1537
 3429TIP3   OH231701   0.569   6.276  15.499  0.1812  0.2654  0.0599
 3429TIP3    H131702   0.503   6.214  15.466 -0.0853  0.3311  0.4610
 3429TIP3    H231703   0.649   6.224  15.505 -0.7605 -1.0821  3.6533
 3430TIP3   OH231704   5.239   2.607   1.082 -0.1670 -0.2541  0.3883
 3430TIP3    H131705   5.262   2.540   1.018  1.7252  1.2959 -0.6334
 3430TIP3    H231706   5.262   2.567   1.166 -0.7684 -1.5340 -0.0174
 3431TIP3   OH231707   1.777   5.425  12.758 -0.2323 -0.4289  0.0096
 3431TIP3    H131708   1.839   5.369  12.711  0.8608  1.5661 -1.0494
 3431TIP3    H231709   1.701   5.369  12.773  1.2673 -2.5467  0.1217
 3432TIP3   OH231710   2.703   0.425   5.864 -0.0866  0.7071 -0.1987
 3432TIP3    H131711   2.678   0.401   5.775 -0.5448  1.2576 -0.2329
 3432TIP3    H231712   2.792   0.459   5.856  0.1885 -0.0219 -0.3038
 3433TIP3   OH231713   0.112   6.296   0.636 -0.3299 -0.6751  0.5903
 3433TIP3    H131714   0.119   6.357   0.710 -0.7744 -0.7585  0.7024
 3433TIP3    H231715   0.058   6.342   0.572 -1.3596 -1.2776  1.0164
 3434TIP3   OH231716   6.428   0.869  16.210 -0.1110  0.0948 -0.3630
 3434TIP3    H131717   6.394   0.922  16.137  0.8061  1.6803  0.3244
 3434TIP3    H231718   6.507   0.914  16.238  0.4579 -1.4127  0.5695
 3435TIP3   OH231719   6.375   1.423  13.732 -0.1918  0.8081  0.5870
 3435TIP3    H131720   6.288   1.461  13.726 -0.1621  0.7260 -0.7400
 3435TIP3    H231721   6.427   1.488  13.780 -1.3190  0.1716  2.7610
 3436TIP3   OH231722   2.099   5.868   1.365 -0.2620  0.1588 -0.7941
 3436TIP3    H131723   2.143   5.901   1.287 -2.2336  2.1030 -1.1791
 3436TIP3    H231724   2.096   5.943   1.424  0.1789 -0.9678  0.7149
 3437TIP3   OH231725   4.046   1.239   4.130 -0.2856 -0.2551  0.0679
 3437TIP3    H131726   4.033   1.278   4.044 -1.1968  1.0864  0.7685
 3437TIP3    H231727   4.139   1.255   4.150 -0.3436  0.4565 -0.1979
 3438TIP3   OH231728   5.439   6.435   2.252 -0.1966 -0.0784 -0.3053
 3438TIP3    H131729   5.382   6.508   2.277  0.9693  0.6055  0.4811
 3438TIP3    H231730   5.519   6.449   2.303 -0.1643 -2.2537  0.3494
 3439TIP3   OH231731   0.756   3.303   4.368  0.6050  0.1313 -0.4630
 3439TIP3    H131732   0.731   3.369   4.303  0.2233  0.3854 -0.0590
 3439TIP3    H231733   0.847   3.324   4.389  1.4744 -1.2474 -2.4921
 3440TIP3   OH231734   4.273   2.427   0.453  0.1000  0.5188  0.6898
 3440TIP3    H131735   4.185   2.462   0.442 -0.1219 -0.2441 -0.0417
 3440TIP3    H231736   4.323   2.466   0.381  0.5086  1.3976  1.4386
 3441TIP3   OH231737   3.780   3.155   1.665  0.7479 -1.2643 -0.2961
 3441TIP3    H131738   3.864   3.111   1.653  0.9707 -0.9342  0.0337
 3441TIP3    H231739   3.716   3.098   1.621  0.9569 -2.1683  0.5454
 3442TIP3   OH231740   3.849   5.401   0.021  0.3032 -0.4284  0.1802
 3442TIP3    H131741   3.784   5.364   0.081 -0.9984  3.0471  1.1447
 3442TIP3    H231742   3.928   5.350   0.037 -0.9626 -1.8937  2.3069
 3443TIP3   OH231743   1.533   3.506  15.934  0.0491  0.0181 -0.0222
 3443TIP3    H131744   1.613   3.462  15.962  0.4566 -0.6014 -1.9992
 3443TIP3    H231745   1.464   3.440  15.946 -0.0568  0.2719  0.8827
 3444TIP3   OH231746   4.228   2.717   1.997 -0.3995 -0.7759  0.4158
 3444TIP3    H131747   4.319   2.741   2.013  0.0254 -2.2043  0.2653
 3444TIP3    H231748   4.192   2.791   1.948  0.6901 -0.2167  0.4418
 3445TIP3   OH231749   6.206   0.785   4.861 -0.4337  0.2763 -0.3328
 3445TIP3    H131750   6.215   0.747   4.949 -1.2968 -2.2999 -1.2535
 3445TIP3    H231751   6.282   0.752   4.813  0.9332  2.9962 -0.2264
 3446TIP3   OH231752   4.608   6.253  14.209 -0.3394  0.2179  0.3673
 3446TIP3    H131753   4.700   6.233  14.190 -0.6159 -0.1386 -0.6875
 3446TIP3    H231754   4.600   6.347  14.197  0.4431  0.7259  3.0430
 3447TIP3   OH231755   2.427   1.319   1.782  0.1892  0.4573 -0.3297
 3447TIP3    H131756   2.499   1.313   1.719  0.9889  0.9460  0.5180
 3447TIP3    H231757   2.439   1.243   1.840  1.3580  1.7119  1.1561
 3448TIP3   OH231758   1.643   4.761  15.051  0.0925 -0.4581 -0.4966
 3448TIP3    H131759   1.611   4.786  15.137  0.7549  0.5597 -0.5293
 3448TIP3    H231760   1.606   4.827  14.992  1.1899 -0.0264 -0.7133
 3449TIP3   OH231761   0.475   5.744  14.632  0.0592  0.2509 -0.3763
 3449TIP3    H131762   0.493   5.651  14.644 -0.2351  0.4660  2.3700
 3449TIP3    H231763   0.531   5.788  14.696  0.3125  1.9974 -1.7274
 3450TIP3   OH231764   4.073   5.537   4.849 -0.2830  0.2778  0.3546
 3450TIP3    H131765   4.013   5.504   4.915 -0.8183 -1.1518 -0.7743
 3450TIP3    H231766   4.153   5.487   4.862 -0.1226  0.5513  0.4206
 3451TIP3   OH231767   4.715   2.554   5.699 -0.0869 -0.5962  0.6401
 3451TIP3    H131768   4.626   2.554   5.733 -0.5894  2.9452 -0.2540
 3451TIP3    H231769   4.764   2.610   5.759  1.2233 -1.3084  0.2955
 3452TIP3   OH231770   4.011   2.637   3.848  0.0729  0.1420 -0.2853
 3452TIP3    H131771   3.995   2.731   3.853  3.3040  0.8345 -0.5545
 3452TIP3    H231772   4.056   2.625   3.764  0.6521 -1.4623  0.2100
 3453TIP3   OH231773   6.002   5.187   2.084  0.1104 -0.0315 -0.7830
 3453TIP3    H131774   5.927   5.135   2.055 -0.7118 -0.1637  1.4039
 3453TIP3    H231775   6.079   5.135   2.061 -0.6539 -1.8371  0.4961
 3454TIP3   OH231776   4.121   3.957  10.387 -0.0512  0.6214  0.7768
 3454TIP3    H131777   4.040   3.917  10.420  0.8963 -1.9367  0.2864
 3454TIP3    H231778   4.184   3.943  10.457  0.5358  0.3873  0.2154
 3455TIP3   OH231779   0.895   4.181  12.570  0.0434  0.3229 -0.4932
 3455TIP3    H131780   0.988   4.186  12.549  0.1593  0.6031  0.0650
 3455TIP3    H231781   0.862   4.110  12.515  0.6793 -0.0811 -0.3681
 3456TIP3   OH231782   3.748   5.886  17.143 -0.5302  0.3322 -0.2716
 3456TIP3    H131783   3.680   5.877  17.076  0.1071 -2.4167 -0.6274
 3456TIP3    H231784   3.733   5.813  17.203  0.1839  1.5473  1.4937
 3457TIP3   OH231785   1.321   1.880  12.456  0.0467  0.4979 -0.3745
 3457TIP3    H131786   1.240   1.828  12.456  0.7428 -0.6464  0.7610
 3457TIP3    H231787   1.312   1.939  12.530 -0.5573  1.7711 -1.4136
 3458TIP3   OH231788   0.701   1.707   5.568 -0.1866  0.1467  0.0744
 3458TIP3    H131789   0.737   1.795   5.574  0.6958 -0.2305  0.4897
 3458TIP3    H231790   0.689   1.693   5.474  4.0836 -0.9627 -0.4919
 3459TIP3   OH231791   3.391   5.651   5.025  0.2503 -0.3187 -0.2851
 3459TIP3    H131792   3.369   5.725   5.082  0.7112  1.9866 -2.9233
 3459TIP3    H231793   3.307   5.613   5.000 -0.3774  2.2472 -2.4618
 3460TIP3   OH231794   5.107   3.998   0.576  0.1097  0.0110 -0.4977
 3460TIP3    H131795   5.183   4.048   0.604 -0.4226  1.1810 -1.0358
 3460TIP3    H231796   5.036   4.027   0.634 -0.1559 -0.2968 -0.6623
 3461TIP3   OH231797   1.469   5.935   3.044 -0.2184 -0.7780  0.0228
 3461TIP3    H131798   1.470   5.839   3.052  3.0597 -0.7827  0.7784
 3461TIP3    H231799   1.460   5.950   2.950 -0.7603 -1.7906 -0.1108
 3462TIP3   OH231800   5.476   4.991  12.171 -0.2653 -0.1997 -0.4000
 3462TIP3    H131801   5.514   4.927  12.232 -0.3503 -0.0191 -0.1546
 3462TIP3    H231802   5.390   4.955  12.149 -0.0299 -0.5171 -0.8103
 3463TIP3   OH231803   0.113   6.113   0.921 -0.6466  0.2960 -0.4716
 3463TIP3    H131804   0.134   6.074   0.836 -1.8186 -1.7791  0.1172
 3463TIP3    H231805   0.149   6.052   0.985 -0.6019  1.3514  0.5554
 3464TIP3   OH231806   2.830   0.266   0.445  0.5466  0.5574 -0.8684
 3464TIP3    H131807   2.865   0.177   0.438  0.4872  0.3922  0.5766
 3464TIP3    H231808   2.775   0.264   0.524 -0.8189  1.4465 -1.7529
 3465TIP3   OH231809   5.298   1.458   2.847 -0.1523 -0.9391 -0.1404
 3465TIP3    H131810   5.311   1.545   2.810 -1.7022 -0.6404 -0.0225
 3465TIP3    H231811   5.342   1.462   2.932  1.5044 -0.9277 -0.9616
 3466TIP3   OH231812   1.658   3.204   1.477 -0.4191  0.3674 -0.3883
 3466TIP3    H131813   1.582   3.246   1.517  0.3114  1.1883  0.1711
 3466TIP3    H231814   1.727   3.211   1.543  0.7478  1.5166 -1.6646
 3467TIP3   OH231815   6.031   2.759  14.064  0.7827  0.2312  0.8316
 3467TIP3    H131816   5.991   2.735  14.148 -0.4354 -1.2841 -0.1171
 3467TIP3    H231817   6.079   2.681  14.038 -0.9879 -0.3311 -1.0488
 3468TIP3   OH231818   0.012   1.517  13.930  0.0794  0.2010 -0.3013
 3468TIP3    H131819  -0.015   1.564  13.851 -1.1405  0.7605  0.4208
 3468TIP3    H231820  -0.014   1.426  13.914 -0.2445  0.3287 -0.5024
 3469TIP3   OH231821   2.128   3.449   1.006  0.5219 -0.0105  0.2132
 3469TIP3    H131822   2.103   3.372   0.954  0.8604  0.7745 -1.1827
 3469TIP3    H231823   2.143   3.415   1.094 -0.0292 -1.4186 -0.2058
 3470TIP3   OH231824   6.488   0.059   6.691  0.1410  0.2473  0.1987
 3470TIP3    H131825   6.539   0.132   6.656  1.1533 -0.0747  0.9307
 3470TIP3    H231826   6.554  -0.007   6.712 -0.3951  0.3866  2.5705
 3471TIP3   OH231827   3.085   2.683  15.601 -0.0065 -0.2376 -0.1727
 3471TIP3    H131828   3.045   2.600  15.575 -0.2932 -0.7185  1.7197
 3471TIP3    H231829   3.013   2.746  15.597 -0.9762 -1.0076  2.7619
 3472TIP3   OH231830   0.100   2.400   3.398  0.5776  0.0224 -0.2588
 3472TIP3    H131831   0.140   2.413   3.484 -0.6132 -0.4910  0.3945
 3472TIP3    H231832   0.125   2.312   3.372  0.6660  0.0578 -0.2939
 3473TIP3   OH231833   1.585   6.601   1.745 -0.7417 -0.0939 -0.7160
 3473TIP3    H131834   1.518   6.557   1.692  0.6030 -1.9728 -0.9626
 3473TIP3    H231835   1.572   6.567   1.833 -0.6832  0.2418 -0.5750
 3474TIP3   OH231836   3.423   5.489   3.933 -0.8849 -0.0077  0.1927
 3474TIP3    H131837   3.362   5.471   4.005 -1.1626  0.3084  0.0418
 3474TIP3    H231838   3.378   5.458   3.855 -0.2953 -0.9795  0.2269
 3475TIP3   OH231839   2.059   4.686  14.032  0.0641 -1.1299 -0.5256
 3475TIP3    H131840   2.149   4.688  14.065  0.1023  0.9299 -0.6335
 3475TIP3    H231841   2.063   4.627  13.956  1.5287 -0.4071 -1.0391
 3476TIP3   OH231842   4.264   1.638   5.293  0.5360 -0.2114  0.5635
 3476TIP3    H131843   4.302   1.584   5.225 -1.8161 -0.3996 -0.7162
 3476TIP3    H231844   4.228   1.714   5.247 -0.8808 -0.2122  1.5826
 3477TIP3   OH231845   2.976   0.007  12.925  0.3129  0.5875 -0.3561
 3477TIP3    H131846   3.066   0.038  12.914  0.7556 -0.7640 -0.7001
 3477TIP3    H231847   2.981  -0.056  12.997 -0.2232 -0.0486 -0.8720
 3478TIP3   OH231848   4.916   1.709   2.987 -0.0162 -0.4579 -0.1667
 3478TIP3    H131849   4.972   1.686   2.913  0.7777 -0.2948  0.3749
 3478TIP3    H231850   4.958   1.786   3.026 -0.6188 -0.3324  0.2464
 3479TIP3   OH231851   5.231   1.009  12.088  0.0128  0.3373  0.1798
 3479TIP3    H131852   5.239   0.914  12.081 -1.9941 -0.2285  3.3861
 3479TIP3    H231853   5.151   1.030  12.039 -1.0400 -0.0851  1.6644
 3480TIP3   OH231854   6.578   1.061  11.528  0.1132 -0.0344  0.5590
 3480TIP3    H131855   6.563   1.092  11.439  0.4920 -0.1647  0.4451
 3480TIP3    H231856   6.507   1.099  11.579 -0.2529 -0.1645  0.1553
 3481TIP3   OH231857   3.353   2.623   0.980 -0.4837 -0.2331  0.2890
 3481TIP3    H131858   3.270   2.651   1.020  0.9939  2.2476  1.8350
 3481TIP3    H231859   3.404   2.703   0.973  1.4982 -1.5633 -1.4595
 3482TIP3   OH231860   2.056   0.241   1.925  0.1816 -0.3754  0.3164
 3482TIP3    H131861   2.055   0.162   1.978 -1.3998 -1.1976 -0.8804
 3482TIP3    H231862   2.043   0.210   1.836  2.0335  1.0330 -0.5068
 3483TIP3   OH231863   5.481   6.360  13.945  0.0228  0.4334  0.4074
 3483TIP3    H131864   5.528   6.279  13.930  1.2272  1.0455  0.7494
 3483TIP3    H231865   5.423   6.341  14.019  2.0488  0.5275  2.1272
 3484TIP3   OH231866   0.922   1.458   3.692 -0.7315 -0.6379 -0.7183
 3484TIP3    H131867   0.886   1.459   3.603 -1.1378 -1.0289 -0.5637
 3484TIP3    H231868   1.017   1.451   3.680 -0.7652 -0.4055 -1.1252
 3485TIP3   OH231869   0.408   3.906  13.864 -0.1294 -0.1102 -0.7836
 3485TIP3    H131870   0.433   3.984  13.914 -2.6467 -0.5380  1.3819
 3485TIP3    H231871   0.328   3.931  13.818 -1.2418 -1.4740  0.3115
 3486TIP3   OH231872   4.093   3.019   4.803  0.0695 -0.0716  0.2606
 3486TIP3    H131873   4.123   3.096   4.852 -0.3774 -0.3266  0.9473
 3486TIP3    H231874   4.069   2.955   4.870  0.1879 -0.7208 -0.3023
 3487TIP3   OH231875   0.153   5.918  16.585 -0.0116  0.1382 -0.3282
 3487TIP3    H131876   0.142   5.853  16.655 -0.0222  0.3564 -0.1267
 3487TIP3    H231877   0.117   5.999  16.621  1.2687  0.6035 -0.0524
 3488TIP3   OH231878   6.564   2.197   5.351 -0.1884  0.2523  0.9402
 3488TIP3    H131879   6.567   2.199   5.447 -0.8468  0.1813  0.9665
 3488TIP3    H231880   6.472   2.181   5.330 -0.2156  1.1950  0.2775
 3489TIP3   OH231881   0.084   5.811   4.497 -0.6295  0.0906 -0.0600
 3489TIP3    H131882   0.174   5.803   4.531 -0.8123 -1.9257  0.0859
 3489TIP3    H231883   0.057   5.899   4.523  0.9389  0.3724  0.8106
 3490TIP3   OH231884   2.517   3.013  13.444  0.4648  0.1712 -0.3879
 3490TIP3    H131885   2.588   2.951  13.430  0.3552  0.1192 -0.7271
 3490TIP3    H231886   2.556   3.099  13.428  0.3344  0.1122 -1.0879
 3491TIP3   OH231887   2.803   5.347  15.593  0.6182 -0.2391 -0.2675
 3491TIP3    H131888   2.741   5.417  15.573 -0.6688 -1.6666 -1.4531
 3491TIP3    H231889   2.878   5.366  15.537  0.9090  0.9617  0.4798
 3492TIP3   OH231890   4.712   5.149   4.658 -0.1994 -0.1685  0.1817
 3492TIP3    H131891   4.683   5.084   4.722 -2.5623 -0.9961 -1.6008
 3492TIP3    H231892   4.677   5.119   4.574  1.2166  1.8317 -1.2363
 3493TIP3   OH231893   0.621   6.111  10.552 -0.7894 -0.3011 -0.1791
 3493TIP3    H131894   0.544   6.163  10.572 -2.4202 -1.6982 -2.3688
 3493TIP3    H231895   0.687   6.141  10.614 -3.4495 -0.0228  2.7440
 3494TIP3   OH231896   3.371   5.771  14.746 -0.4763 -0.0580  0.1865
 3494TIP3    H131897   3.427   5.764  14.823 -1.5973  1.2951  1.1871
 3494TIP3    H231898   3.432   5.786  14.673  0.5824 -1.0720  0.8396
 3495TIP3   OH231899   3.141   2.223   5.947  0.2794 -0.4485  0.3782
 3495TIP3    H131900   3.173   2.149   5.999 -1.1753 -1.9122 -0.7131
 3495TIP3    H231901   3.060   2.250   5.991 -0.3406 -0.9392 -0.4365
 3496TIP3   OH231902   6.610   6.044  15.932  0.4103 -0.0074 -0.8808
 3496TIP3    H131903   6.598   5.981  16.003 -0.6172  0.4658 -0.6148
 3496TIP3    H231904   6.659   6.116  15.971  3.0566 -1.2953 -1.5942
 3497TIP3   OH231905   6.433   4.272  14.541  0.2168 -0.4551  0.6787
 3497TIP3    H131906   6.344   4.238  14.553  0.0932 -0.0075  1.0612
 3497TIP3    H231907   6.477   4.205  14.489 -0.7718  0.0123 -0.7973
 3498TIP3   OH231908   0.661   3.126   0.282  0.3733  0.2448 -0.9465
 3498TIP3    H131909   0.609   3.197   0.244  0.9187  1.2516  0.1293
 3498TIP3    H231910   0.635   3.124   0.374  0.8423 -0.5355 -0.8224
 3499TIP3   OH231911   0.106   1.882   0.510 -0.3073 -0.1416  0.1054
 3499TIP3    H131912   0.086   1.975   0.501 -0.9889 -0.1722  1.0736
 3499TIP3    H231913   0.192   1.880   0.553 -0.2799  0.0445  0.0599
 3500TIP3   OH231914   2.421   0.592  14.057 -0.2987  0.2377 -0.2776
 3500TIP3    H131915   2.511   0.613  14.034 -0.5457  1.0904 -0.4998
 3500TIP3    H231916   2.427   0.512  14.108  0.7674  1.2528  1.2660
 3501TIP3   OH231917   3.494   1.660  14.525 -0.1114  0.4757  0.4280
 3501TIP3    H131918   3.452   1.576  14.545  1.1261 -1.3805 -3.6537
 3501TIP3    H231919   3.423   1.715  14.491 -0.5088  0.2020  0.8072
 3502TIP3   OH231920   5.274   3.277   2.016 -0.8562  0.5058 -0.2920
 3502TIP3    H131921   5.360   3.285   1.975 -0.6713  0.6821  0.1178
 3502TIP3    H231922   5.239   3.366   2.016 -1.1767  0.3826 -0.7445
 3503TIP3   OH231923   2.704   0.828   5.428  0.0969  0.3114  0.1910
 3503TIP3    H131924   2.650   0.827   5.349  0.0333  0.4513  0.2317
 3503TIP3    H231925   2.769   0.896   5.411  1.0473 -0.7167 -0.3775
 3504TIP3   OH231926   6.445   1.178   1.626  0.5305  0.2335  0.3244
 3504TIP3    H131927   6.441   1.150   1.534 -0.7513  0.1272  0.3907
 3504TIP3    H231928   6.454   1.097   1.675  0.1496  0.1982  0.3407
 3505TIP3   OH231929   4.321   6.086   4.444 -0.1105  0.1804  0.3720
 3505TIP3    H131930   4.259   6.135   4.498  0.2388  0.8415  0.1828
 3505TIP3    H231931   4.268   6.020   4.400 -0.9852  1.6616 -0.9347
 3506TIP3   OH231932   3.202   4.772  15.445 -0.0071 -0.2293  0.7312
 3506TIP3    H131933   3.175   4.719  15.520  1.4524 -1.4867  0.4119
 3506TIP3    H231934   3.204   4.862  15.478  0.2830 -0.7285  2.1036
 3507TIP3   OH231935   0.928   1.136  11.651  0.2980 -0.1383 -0.0587
 3507TIP3    H131936   0.971   1.114  11.733  1.1736  0.7917 -0.2519
 3507TIP3    H231937   0.875   1.214  11.671  0.9599  0.4351 -0.4960
 3508TIP3   OH231938   0.342   3.081  11.173  0.3447  0.4049 -0.0948
 3508TIP3    H131939   0.315   3.052  11.086 -0.6637  0.5851  0.1437
 3508TIP3    H231940   0.437   3.069  11.174  0.4108  0.6774 -1.3229
 3509TIP3   OH231941   4.426   0.723   3.893  0.0719  0.3078  0.3026
 3509TIP3    H131942   4.355   0.666   3.923 -0.4437  0.5929 -0.3469
 3509TIP3    H231943   4.470   0.751   3.973  1.3056 -2.1984  0.6088
 3510TIP3   OH231944   1.679   3.203  13.177  0.1864  0.0005 -0.3362
 3510TIP3    H131945   1.596   3.169  13.209  0.7872 -0.8280  0.3751
 3510TIP3    H231946   1.743   3.179  13.244  1.0120  0.6024 -0.8821
 3511TIP3   OH231947   2.474   1.819   1.064  0.5226  0.1271 -0.3781
 3511TIP3    H131948   2.429   1.779   0.989 -1.4475  1.8779 -0.2266
 3511TIP3    H231949   2.551   1.861   1.026 -0.7087  1.4313 -1.5886
 3512TIP3   OH231950   5.636   5.651  16.744  0.0134  0.0841 -0.5051
 3512TIP3    H131951   5.715   5.638  16.797  0.9040 -0.6132 -1.9462
 3512TIP3    H231952   5.574   5.585  16.777  0.8009 -0.8075 -0.7851
 3513TIP3   OH231953   1.837   5.895  15.685 -0.1280 -1.2709  0.3015
 3513TIP3    H131954   1.856   5.918  15.776 -0.0430 -0.3001  0.0502
 3513TIP3    H231955   1.910   5.838  15.659  0.7326 -0.2427  0.3651
 3514TIP3   OH231956   2.714   3.758   3.894 -0.3563 -0.3539 -0.1929
 3514TIP3    H131957   2.644   3.700   3.923 -1.2285  0.4465 -0.6220
 3514TIP3    H231958   2.740   3.805   3.973 -0.3484 -0.6039 -0.0442
 3515TIP3   OH231959   1.065   3.218  15.723  0.0080 -0.1779 -0.2895
 3515TIP3    H131960   0.986   3.184  15.681 -0.1166  1.2867 -1.3118
 3515TIP3    H231961   1.136   3.166  15.686 -0.3165 -0.3901 -0.6292
 3516TIP3   OH231962   2.268   6.095   1.925  0.4600  0.5040  0.1652
 3516TIP3    H131963   2.233   6.126   1.842 -3.1516 -0.8375  1.0164
 3516TIP3    H231964   2.313   6.171   1.962  1.8537  1.2453 -2.7138
 3517TIP3   OH231965   6.345   2.412  17.014 -0.3068  0.0935 -0.3537
 3517TIP3    H131966   6.441   2.411  17.008 -0.3451 -0.3375 -0.9916
 3517TIP3    H231967   6.317   2.332  16.968 -0.9727  0.2142 -0.1713
 3518TIP3   OH231968   2.938   5.882  12.876 -0.1724  0.1584  0.7355
 3518TIP3    H131969   2.871   5.818  12.898  0.9477 -0.7881  1.5128
 3518TIP3    H231970   2.965   5.860  12.787 -0.2161 -0.0802  0.7817
 3519TIP3   OH231971   6.424   1.935   5.531  0.3673  0.1105 -0.7492
 3519TIP3    H131972   6.348   1.879   5.519 -1.3339  1.6658  1.8600
 3519TIP3    H231973   6.388   2.021   5.549  2.8385  1.3846 -1.4218
 3520TIP3   OH231974   4.744   0.138  15.809  0.0511 -0.5648 -0.0159
 3520TIP3    H131975   4.738   0.127  15.904  1.8516 -0.5808  0.1336
 3520TIP3    H231976   4.832   0.109  15.787 -0.4883 -1.0083 -1.7789
 3521TIP3   OH231977   3.696   5.906  16.021 -0.0617  0.9333 -0.0277
 3521TIP3    H131978   3.646   5.838  16.065 -1.8140  1.9284 -0.4080
 3521TIP3    H231979   3.692   5.981  16.080  1.0274  1.0349 -0.0561
 3522TIP3   OH231980   4.336   5.313   5.394  0.1363  0.6407 -0.0413
 3522TIP3    H131981   4.325   5.368   5.471 -0.8748  1.2486 -0.6069
 3522TIP3    H231982   4.279   5.238   5.410  0.6944  0.2671  0.2420
 3523TIP3   OH231983   2.671   2.995   4.097  0.1956  0.0393 -0.0514
 3523TIP3    H131984   2.599   3.058   4.092  0.5460  0.4127 -0.4224
 3523TIP3    H231985   2.723   3.011   4.018  0.5419 -0.4066  0.0798
 3524TIP3   OH231986   6.011   0.685  14.950 -0.1212 -0.6790  0.1356
 3524TIP3    H131987   6.005   0.732  15.033 -1.4890 -0.2307 -0.1950
 3524TIP3    H231988   5.920   0.672  14.923  0.2358 -2.8821 -0.1543
 3525TIP3   OH231989   6.449   5.359  16.172 -0.1617 -0.6846  0.1330
 3525TIP3    H131990   6.480   5.315  16.092 -0.3654 -2.3343  0.9125
 3525TIP3    H231991   6.415   5.288  16.226  0.5073  0.3366  1.9510
 3526TIP3   OH231992   5.195   2.848   0.940  0.3897  0.5041 -0.2840
 3526TIP3    H131993   5.184   2.764   0.986  1.4771  1.7363  2.4607
 3526TIP3    H231994   5.132   2.844   0.869 -2.3440 -1.1549  1.9856
 3527TIP3   OH231995   5.176   4.472  12.859 -0.3362  0.4899  0.6799
 3527TIP3    H131996   5.093   4.433  12.887  0.5384 -0.5217  1.9754
 3527TIP3    H231997   5.179   4.457  12.764 -1.4815  0.2452  0.6709
 3528TIP3   OH231998   4.131   3.201  16.874 -0.3683 -0.5037  0.2199
 3528TIP3    H131999   4.212   3.245  16.899 -0.4479 -0.2860  0.1043
 3528TIP3    H232000   4.063   3.246  16.924 -0.3927 -0.8224  0.4714
 3529TIP3   OH232001   6.080   5.472  15.980 -0.5607 -0.5480  0.1553
 3529TIP3    H132002   6.075   5.425  15.897 -1.6855 -0.0650 -0.0688
 3529TIP3    H232003   5.989   5.477  16.010 -0.3204  0.4256  0.7582
 3530TIP3   OH232004   6.149   5.336  16.232  0.1338 -1.1857  0.6749
 3530TIP3    H132005   6.167   5.334  16.138  2.1878 -1.2525  1.0412
 3530TIP3    H232006   6.235   5.338  16.273 -0.7348 -0.2246  2.5476
 3531TIP3   OH232007   2.471   2.878   5.900 -0.3836  0.5297  0.1677
 3531TIP3    H132008   2.517   2.872   5.816  2.0074 -1.8135  1.5054
 3531TIP3    H232009   2.467   2.972   5.918  1.2263  0.9693 -1.4186
 3532TIP3   OH232010   4.906   4.670   0.646 -1.0493  0.2399  0.0403
 3532TIP3    H132011   4.854   4.714   0.579 -0.8525 -0.1776 -0.3877
 3532TIP3    H232012   4.842   4.619   0.696 -0.8613 -1.9764 -1.7845
 3533TIP3   OH232013   5.827   4.258   2.122  0.1784 -0.5263 -0.2222
 3533TIP3    H132014   5.903   4.286   2.173 -0.0955  0.1697 -0.1906
 3533TIP3    H232015   5.770   4.216   2.186  0.2465 -0.4739 -0.1262
 3534TIP3   OH232016   3.923   2.649  16.439  0.0520 -0.4426 -0.1417
 3534TIP3    H132017   3.844   2.599  16.462 -1.0000  1.5622  0.8688
 3534TIP3    H232018   3.942   2.623  16.349 -1.5320 -1.2908 -0.2726
 3535TIP3   OH232019   1.312   0.743   0.796 -0.4405  0.1821 -0.6113
 3535TIP3    H132020   1.400   0.753   0.832 -0.9007 -0.2351  0.6554
 3535TIP3    H232021   1.289   0.652   0.813 -1.4601  0.5224 -0.1317
 3536TIP3   OH232022   3.476   3.265   3.694  0.0813 -0.1457 -0.0866
 3536TIP3    H132023   3.492   3.294   3.605  2.0513 -0.6061  0.0804
 3536TIP3    H232024   3.499   3.340   3.749 -0.9526  0.0759  0.0741
 3537TIP3   OH232025   1.066   3.991  15.596  0.2703  0.1439  0.4793
 3537TIP3    H132026   1.117   3.911  15.582  0.5598  0.3869  0.1401
 3537TIP3    H232027   1.005   3.968  15.666 -0.3166 -0.6744 -0.2927
 3538TIP3   OH232028   4.814   1.665  13.973  0.3260 -0.5756  0.1718
 3538TIP3    H132029   4.853   1.706  13.896 -1.0412  2.4378  0.9229
 3538TIP3    H232030   4.749   1.604  13.938  1.5548 -1.2357 -1.0196
 3539TIP3   OH232031   2.821   6.713   4.084 -0.8718 -0.4015 -0.4117
 3539TIP3    H132032   2.765   6.766   4.028 -0.8931  0.8162  0.7029
 3539TIP3    H232033   2.762   6.672   4.146 -0.8013 -1.3904 -0.9749
 3540TIP3   OH232034   3.602   4.838  15.685 -0.7565 -0.4356  0.0301
 3540TIP3    H132035   3.542   4.913  15.688  1.0036  1.1473 -1.5132
 3540TIP3    H232036   3.580   4.793  15.603  1.1156  1.1263 -1.4341
 3541TIP3   OH232037   5.763   4.936   3.950  0.0756 -0.5098 -0.0789
 3541TIP3    H132038   5.707   5.012   3.964  0.1237 -0.5842  0.5443
 3541TIP3    H232039   5.717   4.885   3.884  0.2652  0.2796 -0.8366
 3542TIP3   OH232040   5.838   1.897   4.643  1.0373  0.2890  0.6403
 3542TIP3    H132041   5.800   1.974   4.602 -0.8433 -1.3285 -0.8901
 3542TIP3    H232042   5.851   1.836   4.570 -1.9858 -2.5588  2.2456
 3543TIP3   OH232043   0.753   2.612  15.874  0.2030  0.7741 -0.0636
 3543TIP3    H132044   0.740   2.518  15.890 -1.2545  0.7691 -1.0676
 3543TIP3    H232045   0.841   2.630  15.907  0.3488 -0.8516  0.5412
 3544TIP3   OH232046   1.467   5.393   4.541 -0.3475  0.3841 -0.4507
 3544TIP3    H132047   1.427   5.474   4.508  2.2345  1.5963 -0.8661
 3544TIP3    H232048   1.460   5.331   4.468 -3.1253 -0.1529  0.1684
 3545TIP3   OH232049   5.309   4.369   0.518 -0.2008 -0.0841 -0.1866
 3545TIP3    H132050   5.369   4.443   0.526 -1.8179  1.3264 -0.4620
 3545TIP3    H232051   5.289   4.364   0.424 -0.4960 -0.5465 -0.1041
 3546TIP3   OH232052   3.765   1.612  10.581  0.4432  0.2367  0.1924
 3546TIP3    H132053   3.733   1.610  10.671  2.3508 -1.4016  0.8971
 3546TIP3    H232054   3.697   1.568  10.530 -0.7559  1.3724  0.7440
 3547TIP3   OH232055   5.468   0.115  15.850 -0.3932  0.6103 -0.2048
 3547TIP3    H132056   5.397   0.106  15.914 -0.2055  2.0833  0.2491
 3547TIP3    H232057   5.423   0.136  15.768 -0.5083  0.9346 -0.0576
 3548TIP3   OH232058   0.344   6.568   5.470  0.1259  0.2674  0.1145
 3548TIP3    H132059   0.258   6.529   5.452  0.2415  0.2406 -0.4023
 3548TIP3    H232060   0.384   6.509   5.535  0.4560 -0.7133 -0.9520
 3549TIP3   OH232061   5.827   0.827   0.149 -0.0902  0.9131  0.1278
 3549TIP3    H132062   5.736   0.846   0.171 -0.2347 -1.2032  1.7048
 3549TIP3    H232063   5.878   0.884   0.206 -0.4943 -0.6030  2.1125
 3550TIP3   OH232064   6.109   4.178  16.265  0.0450  0.2455  0.2458
 3550TIP3    H132065   6.142   4.249  16.210  0.3207 -0.2161 -0.1995
 3550TIP3    H232066   6.019   4.201  16.284 -0.2370  0.1324 -0.8942
 3551TIP3   OH232067   3.999   5.924   3.727  0.8910  0.3512  0.2921
 3551TIP3    H132068   4.015   6.003   3.778  2.0634 -0.3037  0.9816
 3551TIP3    H232069   4.069   5.864   3.752  0.1069 -0.8699 -0.3035
 3552TIP3   OH232070   1.367   6.464   4.008  0.0344 -0.1603 -0.1294
 3552TIP3    H132071   1.429   6.528   3.974  1.0294 -0.3059  1.3500
 3552TIP3    H232072   1.319   6.511   4.076 -0.6190 -0.4206 -0.4057
 3553TIP3   OH232073   2.196   6.452   4.563  0.1137 -0.6911  0.4127
 3553TIP3    H132074   2.156   6.521   4.616  0.5142  0.3121 -0.5652
 3553TIP3    H232075   2.281   6.436   4.604  0.0737 -0.5190  0.5642
 3554TIP3   OH232076   1.526   3.330   3.209 -0.1586 -0.1176  0.5194
 3554TIP3    H132077   1.460   3.394   3.183 -0.6030  0.2944  2.4731
 3554TIP3    H232078   1.482   3.245   3.203  0.1506 -0.1940 -1.1966
 3555TIP3   OH232079   3.492   1.412   1.136 -0.3556  0.1504  0.4169
 3555TIP3    H132080   3.562   1.437   1.196 -0.3659 -1.2994  1.0746
 3555TIP3    H232081   3.438   1.491   1.128  0.7255  0.9462  0.7793
 3556TIP3   OH232082   1.260   4.868  17.019  0.4442 -0.1512  0.4692
 3556TIP3    H132083   1.295   4.917  17.093  0.9913  0.6190 -0.2729
 3556TIP3    H232084   1.255   4.932  16.948  0.9735 -1.1082 -0.4770
 3557TIP3   OH232085   5.185   3.064   2.472  0.1745 -0.3020  0.3240
 3557TIP3    H132086   5.230   3.006   2.534  1.2652  0.8972  0.6990
 3557TIP3    H232087   5.109   3.096   2.520 -0.3500 -1.2804  0.1685
 3558TIP3   OH232088   5.948   3.444   3.131 -0.6748 -0.2165  0.5020
 3558TIP3    H132089   6.010   3.429   3.060 -1.3020  0.3972 -0.2033
 3558TIP3    H232090   6.000   3.438   3.211 -0.0691 -1.5547  0.0391
 3559TIP3   OH232091   4.621   3.381   6.216  0.0700  0.4898  0.3983
 3559TIP3    H132092   4.622   3.446   6.286 -0.8542 -0.0466  0.9364
 3559TIP3    H232093   4.547   3.405   6.162 -0.9412 -0.6944  1.2003
 3560TIP3   OH232094   3.218   2.557  14.900 -0.3298  0.1494  0.1105
 3560TIP3    H132095   3.176   2.641  14.879  0.1467  0.9568  2.1461
 3560TIP3    H232096   3.305   2.581  14.930 -0.3529 -1.0264  1.1859
 3561TIP3   OH232097   1.242   1.148  11.527 -0.0774 -0.0403 -0.3687
 3561TIP3    H132098   1.177   1.203  11.572  0.1572 -1.0260  1.2449
 3561TIP3    H232099   1.279   1.206  11.460 -2.0688  0.7888 -0.8589
 3562TIP3   OH232100   3.332   5.082  14.126  0.2082 -0.2452 -0.2210
 3562TIP3    H132101   3.272   5.019  14.168 -0.1181 -0.2993 -0.7645
 3562TIP3    H232102   3.300   5.167  14.155  1.1425 -0.3373  1.1788
 3563TIP3   OH232103   3.857   5.405   2.775  0.6727 -0.2761  0.4934
 3563TIP3    H132104   3.815   5.477   2.821  1.6337 -0.2137  1.3017
 3563TIP3    H232105   3.890   5.444   2.694  1.7958  0.3790  1.2377
 3564TIP3   OH232106   4.760   6.684  11.955 -0.4156 -0.1134 -1.0283
 3564TIP3    H132107   4.813   6.756  11.922 -0.7217 -0.8186 -3.1708
 3564TIP3    H232108   4.754   6.622  11.883 -2.5577 -0.9654 -0.2284
 3565TIP3   OH232109   3.389   3.729  17.103 -0.3184  0.2984 -0.0576
 3565TIP3    H132110   3.358   3.749  17.015 -0.0585 -0.0682 -0.2360
 3565TIP3    H232111   3.483   3.711  17.092 -0.4139 -0.3839  0.1900
 3566TIP3   OH232112   3.110   5.991   4.670 -0.2969 -0.5471 -0.2796
 3566TIP3    H132113   3.045   5.927   4.699 -0.4725 -0.9968 -1.6056
 3566TIP3    H232114   3.166   5.943   4.609 -0.2315  0.4619 -1.0460
 3567TIP3   OH232115   2.478   0.020   2.192  0.5279 -0.6591  0.2904
 3567TIP3    H132116   2.558   0.005   2.242  0.2771  0.5540  1.1102
 3567TIP3    H232117   2.411  -0.029   2.239  0.1911  0.8858  1.5066
 3568TIP3   OH232118   2.074   6.064  15.528  0.1326 -0.3157  0.4565
 3568TIP3    H132119   2.035   6.140  15.485 -0.1690  0.5440  2.1700
 3568TIP3    H232120   2.060   6.079  15.621  0.2358 -2.4040  0.8540
 3569TIP3   OH232121   1.032   1.111  11.939  0.0835 -0.6675  0.0049
 3569TIP3    H132122   0.955   1.067  11.974  0.1925  0.7369  2.1737
 3569TIP3    H232123   1.106   1.065  11.978  0.2080  0.8513  1.6894
 3570TIP3   OH232124   0.332   0.005   5.038  0.6848 -0.1973  0.2868
 3570TIP3    H132125   0.238  -0.014   5.034  0.8161 -0.9936  0.9126
 3570TIP3    H232126   0.364  -0.045   5.112  1.4409  0.8168  0.6697
 3571TIP3   OH232127   6.293   3.066  14.182  0.0087 -0.1551  0.4490
 3571TIP3    H132128   6.213   3.052  14.232 -1.7448 -0.2907 -2.1614
 3571TIP3    H232129   6.267   3.125  14.111  2.9042  1.9002  0.9340
 3572TIP3   OH232130   4.352   4.475   6.048  0.1332  0.3840  0.7466
 3572TIP3    H132131   4.441   4.442   6.061  0.6967  1.0725 -1.1379
 3572TIP3    H232132   4.296   4.406   6.084  1.3646 -1.1595 -0.1495
 3573TIP3   OH232133   3.652   0.073  13.965  1.3325  1.1798 -0.1944
 3573TIP3    H132134   3.596   0.130  14.018  1.4800  0.5940  0.6162
 3573TIP3    H232135   3.668  -0.004  14.021 -0.1302 -0.3862 -1.7925
 3574TIP3   OH232136   5.085   1.489  15.519 -0.3548 -0.5489 -0.7455
 3574TIP3    H132137   5.027   1.439  15.462 -0.4740 -1.3571  0.0740
 3574TIP3    H232138   5.156   1.429  15.541 -0.4013 -0.3124  0.0972
 3575TIP3   OH232139   2.207   2.736   1.499  0.0483 -0.3834  0.4326
 3575TIP3    H132140   2.156   2.717   1.420 -0.8168 -2.0555  1.3418
 3575TIP3    H232141   2.228   2.829   1.492 -1.8424  0.0119 -0.7122
 3576TIP3   OH232142   3.452   0.730   3.321  0.5715  0.1107  0.4079
 3576TIP3    H132143   3.420   0.657   3.267  1.4877  0.2534 -0.3710
 3576TIP3    H232144   3.393   0.803   3.300 -0.7941 -0.5769  1.7377
 3577TIP3   OH232145   6.036   0.981   1.848  0.2772  0.4775  0.0039
 3577TIP3    H132146   6.019   1.065   1.890 -0.8852 -0.1801  0.9113
 3577TIP3    H232147   5.951   0.937   1.846  1.1305 -1.4119  1.2222
 3578TIP3   OH232148   5.593   6.428   2.481  0.2118  0.5595 -0.1097
 3578TIP3    H132149   5.607   6.500   2.542  2.2659  0.7763 -0.7439
 3578TIP3    H232150   5.625   6.351   2.527 -0.7232  0.2538  0.0561
 3579TIP3   OH232151   4.944   5.410   4.068 -0.2729 -0.6144 -0.1124
 3579TIP3    H132152   4.994   5.492   4.059  0.9145 -1.2786  0.2277
 3579TIP3    H232153   4.898   5.402   3.984  0.7410 -0.3142 -0.7294
 3580TIP3   OH232154   0.792   4.231  15.783 -0.0087 -0.2452 -0.2204
 3580TIP3    H132155   0.856   4.200  15.848  0.4081 -0.7013 -0.8236
 3580TIP3    H232156   0.825   4.196  15.700 -0.5495  0.2961 -0.6701
 3581TIP3   OH232157   1.435   5.362   6.385 -0.0511  0.2963  0.0437
 3581TIP3    H132158   1.525   5.391   6.373 -0.4151  1.7794  0.6349
 3581TIP3    H232159   1.440   5.266   6.391  1.4657  0.3653  0.0458
 3582TIP3   OH232160   6.303   4.578  15.680 -0.6643  0.3041  0.1446
 3582TIP3    H132161   6.259   4.581  15.595  0.5650  0.9906 -0.4945
 3582TIP3    H232162   6.362   4.653  15.679  1.7127 -1.4738  0.3014
 3583TIP3   OH232163   0.468   1.050  13.139  0.5649 -0.0275  0.0765
 3583TIP3    H132164   0.497   1.141  13.143 -0.9359  0.4412  1.8155
 3583TIP3    H232165   0.373   1.056  13.128  0.5671 -1.4194 -0.9241
 3584TIP3   OH232166   2.601   0.939   0.302  0.4993  0.2711  0.3612
 3584TIP3    H132167   2.523   0.939   0.247  0.7099 -1.3042  0.0319
 3584TIP3    H232168   2.669   0.977   0.248  0.2566  0.5079  0.2186
 3585TIP3   OH232169   2.007   5.383   2.706 -0.7374  0.3575 -0.3636
 3585TIP3    H132170   1.987   5.309   2.649 -0.7955 -0.4199  0.6444
 3585TIP3    H232171   2.103   5.389   2.705 -0.7788  1.7363 -2.2376
 3586TIP3   OH232172   4.069   6.241   2.663  0.0863  0.2001 -0.1025
 3586TIP3    H132173   4.033   6.326   2.636  1.4638  1.1747  0.9440
 3586TIP3    H232174   4.018   6.217   2.741 -0.6674 -0.2137 -0.7161
 3587TIP3   OH232175   6.426   3.172   1.304  0.4543  0.0047 -0.2495
 3587TIP3    H132176   6.385   3.086   1.313  1.5855 -0.4832  0.3594
 3587TIP3    H232177   6.437   3.204   1.393 -0.3918  1.0041 -0.4887
 3588TIP3   OH232178   6.162   0.153   3.162 -0.7775 -0.3079  0.0772
 3588TIP3    H132179   6.087   0.170   3.106 -0.7486  1.4789  0.5300
 3588TIP3    H232180   6.170   0.231   3.216  0.2582 -1.2566  1.3645
 3589TIP3   OH232181   6.214   3.625   1.205  0.1452  0.2243 -0.2986
 3589TIP3    H132182   6.257   3.627   1.290  1.3702  0.5622 -0.9045
 3589TIP3    H232183   6.224   3.713   1.170  1.6245 -0.4425 -1.7072
 3590TIP3   OH232184   2.570   1.657   1.795  0.1552  0.3229 -0.5217
 3590TIP3    H132185   2.531   1.711   1.726 -0.0651  0.2607 -0.4461
 3590TIP3    H232186   2.541   1.568   1.776  0.0257  0.3173 -0.3021
 3591TIP3   OH232187   6.606   6.569  13.881  0.3805  0.0414 -0.0441
 3591TIP3    H132188   6.518   6.534  13.894 -0.0361  0.2795 -1.9266
 3591TIP3    H232189   6.600   6.661  13.907  0.0609  0.0550 -0.1582
 3592TIP3   OH232190   2.411   5.664  16.779 -0.5799  0.2776  0.3245
 3592TIP3    H132191   2.321   5.631  16.786 -0.2947 -0.6052 -0.0628
 3592TIP3    H232192   2.425   5.673  16.685 -0.1129 -0.0018  0.3681
 3593TIP3   OH232193   1.602   6.431   0.819  0.5260 -0.1103 -0.2688
 3593TIP3    H132194   1.511   6.460   0.818  0.1724 -1.1418  0.0775
 3593TIP3    H232195   1.652   6.507   0.849 -0.2020  0.4998 -0.5861
 3594TIP3   OH232196   2.177   3.599  10.681 -0.4410  0.0771 -0.2559
 3594TIP3    H132197   2.233   3.523  10.698  0.0444 -0.2130 -2.7964
 3594TIP3    H232198   2.204   3.663  10.747  0.0897 -1.4385  1.0713
 3595TIP3   OH232199   5.292   4.730  11.092  0.3415  0.3639  0.4130
 3595TIP3    H132200   5.286   4.815  11.048  0.2245  0.4441  0.5835
 3595TIP3    H232201   5.204   4.693  11.085  0.0511  0.8145  1.4531
 3596TIP3   OH232202   4.112   2.689  10.995 -0.4642 -0.4500  0.4691
 3596TIP3    H132203   4.108   2.777  11.034  3.5653  0.8465 -1.5515
 3596TIP3    H232204   4.044   2.690  10.928 -0.7812  0.9392  0.7647
 3597TIP3   OH232205   3.041   5.277  14.427  0.1062 -0.3040  0.1069
 3597TIP3    H132206   3.057   5.364  14.390 -0.4717 -0.7141 -1.1469
 3597TIP3    H232207   2.949   5.259  14.408 -0.2481 -0.5222  1.8186
 3598TIP3   OH232208   3.116   5.406  16.932 -0.0864  0.1180  0.0845
 3598TIP3    H132209   3.151   5.338  16.990 -1.9859  0.7096  2.0543
 3598TIP3    H232210   3.194   5.445  16.892  1.1656 -1.7970  0.4917
 3599TIP3   OH232211   1.134   3.242  14.143 -0.6028  0.5080  0.0468
 3599TIP3    H132212   1.042   3.256  14.168  0.1556  2.7585  1.8773
 3599TIP3    H232213   1.160   3.164  14.191 -1.7279 -0.6648 -1.1473
 3600TIP3   OH232214   4.384   2.478  11.359  0.1181  0.7170  0.0469
 3600TIP3    H132215   4.306   2.470  11.304 -0.7780  2.8342  0.8563
 3600TIP3    H232216   4.362   2.428  11.438  0.4901 -0.4771 -0.5917
 3601TIP3   OH232217   0.386   0.097  10.699  0.0981 -0.1132 -0.1267
 3601TIP3    H132218   0.401   0.124  10.789 -0.4693 -0.4114  0.0652
 3601TIP3    H232219   0.292   0.077  10.695  0.0513  0.2228 -0.8713
 3602TIP3   OH232220   4.246   3.262  14.157 -0.9801 -0.3604 -0.3495
 3602TIP3    H132221   4.325   3.229  14.200 -0.5150  0.3608 -0.6472
 3602TIP3    H232222   4.189   3.287  14.229 -0.6172 -0.1290 -0.1373
 3603TIP3   OH232223   6.638   1.201  14.546  0.9818 -0.3740 -0.1612
 3603TIP3    H132224   6.699   1.202  14.620 -0.8114 -0.5829  1.3967
 3603TIP3    H232225   6.645   1.289  14.508 -0.2574  0.8460  2.2146
 3604TIP3   OH232226   1.744   5.203   2.123 -0.3109 -0.0897  0.2801
 3604TIP3    H132227   1.807   5.204   2.050 -0.8497  1.0013 -0.1978
 3604TIP3    H232228   1.659   5.187   2.081 -0.9449  2.5968  0.3364
 3605TIP3   OH232229   1.911   5.261  15.112  0.8620 -0.1638  0.1940
 3605TIP3    H132230   1.905   5.350  15.147 -0.3010  0.0246 -0.4328
 3605TIP3    H232231   1.940   5.208  15.186  3.2031  0.9684  0.1694
 3606TIP3   OH232232   3.882   0.670  15.602 -0.6166 -0.7099  0.6557
 3606TIP3    H132233   3.861   0.591  15.553  0.4786  0.3207 -1.6241
 3606TIP3    H232234   3.900   0.639  15.691  0.6722 -3.1749 -0.3634
 3607TIP3   OH232235   5.499   4.049  12.717  0.0207 -0.3748  0.3881
 3607TIP3    H132236   5.560   3.981  12.746  0.2954 -0.8269 -1.2035
 3607TIP3    H232237   5.551   4.109  12.664 -0.4895  0.4234  0.7477
 3608TIP3   OH232238   1.581   2.294  12.276 -0.5980  0.6215 -0.0389
 3608TIP3    H132239   1.584   2.201  12.257 -1.6115  0.5210  0.1952
 3608TIP3    H232240   1.622   2.303  12.362  0.6210  0.5708 -0.6062
 3609TIP3   OH232241   0.545   6.350   1.282 -0.1109  0.4209 -0.6137
 3609TIP3    H132242   0.573   6.369   1.192 -1.3237 -0.1824 -1.1400
 3609TIP3    H232243   0.620   6.304   1.320  0.0768 -0.1583 -1.6244
 3610TIP3   OH232244   6.456   2.918   2.558 -0.2305 -0.3354  0.2700
 3610TIP3    H132245   6.428   2.944   2.646  3.3198 -0.2466  1.5036
 3610TIP3    H232246   6.459   2.823   2.561  0.5270 -0.3051  0.4610
 3611TIP3   OH232247   2.421   4.326  16.435  0.2098  0.4933 -0.8643
 3611TIP3    H132248   2.407   4.316  16.341  1.2189 -1.7303 -0.8429
 3611TIP3    H232249   2.337   4.302  16.475  0.3065 -0.3618 -1.1542
 3612TIP3   OH232250   1.265   6.438  14.130  0.0412  0.4862 -0.3880
 3612TIP3    H132251   1.199   6.448  14.061  0.6302  0.2452 -1.0024
 3612TIP3    H232252   1.216   6.412  14.207 -0.8328  2.2221 -0.3093
 3613TIP3   OH232253   0.631   2.121  12.702 -0.4032 -0.2223 -0.4506
 3613TIP3    H132254   0.557   2.065  12.679  1.1671 -2.1008 -1.1535
 3613TIP3    H232255   0.677   2.135  12.619  1.1211 -0.7657  0.2602
 3614TIP3   OH232256   0.135   6.747   3.860 -0.5005 -0.1993 -0.0844
 3614TIP3    H132257   0.208   6.806   3.876 -0.2684 -0.6894  0.7414
 3614TIP3    H232258   0.067   6.802   3.821 -0.2703  0.6046  0.6137
 3615TIP3   OH232259   1.558   2.560   0.932 -0.3421  0.5444  0.1169
 3615TIP3    H132260   1.520   2.586   1.016  1.7570 -0.8217  1.5870
 3615TIP3    H232261   1.516   2.476   0.912 -0.0173  0.3121  0.3998
 3616TIP3   OH232262   6.419   0.097  13.678  0.1834 -0.1795  0.4339
 3616TIP3    H132263   6.494   0.083  13.621 -0.0247 -1.0699  0.3527
 3616TIP3    H232264   6.378   0.010  13.685  0.2462 -0.1223  1.9821
 3617TIP3   OH232265   3.989   0.912   4.075 -0.0746 -0.7535  0.1285
 3617TIP3    H132266   4.060   0.867   4.120  1.9005  0.8232 -1.2223
 3617TIP3    H232267   3.944   0.842   4.027  3.3078 -1.4743 -2.4717
 3618TIP3   OH232268   6.348   1.542   4.646 -0.6284 -0.1104 -1.1689
 3618TIP3    H132269   6.369   1.616   4.702 -0.8770 -0.4339 -0.6359
 3618TIP3    H232270   6.430   1.492   4.641 -0.6842 -0.2401 -0.8409
 3619TIP3   OH232271   2.007   3.615   0.232 -0.2431 -0.1014 -0.1603
 3619TIP3    H132272   1.939   3.617   0.164 -0.9761  0.3526  0.5679
 3619TIP3    H232273   2.079   3.667   0.195 -0.9258  0.7622 -0.2965
 3620TIP3   OH232274   2.895   2.963   0.904 -0.5180 -0.6869  0.1558
 3620TIP3    H132275   2.835   2.888   0.909  0.0428 -1.1708 -0.1695
 3620TIP3    H232276   2.890   3.004   0.990 -3.3028  0.8620 -0.6189
 3621TIP3   OH232277   6.121   5.120  14.894  0.2267 -0.0915  0.4065
 3621TIP3    H132278   6.154   5.073  14.817  0.9161  0.7458  0.1851
 3621TIP3    H232279   6.026   5.124  14.880  0.3328 -0.0326 -0.3578
 3622TIP3   OH232280   6.450   3.327  11.199  0.6965 -0.0954 -0.4323
 3622TIP3    H132281   6.364   3.336  11.242  0.0730  1.0632 -1.8341
 3622TIP3    H232282   6.501   3.272  11.259 -0.9115 -0.5470  0.5987
 3623TIP3   OH232283   1.895   3.815  12.968  0.7644 -0.0272  0.3959
 3623TIP3    H132284   1.924   3.724  12.983  1.1970 -0.5258 -2.8892
 3623TIP3    H232285   1.799   3.810  12.971  0.7906 -0.1571  2.1411
 3624TIP3   OH232286   1.278   1.725  15.511 -0.2317 -0.0188 -0.5012
 3624TIP3    H132287   1.332   1.694  15.439  0.5551 -1.7816  0.7519
 3624TIP3    H232288   1.195   1.678  15.501  0.0112 -0.5531 -0.0833
 3625TIP3   OH232289   2.554   1.380   0.586  0.1678 -0.2992  0.1446
 3625TIP3    H132290   2.469   1.423   0.570 -0.9441 -2.7289 -0.9358
 3625TIP3    H232291   2.565   1.383   0.681 -0.5444  1.0493  0.2153
 3626TIP3   OH232292   2.043   2.845  15.155  0.4291 -0.1423  0.0366
 3626TIP3    H132293   2.038   2.871  15.063 -0.7667 -0.2877  0.0397
 3626TIP3    H232294   2.040   2.928  15.203 -0.3676 -0.1278 -0.0276
 3627TIP3   OH232295   3.343   3.193  12.212  0.0530  0.1809  0.5132
 3627TIP3    H132296   3.359   3.188  12.306  1.1548 -0.5870  0.3100
 3627TIP3    H232297   3.366   3.106  12.179  1.1342  0.8735 -0.6604
 3628TIP3   OH232298   2.048   0.503   3.507 -0.0724 -0.1165  0.1173
 3628TIP3    H132299   1.958   0.513   3.538  0.3643  0.1433  1.3351
 3628TIP3    H232300   2.102   0.524   3.583  1.0228 -0.0387 -0.6671
 3629TIP3   OH232301   4.611   5.107   5.380 -0.4652 -0.1238 -0.6530
 3629TIP3    H132302   4.648   5.020   5.367  0.7257 -0.1927  2.4035
 3629TIP3    H232303   4.539   5.095   5.442 -1.4602  0.8826 -1.5493
 3630TIP3   OH232304   4.633   6.468  14.707  0.4270 -0.6688  0.0090
 3630TIP3    H132305   4.685   6.401  14.751 -1.3334 -2.0926  0.0451
 3630TIP3    H232306   4.590   6.421  14.635  0.1000  0.7081 -0.7331
 3631TIP3   OH232307   5.207   1.059   0.171  0.1637 -0.4458 -0.0218
 3631TIP3    H132308   5.171   1.136   0.127  1.4045  0.7718  1.0051
 3631TIP3    H232309   5.171   1.063   0.260  1.7965  0.1181  0.6506
 3632TIP3   OH232310   1.300   4.597  15.297 -0.9892  0.0306 -0.0721
 3632TIP3    H132311   1.229   4.662  15.295 -1.8530 -0.8960 -0.3987
 3632TIP3    H232312   1.287   4.546  15.217  1.2067  1.0220 -1.1340
 3633TIP3   OH232313   2.272   5.357  13.257  0.0781 -0.0009 -0.1668
 3633TIP3    H132314   2.315   5.283  13.299 -0.6088 -0.4725 -0.2731
 3633TIP3    H232315   2.193   5.371  13.309  0.1824  0.6325 -0.1750
 3634TIP3   OH232316   6.601   2.242  15.688 -0.4662  0.6640  0.5688
 3634TIP3    H132317   6.552   2.201  15.616 -2.1236  1.8426  0.9556
 3634TIP3    H232318   6.669   2.293  15.645 -0.2420 -0.1509 -0.0635
 3635TIP3   OH232319   1.167   5.301  13.521 -0.3293  0.4019 -0.0546
 3635TIP3    H132320   1.174   5.206  13.510 -1.0239  0.1986  1.1427
 3635TIP3    H232321   1.095   5.313  13.583 -1.0347  1.7703 -1.0815
 3636TIP3   OH232322   2.055   1.677  12.548  0.1482 -0.4971  0.4667
 3636TIP3    H132323   1.994   1.713  12.612 -0.9330 -0.5386 -0.5079
 3636TIP3    H232324   2.021   1.706  12.463  0.2899 -2.2302 -0.2266
 3637TIP3   OH232325   5.099   4.660  15.742 -0.1818  0.2052 -0.4364
 3637TIP3    H132326   5.096   4.565  15.731  1.3075  0.0970 -0.1991
 3637TIP3    H232327   5.139   4.672  15.828  1.0247  1.0284 -1.0787
 3638TIP3   OH232328   4.264   3.254   6.273  0.7135  0.0851 -0.2063
 3638TIP3    H132329   4.277   3.160   6.257 -0.8264  0.0601 -1.6134
 3638TIP3    H232330   4.253   3.292   6.186 -0.4804  1.2503  0.4175
 3639TIP3   OH232331   0.255   1.925  14.569 -0.1164 -0.0477  0.0006
 3639TIP3    H132332   0.296   2.006  14.541  2.9630 -1.4043  0.0707
 3639TIP3    H232333   0.227   1.942  14.659 -1.5407  1.5307 -0.7001
 3640TIP3   OH232334   4.019   1.005   1.006 -0.4227  0.0786 -0.3117
 3640TIP3    H132335   4.089   1.010   1.070 -0.5455  0.0667 -0.1776
 3640TIP3    H232336   4.060   1.032   0.924  0.1728 -1.4725 -0.5724
 3641TIP3   OH232337   5.733   1.682  15.188  0.7647  0.7303  0.6995
 3641TIP3    H132338   5.727   1.616  15.257 -0.0541  0.0795  0.0164
 3641TIP3    H232339   5.642   1.704  15.167  1.0091  2.4290  1.2334
 3642TIP3   OH232340   3.179   6.232  16.247  0.0551  0.0110 -0.1544
 3642TIP3    H132341   3.122   6.189  16.311 -1.4545  0.4409 -1.1544
 3642TIP3    H232342   3.121   6.293  16.201  0.7177 -1.2137 -2.8107
 3643TIP3   OH232343   5.902   6.697   3.346 -0.2653 -0.7778 -0.2653
 3643TIP3    H132344   5.928   6.784   3.378  0.8024 -0.7369 -1.1956
 3643TIP3    H232345   5.807   6.701   3.341 -0.1414  1.3334 -2.9612
 3644TIP3   OH232346   3.267   2.678  15.206 -0.4241 -0.2206 -0.1636
 3644TIP3    H132347   3.308   2.723  15.279 -0.9430 -0.0401  0.0261
 3644TIP3    H232348   3.339   2.647  15.152 -0.0345  1.9455 -0.9848
 3645TIP3   OH232349   0.931   2.007   2.781 -0.0588 -0.2632  0.5479
 3645TIP3    H132350   0.942   2.073   2.849 -0.1999  0.8824 -0.5219
 3645TIP3    H232351   0.914   2.056   2.701 -1.8484 -1.6270  0.0152
 3646TIP3   OH232352   0.131   2.127   3.353  0.3320  0.3792  0.0774
 3646TIP3    H132353   0.140   2.164   3.266 -0.8909  0.9110  0.1671
 3646TIP3    H232354   0.120   2.033   3.339  1.6659  0.2410 -0.2365
 3647TIP3   OH232355   6.036   5.783   1.856 -0.7086  0.0609  0.5282
 3647TIP3    H132356   6.079   5.730   1.790 -0.8461  0.1758  0.3435
 3647TIP3    H232357   6.040   5.731   1.936  0.1477  0.2581  0.6177
 3648TIP3   OH232358   3.805   2.670  13.715  0.3205  0.0317 -0.3817
 3648TIP3    H132359   3.728   2.641  13.763  0.3628  1.3885  0.5633
 3648TIP3    H232360   3.839   2.591  13.673 -2.0174 -0.4549 -1.4676
 3649TIP3   OH232361   5.792   0.175  10.356 -0.3411 -0.2525 -0.2720
 3649TIP3    H132362   5.801   0.081  10.372 -1.4157 -0.5823 -1.3832
 3649TIP3    H232363   5.706   0.184  10.315  0.0200  1.1367 -0.7930
 3650TIP3   OH232364   4.862   5.071   0.632  0.4741  0.3544  0.1918
 3650TIP3    H132365   4.782   5.081   0.580  0.0464  1.8991  1.0839
 3650TIP3    H232366   4.858   4.980   0.663 -1.2734  0.5665  0.7208
 3651TIP3   OH232367   1.786   5.012   0.577 -0.1088  0.3364  0.1415
 3651TIP3    H132368   1.706   5.058   0.606  0.6627  1.2642  0.8848
 3651TIP3    H232369   1.849   5.028   0.647  0.6892 -0.5273 -0.3573
 3652TIP3   OH232370   4.682   3.493   1.257 -0.3181 -0.2391 -0.4169
 3652TIP3    H132371   4.693   3.441   1.337  4.6913  0.9243  0.0005
 3652TIP3    H232372   4.621   3.563   1.281  0.8883 -0.0375  2.4168
 3653TIP3   OH232373   3.847   0.625   1.888 -0.4902  0.0500 -0.1317
 3653TIP3    H132374   3.798   0.557   1.841  0.9852 -1.4099  0.3144
 3653TIP3    H232375   3.818   0.707   1.850 -2.9018 -0.7495 -0.2156
 3654TIP3   OH232376   2.480   2.887   3.110 -0.3215 -0.1638  0.2672
 3654TIP3    H132377   2.410   2.822   3.114 -2.2305  1.7124 -0.3314
 3654TIP3    H232378   2.538   2.855   3.041 -1.2154 -1.2119 -0.0357
 3655TIP3   OH232379   3.842   1.592   5.724 -0.1758 -0.0082  0.4338
 3655TIP3    H132380   3.907   1.659   5.701  0.9677  0.0973  3.4797
 3655TIP3    H232381   3.761   1.642   5.736  0.7441  1.0230  3.0285
 3656TIP3   OH232382   5.370   3.053   4.826 -0.3109  0.2055 -0.3884
 3656TIP3    H132383   5.363   2.983   4.890 -2.7997  0.9962  0.3554
 3656TIP3    H232384   5.452   3.098   4.846  1.5971 -2.6495 -1.1888
 3657TIP3   OH232385   1.562   0.940   5.284  0.2468  0.5086 -0.3871
 3657TIP3    H132386   1.498   0.985   5.339 -1.2977 -1.9999 -0.0080
 3657TIP3    H232387   1.580   0.858   5.329 -0.6092 -1.3759 -3.2544
 3658TIP3   OH232388   5.003   0.950   2.734  0.1953 -0.7282 -0.3014
 3658TIP3    H132389   4.958   0.883   2.682  2.3039 -2.1693 -0.3924
 3658TIP3    H232390   4.970   1.033   2.699 -1.1825 -1.6755 -1.3973
 3659TIP3   OH232391   1.442   1.322   2.557 -0.2504 -0.0563 -0.3219
 3659TIP3    H132392   1.484   1.408   2.569  1.5342 -0.5493 -2.3766
 3659TIP3    H232393   1.514   1.262   2.539 -1.6981 -1.1256 -3.2083
 3660TIP3   OH232394   1.071   4.072   3.093  0.2342  0.0584 -0.3115
 3660TIP3    H132395   0.982   4.063   3.060  0.1494  0.4828 -0.2040
 3660TIP3    H232396   1.117   4.122   3.025  0.4800 -0.4551 -0.5245
 3661TIP3   OH232397   5.149   5.969   1.173 -0.0887  0.3358  0.1459
 3661TIP3    H132398   5.181   6.049   1.215  1.3231  0.0682 -0.3805
 3661TIP3    H232399   5.161   5.901   1.240  1.6016  0.0200 -0.4411
 3662TIP3   OH232400   4.784   2.185   2.991  0.0927 -0.5021  0.5706
 3662TIP3    H132401   4.808   2.244   2.920  1.0481 -0.9344  0.5290
 3662TIP3    H232402   4.791   2.238   3.070 -0.0804 -0.2773  0.4384
 3663TIP3   OH232403   3.275   2.675   2.103 -0.3011 -0.2560  0.1611
 3663TIP3    H132404   3.198   2.731   2.112 -0.3601  0.1273 -2.1542
 3663TIP3    H232405   3.322   2.710   2.027  0.4655 -2.3750 -0.4194
 3664TIP3   OH232406   5.772   3.882   2.357 -0.0067  0.7401  0.0165
 3664TIP3    H132407   5.857   3.926   2.354  0.2124  0.4550  1.3532
 3664TIP3    H232408   5.709   3.952   2.341  0.4680  0.9342 -1.0916
 3665TIP3   OH232409   4.087   3.768  11.584 -0.3968  0.0872  0.0457
 3665TIP3    H132410   4.169   3.817  11.595 -1.1049  1.4456 -0.5139
 3665TIP3    H232411   4.094   3.728  11.497 -0.7768  1.0953 -0.4528
 3666TIP3   OH232412   1.989   0.428  13.968  0.2664  0.5362 -0.5918
 3666TIP3    H132413   2.054   0.365  14.000 -0.1621 -0.0453 -0.8372
 3666TIP3    H232414   2.035   0.480  13.904  1.4984  2.5193  1.7441
 3667TIP3   OH232415   0.136   6.326  11.474  0.6080  0.6127 -0.1178
 3667TIP3    H132416   0.176   6.321  11.387  1.5106  0.9276  0.2688
 3667TIP3    H232417   0.190   6.268  11.528 -0.1228  0.1956  0.1673
 3668TIP3   OH232418   5.084   3.729   2.663 -0.2312  0.0955  0.5364
 3668TIP3    H132419   5.020   3.679   2.613  2.4029 -2.3982 -0.6413
 3668TIP3    H232420   5.085   3.815   2.622 -1.9414 -0.1912 -0.1737
 3669TIP3   OH232421   3.414   6.558  12.297  0.3835 -0.2166  0.2302
 3669TIP3    H132422   3.349   6.494  12.324  1.0232 -1.2624 -0.6211
 3669TIP3    H232423   3.364   6.639  12.282 -0.8487 -1.1746 -1.1002
 3670TIP3   OH232424   5.506   1.548  15.792  0.3588 -0.0514  0.1731
 3670TIP3    H132425   5.554   1.631  15.795 -0.5800  0.4904  1.4985
 3670TIP3    H232426   5.570   1.484  15.762  1.2777  1.0476 -0.2679
 3671TIP3   OH232427   3.560   6.366   0.458  0.8060 -0.3443  0.1898
 3671TIP3    H132428   3.474   6.393   0.427  0.5855 -1.0558  0.1614
 3671TIP3    H232429   3.600   6.446   0.491  0.6890  0.2665 -1.0834
 3672TIP3   OH232430   2.062   5.146  14.603  0.4474  0.1861  0.1069
 3672TIP3    H132431   2.045   5.058  14.637  1.8699 -0.7954 -1.5906
 3672TIP3    H232432   2.151   5.143  14.570  0.0320  1.8353 -1.3180
 3673TIP3   OH232433   2.485   4.468  11.017  0.2253 -0.4704 -0.0582
 3673TIP3    H132434   2.437   4.385  11.013 -0.2164 -0.3157  1.4823
 3673TIP3    H232435   2.429   4.530  10.971 -0.0499 -0.7476 -0.1077
 3674TIP3   OH232436   2.560   2.703   0.369 -0.5389 -0.1393 -0.4932
 3674TIP3    H132437   2.637   2.738   0.413 -1.9245 -0.5583  2.5364
 3674TIP3    H232438   2.575   2.609   0.363  0.0747  0.0327 -1.9153
 3675TIP3   OH232439   0.687   6.355   4.886  0.2569 -0.1639 -0.3573
 3675TIP3    H132440   0.599   6.318   4.886  0.4581 -0.6569 -0.4812
 3675TIP3    H232441   0.685   6.422   4.817 -0.2707  0.4570  0.2455
 3676TIP3   OH232442   3.394   3.335   4.314  0.3001  0.2817  0.5739
 3676TIP3    H132443   3.458   3.290   4.369  1.4065  1.4484  0.2817
 3676TIP3    H232444   3.334   3.266   4.287  2.2495 -1.1732 -0.3174
 3677TIP3   OH232445   1.177   0.851  14.386  0.1804 -0.3121  0.2720
 3677TIP3    H132446   1.163   0.827  14.294 -1.4888 -4.0090  1.3289
 3677TIP3    H232447   1.268   0.881  14.389  0.5126 -0.7892 -2.4462
 3678TIP3   OH232448   0.685   3.752   0.501 -0.4535 -0.1878 -0.1953
 3678TIP3    H132449   0.650   3.795   0.423 -0.8101 -0.4294 -0.1743
 3678TIP3    H232450   0.780   3.753   0.490 -0.4723  0.3708 -0.3152
 3679TIP3   OH232451   2.601   6.487   1.148 -0.2777  0.3286  0.7161
 3679TIP3    H132452   2.511   6.486   1.178 -0.7519  0.8883 -0.6272
 3679TIP3    H232453   2.621   6.579   1.133  0.2903  0.1538  0.3377
 3680TIP3   OH232454   0.755   5.604  13.958  0.1564 -0.1067  0.3006
 3680TIP3    H132455   0.704   5.605  13.877  0.4713  0.3029  0.1011
 3680TIP3    H232456   0.710   5.667  14.014 -0.0561 -0.3836  0.4391
 3681TIP3   OH232457   5.842   5.076  14.903  0.3223  0.2860  0.0448
 3681TIP3    H132458   5.749   5.058  14.916  0.2265  0.4482 -0.3904
 3681TIP3    H232459   5.845   5.138  14.830  0.7807  0.1521 -0.0564
 3682TIP3   OH232460   6.621   0.293   5.754 -0.0819 -0.2519  0.0335
 3682TIP3    H132461   6.648   0.250   5.673  0.6361 -1.4899  0.8831
 3682TIP3    H232462   6.640   0.385   5.740 -1.1813 -0.2497 -1.6705
 3683TIP3   OH232463   6.224   4.929   4.215  0.3534 -0.2852 -0.0533
 3683TIP3    H132464   6.151   4.972   4.259  1.3085  1.6097 -0.1854
 3683TIP3    H232465   6.254   4.993   4.151  3.1508 -0.2656  1.1245
 3684TIP3   OH232466   0.454   3.817  16.992 -0.2616  0.4096 -0.0936
 3684TIP3    H132467   0.540   3.859  16.988 -0.0738  0.2755  1.7090
 3684TIP3    H232468   0.473   3.728  17.023 -1.1973  1.1370  2.9082
 3685TIP3   OH232469   6.174   4.690  13.004  0.5078 -0.0687  0.3598
 3685TIP3    H132470   6.152   4.597  13.012 -1.8879  0.5248  1.6387
 3685TIP3    H232471   6.112   4.724  12.939 -0.3831  1.0863  1.7621
 3686TIP3   OH232472   5.832   2.044   4.016  0.0291  0.4071  0.1615
 3686TIP3    H132473   5.817   1.986   4.090 -1.0904  0.0156 -0.3434
 3686TIP3    H232474   5.757   2.104   4.016 -0.5138 -0.2251 -1.2054
 3687TIP3   OH232475   6.298   4.908   3.792  0.5706 -0.1024 -0.2947
 3687TIP3    H132476   6.210   4.871   3.802  0.3920  0.1537 -0.8387
 3687TIP3    H232477   6.341   4.894   3.876 -0.0709 -0.0322  0.0478
 3688TIP3   OH232478   3.886   5.097  15.683 -0.1695 -0.1203 -0.2078
 3688TIP3    H132479   3.874   5.054  15.598 -0.8356 -1.1443  0.3759
 3688TIP3    H232480   3.960   5.156  15.670  2.0934 -2.8082 -0.5796
 3689TIP3   OH232481   6.515   1.265  13.450  0.0864  0.6088  0.2320
 3689TIP3    H132482   6.439   1.321  13.435 -1.0013 -0.0324  2.8069
 3689TIP3    H232483   6.566   1.312  13.516  0.1009 -0.5521  1.0740
 3690TIP3   OH232484   6.613   3.849   1.659  0.3423 -0.6002 -1.1600
 3690TIP3    H132485   6.662   3.774   1.692  1.6132  0.9647  0.7279
 3690TIP3    H232486   6.655   3.870   1.576  3.0602  0.6871  0.3842
 3691TIP3   OH232487   1.376   2.896  11.089 -0.4622  0.0009  0.5171
 3691TIP3    H132488   1.342   2.816  11.129 -4.1501  1.1668  0.1472
 3691TIP3    H232489   1.338   2.897  11.001 -0.6836  2.1553  0.5733
 3692TIP3   OH232490   4.742   1.807  12.935 -0.3844 -0.0617 -0.4695
 3692TIP3    H132491   4.815   1.869  12.936  0.0477 -0.3204  3.5795
 3692TIP3    H232492   4.782   1.722  12.918  0.0841 -0.0046  0.2794
 3693TIP3   OH232493   5.734   6.526  10.605  0.8129  0.5519 -0.5603
 3693TIP3    H132494   5.659   6.536  10.546  0.2063  1.8341  0.3792
 3693TIP3    H232495   5.786   6.456  10.565 -0.2543  0.4563 -1.8832
 3694TIP3   OH232496   4.163   4.621   1.895  0.1535  0.6160  0.1103
 3694TIP3    H132497   4.086   4.635   1.839  1.4360 -1.8095 -2.5033
 3694TIP3    H232498   4.218   4.697   1.880  0.6440 -0.1373 -2.4414
 3695TIP3   OH232499   1.219   6.179   4.475  0.2491 -0.1197 -0.1152
 3695TIP3    H132500   1.222   6.271   4.449  1.8525 -0.0013  0.3591
 3695TIP3    H232501   1.141   6.171   4.530 -0.4300  0.7263 -0.9332
 3696TIP3   OH232502   4.657   0.424  11.990 -0.7742  0.6801 -0.1365
 3696TIP3    H132503   4.709   0.491  12.034  0.2622 -0.9048  1.1598
 3696TIP3    H232504   4.645   0.356  12.056 -3.2115  0.2887 -0.8899
 3697TIP3   OH232505   4.139   1.374  15.463 -0.3012  0.5374 -0.4940
 3697TIP3    H132506   4.074   1.358  15.532 -0.5964  0.5339 -0.7697
 3697TIP3    H232507   4.090   1.420  15.394 -0.0430  0.4115 -0.7654
 3698TIP3   OH232508   1.967   1.743   3.101 -0.8059 -0.3259  0.1701
 3698TIP3    H132509   1.944   1.824   3.056 -0.3034 -0.8937 -1.1321
 3698TIP3    H232510   1.920   1.674   3.053 -1.2927 -0.8249  1.3071
 3699TIP3   OH232511   3.521   4.452  14.827 -0.0871 -0.6228  0.3313
 3699TIP3    H132512   3.567   4.385  14.877  0.7233 -0.6398 -0.4062
 3699TIP3    H232513   3.433   4.455  14.865 -0.3524 -2.5619 -0.0369
 3700TIP3   OH232514   6.457   6.280   2.620  0.1368  0.1607 -0.0766
 3700TIP3    H132515   6.490   6.276   2.710  1.4026  1.1370 -0.4682
 3700TIP3    H232516   6.535   6.280   2.565 -0.6082 -0.0632 -1.1701
 3701TIP3   OH232517   3.013   4.083  16.771 -0.3036  0.2199 -0.0165
 3701TIP3    H132518   2.962   4.060  16.693  1.1918  1.1432 -1.3309
 3701TIP3    H232519   2.965   4.157  16.809 -1.5404 -0.8094  0.5167
 3702TIP3   OH232520   0.441   4.175   0.746  0.5661  0.2148  0.4347
 3702TIP3    H132521   0.402   4.165   0.833  2.9422  0.9952  1.7002
 3702TIP3    H232522   0.535   4.180   0.763  1.1885 -0.6280 -2.3185
 3703TIP3   OH232523   2.460   0.867   4.907  0.8088  0.1238 -0.2388
 3703TIP3    H132524   2.411   0.948   4.895  0.0123 -0.1898  0.7872
 3703TIP3    H232525   2.551   0.896   4.917  0.5949  0.8511 -0.3505
 3704TIP3   OH232526   3.854   6.036  15.503 -0.2936 -0.1566 -0.2830
 3704TIP3    H132527   3.863   5.960  15.561  1.2568 -0.1167 -0.4383
 3704TIP3    H232528   3.882   6.004  15.417 -3.4749 -0.4893 -1.3461
 3705TIP3   OH232529   5.203   4.703   5.487 -0.1453  0.2389  0.1913
 3705TIP3    H132530   5.137   4.769   5.507 -1.6434 -0.3975 -2.1910
 3705TIP3    H232531   5.190   4.683   5.394  2.1208 -1.3778  0.1242
 3706TIP3   OH232532   4.764   0.718   6.447  0.2036 -0.2701 -0.1882
 3706TIP3    H132533   4.735   0.631   6.421  2.3865 -1.2022  0.2408
 3706TIP3    H232534   4.810   0.752   6.371  0.3578  0.0138  0.0296
 3707TIP3   OH232535   3.338   6.732  12.039 -0.0048  0.2374  0.6808
 3707TIP3    H132536   3.355   6.798  12.106  1.5913 -0.7918  1.3625
 3707TIP3    H232537   3.422   6.721  11.995 -1.1469  1.3547 -2.0150
 3708TIP3   OH232538   4.203   6.211  11.796  0.3177  0.2273 -0.7369
 3708TIP3    H132539   4.218   6.281  11.859 -0.7914 -1.2350  1.2473
 3708TIP3    H232540   4.137   6.247  11.735 -1.1724  0.5478  0.9777
 3709TIP3   OH232541   0.852   5.704   0.068 -0.6696 -0.3108 -0.1982
 3709TIP3    H132542   0.758   5.721   0.059 -0.9841 -1.0283  1.3402
 3709TIP3    H232543   0.895   5.777   0.025 -1.9399  1.7356  1.7760
 3710TIP3   OH232544   3.377   2.841  11.758  0.4621  0.5799 -0.5344
 3710TIP3    H132545   3.460   2.842  11.806 -0.4641 -0.2825  1.1592
 3710TIP3    H232546   3.310   2.850  11.826 -0.8959 -0.5503 -1.6857
 3711TIP3   OH232547   4.161   2.524   4.253  0.1737  0.2245 -0.1795
 3711TIP3    H132548   4.068   2.511   4.275  0.0696  1.7150  0.3968
 3711TIP3    H232549   4.168   2.494   4.162 -0.5159 -1.3255  0.2465
 3712TIP3   OH232550   2.236   5.529   4.429  0.0803 -0.2607  0.1756
 3712TIP3    H132551   2.157   5.477   4.414  0.3288 -0.4612 -0.5123
 3712TIP3    H232552   2.230   5.557   4.520 -0.5770 -0.6199  0.2497
 3713TIP3   OH232553   1.328   3.380  12.694 -0.1465  0.0170 -0.2902
 3713TIP3    H132554   1.383   3.416  12.764  0.8075  1.7991 -1.8673
 3713TIP3    H232555   1.249   3.351  12.738  0.9923 -0.2505  1.7184
 3714TIP3   OH232556   6.493   5.897   1.623  0.3205  0.2672  0.9708
 3714TIP3    H132557   6.546   5.862   1.551 -2.1701 -1.5150 -0.1465
 3714TIP3    H232558   6.544   5.878   1.701  2.2323  0.5101 -0.1561
 3715TIP3   OH232559   0.676   6.702   2.160  0.4020  0.5451 -0.1912
 3715TIP3    H132560   0.610   6.650   2.114 -1.3758  3.0174 -0.6406
 3715TIP3    H232561   0.719   6.753   2.092  1.1518  0.6773  0.3697
 3716TIP3   OH232562   6.611   5.744   3.833 -0.4156  0.1604 -0.5718
 3716TIP3    H132563   6.561   5.818   3.868 -1.2085 -0.0060 -1.3246
 3716TIP3    H232564   6.701   5.760   3.862 -1.2035 -0.6303  2.6280
 3717TIP3   OH232565   3.955   5.500   6.562  0.1784 -0.1876 -0.0843
 3717TIP3    H132566   4.049   5.511   6.580  0.8534  0.9491 -3.4618
 3717TIP3    H232567   3.913   5.575   6.604  0.7428 -0.7545  1.5376
 3718TIP3   OH232568   6.582   5.602  12.640  0.1559 -0.4243  0.3416
 3718TIP3    H132569   6.534   5.520  12.653 -1.5817  0.7927  2.3341
 3718TIP3    H232570   6.516   5.662  12.604  1.2046  0.3164 -0.3880
 3719TIP3   OH232571   3.818   2.084  12.811  0.1012  0.2376 -0.5892
 3719TIP3    H132572   3.780   1.997  12.802 -0.7853  0.5463  0.0753
 3719TIP3    H232573   3.747   2.144  12.788 -0.0665  0.8480  1.3646
 3720TIP3   OH232574   3.069   6.004  13.486 -0.7443 -0.1983 -0.4400
 3720TIP3    H132575   3.144   5.951  13.514 -0.0537  1.0655  0.2531
 3720TIP3    H232576   3.105   6.092  13.476 -1.4471 -0.1439 -3.3371
 3721TIP3   OH232577   1.108   3.481   2.942 -0.2666 -0.4117 -0.5643
 3721TIP3    H132578   1.036   3.533   2.905 -0.7868 -1.3252 -0.8990
 3721TIP3    H232579   1.118   3.408   2.880  0.0780 -0.9889  0.1520
 3722TIP3   OH232580   5.568   1.043  11.400 -0.0443 -0.2745 -0.0802
 3722TIP3    H132581   5.613   0.964  11.428  1.3317  0.7830  0.7968
 3722TIP3    H232582   5.636   1.110  11.395 -1.5702  1.5618  1.8906
 3723TIP3   OH232583   6.602   6.579   1.769  0.4377  0.0060 -0.7002
 3723TIP3    H132584   6.589   6.666   1.733 -1.1565 -0.3001 -0.9684
 3723TIP3    H232585   6.695   6.575   1.791  0.4956  1.8306 -0.4778
 3724TIP3   OH232586   5.339   4.026   5.626 -0.6351 -0.8614  0.0812
 3724TIP3    H132587   5.332   3.941   5.584  0.9667 -0.8840 -0.2205
 3724TIP3    H232588   5.393   4.078   5.566 -2.7814  0.8717 -0.4674
 3725TIP3   OH232589   2.003   2.579  12.539  0.2810  0.0140  0.9164
 3725TIP3    H132590   1.922   2.613  12.500  0.3051 -0.8888  0.0248
 3725TIP3    H232591   1.975   2.528  12.615  0.0078 -0.2069  0.6699
 3726TIP3   OH232592   6.550   2.544   3.154 -0.1674  0.2117  0.0022
 3726TIP3    H132593   6.575   2.509   3.239 -1.6352 -0.3942  0.2122
 3726TIP3    H232594   6.632   2.546   3.104  0.4515 -0.8551  0.9278
 3727TIP3   OH232595   5.659   1.754  14.336  0.2301 -0.6651  0.2533
 3727TIP3    H132596   5.702   1.825  14.289 -0.5429  0.2036  0.8380
 3727TIP3    H232597   5.726   1.719  14.394  0.2729  0.4361  0.8916
 3728TIP3   OH232598   4.412   2.998   4.621 -0.0686 -0.3305  0.0275
 3728TIP3    H132599   4.390   3.087   4.646  1.9349  0.4439 -0.7802
 3728TIP3    H232600   4.490   3.006   4.567 -0.4056 -2.5006 -0.9166
 3729TIP3   OH232601   0.080   6.016  12.444 -0.0103  0.3947 -0.4348
 3729TIP3    H132602   0.138   5.984  12.513 -1.4216  1.5068  1.3741
 3729TIP3    H232603   0.017   5.945  12.431  1.0454 -0.3600 -1.5977
 3730TIP3   OH232604   4.967   3.015   5.350  0.8909 -0.3501 -0.7213
 3730TIP3    H132605   4.887   3.053   5.313  2.1109  1.1486 -1.9225
 3730TIP3    H232606   4.966   2.924   5.320 -0.7423 -0.6009 -0.0235
 3731TIP3   OH232607   6.128   2.697   4.949  0.2115 -0.1113 -0.4452
 3731TIP3    H132608   6.153   2.751   4.874 -0.6767 -0.4100 -0.9709
 3731TIP3    H232609   6.156   2.608   4.925  0.7859 -0.0517 -0.0066
 3732TIP3   OH232610   4.219   4.984  13.511  0.1424  0.5222  0.3199
 3732TIP3    H132611   4.129   4.953  13.520  0.6371 -1.9095 -1.8777
 3732TIP3    H232612   4.257   4.973  13.598 -1.3660  0.5785  1.0205
 3733TIP3   OH232613   0.623   4.251   4.970  0.4003 -0.5973  0.0032
 3733TIP3    H132614   0.710   4.268   4.934  0.4767 -1.5673 -0.2963
 3733TIP3    H232615   0.638   4.188   5.041 -0.1376 -1.4938 -0.6553
 3734TIP3   OH232616   1.864   4.253   0.711  0.2259  0.0600 -0.0116
 3734TIP3    H132617   1.859   4.158   0.701  0.1270  0.0613  0.0194
 3734TIP3    H232618   1.943   4.268   0.762  0.7375  0.0526 -0.7911
 3735TIP3   OH232619   2.923   0.273  13.864  0.5658  0.6036 -0.0932
 3735TIP3    H132620   2.980   0.294  13.938  2.6877 -0.9343 -1.1637
 3735TIP3    H232621   2.878   0.192  13.890 -0.1872  1.1249  0.2527
 3736TIP3   OH232622   4.800   1.407   4.625  0.5416  0.4559 -0.3282
 3736TIP3    H132623   4.791   1.461   4.703  0.0521  0.6581 -0.5215
 3736TIP3    H232624   4.823   1.469   4.556 -0.8198  0.5493 -0.7241
 3737TIP3   OH232625   6.111   6.641  13.156 -0.3473 -0.1510 -0.8822
 3737TIP3    H132626   6.049   6.714  13.159 -0.2248 -0.0117 -1.5229
 3737TIP3    H232627   6.187   6.671  13.205 -0.5791 -0.1301 -0.5276
 3738TIP3   OH232628   6.542   3.659  13.287  0.0769 -0.1430  0.3698
 3738TIP3    H132629   6.524   3.584  13.344 -0.2283  0.0697  0.5582
 3738TIP3    H232630   6.610   3.709  13.333 -1.0598  0.7090  1.1892
 3739TIP3   OH232631   3.892   2.661  12.957 -0.1897 -0.2509 -0.3400
 3739TIP3    H132632   3.925   2.751  12.953 -0.7298 -0.0810 -1.0446
 3739TIP3    H232633   3.797   2.670  12.961 -0.2016 -0.7506  1.4975
 3740TIP3   OH232634   1.798   3.056   1.150  0.4700 -0.1599 -0.1836
 3740TIP3    H132635   1.792   2.968   1.189  2.3548  0.0430  0.6675
 3740TIP3    H232636   1.732   3.107   1.197  0.3125 -0.7829  0.3002
 3741TIP3   OH232637   1.106   1.490   2.702 -0.7723 -0.3084 -0.1905
 3741TIP3    H132638   1.196   1.514   2.726 -0.6758 -2.3255  1.8148
 3741TIP3    H232639   1.051   1.551   2.751 -0.6190  2.0013 -2.6497
 3742TIP3   OH232640   2.023   6.569  16.664  0.2324 -0.4085  0.2546
 3742TIP3    H132641   1.938   6.525  16.660 -0.0625  0.2555 -1.1914
 3742TIP3    H232642   2.002   6.662  16.672  0.8573 -0.4125  2.5760
 3743TIP3   OH232643   0.149   4.766  16.278 -0.0076 -0.5716 -0.4047
 3743TIP3    H132644   0.197   4.735  16.201  1.6902 -0.2569  0.4934
 3743TIP3    H232645   0.209   4.827  16.321 -1.0323 -0.5368  1.0263
 3744TIP3   OH232646   3.184   0.990  13.436 -0.3707 -0.2034  0.5236
 3744TIP3    H132647   3.234   1.063  13.471  0.1341 -0.3621  0.1423
 3744TIP3    H232648   3.244   0.945  13.376 -0.9575 -0.3984  0.0622
 3745TIP3   OH232649   6.645   2.392  14.834 -0.0202  0.0110 -0.1666
 3745TIP3    H132650   6.718   2.375  14.893  0.5186 -1.7787 -1.2306
 3745TIP3    H232651   6.680   2.372  14.747 -1.3576  0.5838 -0.8715
 3746TIP3   OH232652   2.760   4.885  11.672  0.3149 -0.2941  0.0393
 3746TIP3    H132653   2.843   4.913  11.711 -0.2022  1.6808 -0.1916
 3746TIP3    H232654   2.778   4.881  11.578  0.1436  0.1574 -0.0129
 3747TIP3   OH232655   6.150   4.958  16.875 -0.3840  0.2328  0.1664
 3747TIP3    H132656   6.236   4.974  16.836  0.1312 -1.0977  0.6837
 3747TIP3    H232657   6.146   5.016  16.951  1.3584 -1.7521  1.9143
 3748TIP3   OH232658   4.457   4.668  16.769  0.3723  0.1142 -0.1666
 3748TIP3    H132659   4.446   4.595  16.830  0.5452 -0.8294 -1.2138
 3748TIP3    H232660   4.443   4.746  16.822  2.6447 -0.5376  1.5861
 3749TIP3   OH232661   2.315   4.122  16.848  0.2487  0.6937 -0.5005
 3749TIP3    H132662   2.363   4.203  16.832  0.1784  0.7655 -0.3521
 3749TIP3    H232663   2.311   4.079  16.762 -1.5002  1.8178 -1.0283
 3750TIP3   OH232664   5.212   4.938   3.983  0.5645  0.1323 -0.2252
 3750TIP3    H132665   5.237   4.863   4.036  2.6003 -0.3412 -1.7195
 3750TIP3    H232666   5.154   4.902   3.916  1.7021 -0.1950 -1.0641
 3751TIP3   OH232667   1.056   5.436   4.564 -0.2569  0.3403 -0.2676
 3751TIP3    H132668   1.062   5.454   4.658  1.9546 -0.0563 -0.2788
 3751TIP3    H232669   1.064   5.340   4.557 -1.0434  0.3019 -0.8475
 3752TIP3   OH232670   0.228   1.204   0.243  0.3005  0.1582 -0.5703
 3752TIP3    H132671   0.198   1.271   0.182 -0.2107  2.0497  1.6351
 3752TIP3    H232672   0.148   1.163   0.276  0.6050 -1.7173 -1.9704
 3753TIP3   OH232673   1.284   5.065  11.846  0.3082  0.1294  0.2629
 3753TIP3    H132674   1.234   5.093  11.770  0.3585  0.8698  0.4973
 3753TIP3    H232675   1.366   5.031  11.809  1.0437  2.0009  0.0421
 3754TIP3   OH232676   4.899   1.196  15.624 -0.8122  0.1782 -0.8660
 3754TIP3    H132677   4.930   1.184  15.714 -2.0578  0.2762 -0.3955
 3754TIP3    H232678   4.945   1.129  15.574 -0.2312  0.0040 -0.1231
 3755TIP3   OH232679   3.972   4.668  16.398 -0.7348 -0.4208 -0.0957
 3755TIP3    H132680   4.003   4.635  16.482  0.6044  1.8214  0.3692
 3755TIP3    H232681   3.915   4.740  16.420  1.0791  1.4162 -1.0374
 3756TIP3   OH232682   2.229   3.298   6.619  0.2605  0.5537 -0.8004
 3756TIP3    H132683   2.203   3.219   6.665 -3.4393  1.5157 -0.8803
 3756TIP3    H232684   2.232   3.273   6.527  0.5599  0.1801 -0.6864
 3757TIP3   OH232685   2.881   5.540   2.079 -0.6678  0.6342 -0.0611
 3757TIP3    H132686   2.960   5.572   2.123 -0.4153 -0.4403  0.3065
 3757TIP3    H232687   2.876   5.447   2.104 -1.1646  0.2887 -1.3782
 3758TIP3   OH232688   4.830   5.582   2.990 -0.6032  0.3935  0.6790
 3758TIP3    H132689   4.786   5.619   3.067 -0.8016  1.7151 -0.0226
 3758TIP3    H232690   4.796   5.634   2.917  2.8838  2.2756  0.1856
 3759TIP3   OH232691   4.403   3.859   4.014 -0.1886  0.4514  0.3489
 3759TIP3    H132692   4.421   3.832   4.104 -0.7903 -1.7755 -0.1235
 3759TIP3    H232693   4.318   3.820   3.993  0.9377 -1.0985 -1.8708
 3760TIP3   OH232694   1.370   6.315   4.838  0.0218 -0.1696 -0.4711
 3760TIP3    H132695   1.459   6.341   4.863 -0.8097  0.1893  2.5935
 3760TIP3    H232696   1.367   6.221   4.851 -0.1535 -0.1241 -0.1769
 3761TIP3   OH232697   4.296   6.489  15.177  0.7037  0.2369  0.3153
 3761TIP3    H132698   4.320   6.403  15.211 -0.0715  0.0948  0.5171
 3761TIP3    H232699   4.367   6.547  15.207  0.9114 -0.2145  0.7056
 3762TIP3   OH232700   5.119   4.116   5.796 -0.1178 -0.0165  0.2314
 3762TIP3    H132701   5.197   4.103   5.743  0.0298  1.3331  0.0913
 3762TIP3    H232702   5.126   4.050   5.865  1.2576  0.2260  0.3538
 3763TIP3   OH232703   6.585   3.397  14.735  0.0074  0.2710 -0.4011
 3763TIP3    H132704   6.573   3.484  14.773  0.9804 -0.7501  2.5684
 3763TIP3    H232705   6.539   3.339  14.796 -0.0460 -1.3833 -1.9488
 3764TIP3   OH232706   4.168   0.492   5.317 -0.1464 -0.0904  0.1766
 3764TIP3    H132707   4.183   0.453   5.403  0.1062 -1.1972 -0.3425
 3764TIP3    H232708   4.254   0.489   5.274 -0.7961 -2.2823 -1.1629
 3765TIP3   OH232709   0.157   5.233   5.278 -0.0803  0.4129 -0.2409
 3765TIP3    H132710   0.125   5.238   5.188  1.4112 -1.3962 -0.9686
 3765TIP3    H232711   0.085   5.194   5.327  0.1265 -1.5456 -1.3715
 3766TIP3   OH232712   3.846   3.469  15.736  0.2238  0.1360  0.5346
 3766TIP3    H132713   3.845   3.479  15.831 -0.7680  0.4690  0.4994
 3766TIP3    H232714   3.854   3.558  15.702  0.7270  0.0063  0.3038
 3767TIP3   OH232715   4.929   0.040  11.417  0.2710  0.4930  0.3199
 3767TIP3    H132716   4.987   0.010  11.347 -0.0698 -0.7016  0.5195
 3767TIP3    H232717   4.965   0.124  11.445 -0.0929  1.4454 -1.8695
 3768TIP3   OH232718   5.837   2.623  11.404 -0.3172  0.2620  0.0824
 3768TIP3    H132719   5.893   2.629  11.326 -0.5688  2.3667 -0.0084
 3768TIP3    H232720   5.813   2.714  11.423 -2.2247 -0.4102  1.2100
 3769TIP3   OH232721   1.009   4.249  14.105  0.3464  0.0943  0.5679
 3769TIP3    H132722   0.980   4.335  14.075  0.2191  0.5446  1.8892
 3769TIP3    H232723   0.969   4.239  14.192  1.3636 -0.7488  0.9692
 3770TIP3   OH232724   2.787   3.816  13.688  0.7833 -0.3272 -0.3500
 3770TIP3    H132725   2.779   3.910  13.705  2.9746 -0.3585  1.3801
 3770TIP3    H232726   2.805   3.810  13.594  0.7731  1.0038 -0.4515
 3771TIP3   OH232727   6.135   2.036   5.487 -0.5713  0.3064 -0.0308
 3771TIP3    H132728   6.064   1.993   5.534 -0.8205 -0.2680 -0.9217
 3771TIP3    H232729   6.103   2.046   5.398  0.5152 -0.0756 -0.4831
 3772TIP3   OH232730   2.225   6.585  13.547  0.1040 -0.5243 -0.0374
 3772TIP3    H132731   2.238   6.571  13.453 -0.9475 -0.3777 -0.2138
 3772TIP3    H232732   2.171   6.510  13.575 -0.3170 -0.1139  0.2691
 3773TIP3   OH232733   0.341   5.611  13.912 -0.9832 -0.4908  0.2063
 3773TIP3    H132734   0.331   5.538  13.851 -2.1788  0.5434 -0.8902
 3773TIP3    H232735   0.268   5.669  13.893  0.2653  1.3135  0.5976
 3774TIP3   OH232736   2.557   5.628  13.381 -0.9085  0.1392 -0.4470
 3774TIP3    H132737   2.549   5.673  13.466 -0.5739  0.2003 -0.4468
 3774TIP3    H232738   2.517   5.689  13.319  1.0611  1.2319 -0.7071
 3775TIP3   OH232739   1.311   3.394   4.437  0.6711  0.3735  0.0016
 3775TIP3    H132740   1.307   3.489   4.452 -0.2623  0.4894 -0.8689
 3775TIP3    H232741   1.323   3.385   4.343 -0.5329 -0.3711 -0.1025
 3776TIP3   OH232742   1.567   5.050  15.947 -0.1980 -0.0647  0.4046
 3776TIP3    H132743   1.572   4.968  15.898 -0.8479  1.2230 -1.9877
 3776TIP3    H232744   1.473   5.072  15.946  0.1946  1.8017 -1.0446
 3777TIP3   OH232745   1.824   6.681   1.608 -0.2615 -0.4022 -0.4246
 3777TIP3    H132746   1.769   6.707   1.534 -0.1869  1.0654 -0.0145
 3777TIP3    H232747   1.765   6.636   1.668 -0.4721 -0.9972 -1.0779
 3778TIP3   OH232748   4.344   5.699  11.442  0.1139  0.6096 -0.3232
 3778TIP3    H132749   4.431   5.680  11.476  0.5656  0.6547 -1.4277
 3778TIP3    H232750   4.316   5.617  11.402 -0.8458  0.2446  1.0184
 3779TIP3   OH232751   5.532   4.096  11.818 -0.1638  0.6837 -0.4831
 3779TIP3    H132752   5.441   4.085  11.789 -0.0899  1.3718 -1.0086
 3779TIP3    H232753   5.524   4.117  11.911 -0.4174 -1.2641 -0.0143
 3780TIP3   OH232754   5.942   0.265   0.211 -0.2713 -0.3672  0.9060
 3780TIP3    H132755   5.987   0.322   0.149 -0.5712 -2.9216 -1.8776
 3780TIP3    H232756   5.879   0.322   0.254  1.1867  1.9101  0.2093
 3781TIP3   OH232757   2.882   1.396  14.099  0.1435 -0.2313 -0.1280
 3781TIP3    H132758   2.948   1.424  14.035  0.1212  0.7712  0.2739
 3781TIP3    H232759   2.874   1.470  14.159 -2.5352  0.3555 -1.0986
 3782TIP3   OH232760   5.472   5.888   0.401  0.3251  0.9283  0.2831
 3782TIP3    H132761   5.421   5.924   0.328  1.4187  0.7221 -0.6028
 3782TIP3    H232762   5.406   5.866   0.467 -0.7864  0.2646 -0.9870
 3783TIP3   OH232763   2.919   4.480   4.204 -0.5220  0.2104 -0.2097
 3783TIP3    H132764   2.970   4.409   4.165 -1.7252 -0.1435 -1.2040
 3783TIP3    H232765   2.846   4.437   4.247  0.8467  0.5803  2.7030
 3784TIP3   OH232766   0.126   1.729   6.012 -0.6851  0.7445 -0.3842
 3784TIP3    H132767   0.150   1.785   5.938  2.1869 -1.5414 -1.4142
 3784TIP3    H232768   0.087   1.652   5.971 -1.0762  0.3753  0.6592
 3785TIP3   OH232769   1.447   5.240  10.300  0.0537  0.8600 -0.0850
 3785TIP3    H132770   1.422   5.331  10.282 -0.6548  0.8644  0.9094
 3785TIP3    H232771   1.385   5.210  10.365 -0.4059 -0.7065 -1.1923
 3786TIP3   OH232772   6.127   0.043   1.519  0.0884  0.3310 -0.5134
 3786TIP3    H132773   6.216   0.037   1.553  0.9759 -0.4074 -2.7729
 3786TIP3    H232774   6.072   0.053   1.597  2.1610  1.3554  0.9252
 3787TIP3   OH232775   3.187   2.535   5.968  0.0344 -0.2292  0.1977
 3787TIP3    H132776   3.212   2.452   6.009 -0.4736 -0.8071 -0.6297
 3787TIP3    H232777   3.095   2.546   5.992  0.3828  0.6795  1.2303
 3788TIP3   OH232778   1.685   3.178  15.234 -0.0192 -0.0238  0.0315
 3788TIP3    H132779   1.736   3.127  15.171  1.6733 -1.3504  2.3415
 3788TIP3    H232780   1.630   3.235  15.180  1.5836 -0.8353 -2.6123
 3789TIP3   OH232781   5.970   6.624  14.123 -0.4851 -0.0409 -0.3005
 3789TIP3    H132782   6.001   6.702  14.078 -1.2435 -0.3936 -1.4809
 3789TIP3    H232783   6.000   6.551  14.069  0.3443 -0.6004  0.8603
 3790TIP3   OH232784   5.610   5.216  12.082  0.2847 -0.1760  0.8383
 3790TIP3    H132785   5.556   5.261  12.017  0.8880  1.6256  1.5340
 3790TIP3    H232786   5.552   5.150  12.119 -0.5338 -0.2139 -0.4436
 3791TIP3   OH232787   5.602   2.940  16.298  0.4353 -0.0759 -0.4349
 3791TIP3    H132788   5.603   3.023  16.249  1.7350  1.6767  2.3010
 3791TIP3    H232789   5.607   2.872  16.231  1.7898  2.1369 -2.7422
 3792TIP3   OH232790   5.792   4.961   6.766  0.1721  0.0298 -0.3799
 3792TIP3    H132791   5.732   4.886   6.764  0.7445 -0.5725  1.9336
 3792TIP3    H232792   5.737   5.037   6.751 -1.0064 -0.6153  0.5193
 3793TIP3   OH232793   4.567   0.986  11.163 -0.4565  0.6934 -0.2747
 3793TIP3    H132794   4.612   0.922  11.107 -1.1108 -1.6054  1.6931
 3793TIP3    H232795   4.626   1.062  11.163  1.2618 -0.5493 -1.2703
 3794TIP3   OH232796   6.162   3.872   1.080 -0.3640  0.3241 -0.7722
 3794TIP3    H132797   6.215   3.853   1.003 -0.0098 -0.7543 -0.2779
 3794TIP3    H232798   6.077   3.898   1.044  0.1117  0.8915 -1.5363
 3795TIP3   OH232799   0.333   0.471   1.481  0.4080  0.0540  0.0549
 3795TIP3    H132800   0.328   0.381   1.451  1.5394  0.5854 -1.8652
 3795TIP3    H232801   0.424   0.497   1.466  0.5607  0.9920  2.2284
 3796TIP3   OH232802   1.288   0.580  12.687  0.3829  0.3428 -0.4053
 3796TIP3    H132803   1.354   0.518  12.717  1.2444  0.7431 -1.3995
 3796TIP3    H232804   1.336   0.641  12.631 -0.8062  0.7257 -1.0473
 3797TIP3   OH232805   2.193   4.511  12.784 -0.5265 -0.2261 -0.2271
 3797TIP3    H132806   2.098   4.522  12.778 -0.6170 -1.2596 -0.8880
 3797TIP3    H232807   2.229   4.581  12.730 -0.8882  0.4084  0.3332
 3798TIP3   OH232808   4.666   4.004   1.094  0.3792 -0.1071 -0.1615
 3798TIP3    H132809   4.658   4.084   1.147 -0.9816  0.1678 -0.7417
 3798TIP3    H232810   4.652   4.034   1.004  2.1489 -0.6502 -0.6547
 3799TIP3   OH232811   0.676   3.299  16.724  0.6429  0.0576  0.2437
 3799TIP3    H132812   0.715   3.267  16.642 -1.4615 -1.5988 -0.1857
 3799TIP3    H232813   0.683   3.225  16.784 -0.0924  0.4077  0.7727
 3800TIP3   OH232814   1.186   4.642   5.899 -0.2029 -0.3820  0.4145
 3800TIP3    H132815   1.113   4.692   5.935 -0.1669 -0.6793  0.9130
 3800TIP3    H232816   1.261   4.701   5.905 -0.0368 -0.6719  1.5418
 3801TIP3   OH232817   2.398   3.539  10.995 -0.2413 -0.1028 -0.4800
 3801TIP3    H132818   2.489   3.511  10.985  0.1297  0.9553 -0.2030
 3801TIP3    H232819   2.356   3.516  10.912 -0.2588 -2.4644  0.1241
 3802TIP3   OH232820   6.456   6.461   1.258 -0.0613 -0.4242 -0.0795
 3802TIP3    H132821   6.431   6.550   1.283 -2.2683 -1.4266  1.5822
 3802TIP3    H232822   6.442   6.459   1.163  0.6306  1.1564 -0.2483
 3803TIP3   OH232823   6.131   4.498  15.077 -0.0819  0.7569  0.5866
 3803TIP3    H132824   6.197   4.462  15.137  0.1064  0.1146  0.0012
 3803TIP3    H232825   6.104   4.580  15.118 -1.5535 -0.6769  2.7013
 3804TIP3   OH232826   3.779   5.686  14.497  0.1472  0.3512 -0.5201
 3804TIP3    H132827   3.874   5.678  14.489  0.2925  0.5503  0.7858
 3804TIP3    H232828   3.746   5.598  14.482  0.9269 -0.8063  3.4518
 3805TIP3   OH232829   3.534   0.548   4.164  0.0629  0.3268  0.0733
 3805TIP3    H132830   3.477   0.476   4.138 -0.0086 -0.2353  1.6807
 3805TIP3    H232831   3.542   0.602   4.085  0.3089 -1.5493 -1.2443
 3806TIP3   OH232832   3.090   1.693   2.715  0.1198 -0.6385 -0.1561
 3806TIP3    H132833   3.181   1.671   2.734  0.2125 -0.5489 -0.4843
 3806TIP3    H232834   3.086   1.789   2.724  0.5494 -0.3870 -2.0872
 3807TIP3   OH232835   3.364   4.771   6.344 -0.2289 -0.9938  0.3734
 3807TIP3    H132836   3.375   4.781   6.250  0.3734 -0.0437  0.5393
 3807TIP3    H232837   3.283   4.721   6.353  0.3193 -2.1248 -0.6694
 3808TIP3   OH232838   5.425   3.502   3.915 -0.7502  0.2244  0.3849
 3808TIP3    H132839   5.381   3.447   3.850 -1.5196  1.8629 -0.5676
 3808TIP3    H232840   5.507   3.529   3.873 -0.5113  0.0428  0.7280
 3809TIP3   OH232841   6.548   6.133  16.538 -0.9754 -0.4606 -0.1763
 3809TIP3    H132842   6.567   6.221  16.506  1.8955 -1.0023 -0.2320
 3809TIP3    H232843   6.483   6.099  16.477 -1.1885  1.1746 -0.9024
 3810TIP3   OH232844   4.154   4.355  13.605 -0.3237 -0.3418 -0.4370
 3810TIP3    H132845   4.250   4.351  13.608 -0.3622 -1.0902  0.0771
 3810TIP3    H232846   4.132   4.440  13.642  0.1102 -0.5474  0.3088
 3811TIP3   OH232847   0.652   5.078  15.656  0.2450 -0.3732  0.3268
 3811TIP3    H132848   0.618   4.988  15.658  1.6357 -0.9239  0.5554
 3811TIP3    H232849   0.703   5.085  15.737  0.9736  0.2909 -0.1870
 3812TIP3   OH232850   1.665   4.509   3.555 -0.3075  0.4472  0.1462
 3812TIP3    H132851   1.592   4.450   3.537  1.1136 -1.1735 -0.5593
 3812TIP3    H232852   1.626   4.596   3.556 -2.1067 -0.2983 -0.9581
 3813TIP3   OH232853   5.332   2.679   3.257 -0.4409 -0.3930 -0.0664
 3813TIP3    H132854   5.245   2.703   3.226 -0.2590 -0.0391 -0.3016
 3813TIP3    H232855   5.392   2.711   3.190  0.0971  1.8003  1.3691
 3814TIP3   OH232856   5.610   2.541   1.299 -0.1836 -0.0968  0.1882
 3814TIP3    H132857   5.577   2.557   1.211 -0.7687  0.9373  0.5830
 3814TIP3    H232858   5.643   2.451   1.296 -0.1187 -0.0511 -1.1001
 3815TIP3   OH232859   0.661   1.461   2.152  0.2985  0.1064 -0.0718
 3815TIP3    H132860   0.669   1.555   2.133 -1.0767  0.5003  1.1537
 3815TIP3    H232861   0.694   1.452   2.241  2.1960 -0.9235 -0.8332
 3816TIP3   OH232862   2.772   4.834  17.101  0.0834  0.6983 -0.2828
 3816TIP3    H132863   2.842   4.865  17.044  0.0944  1.6613  0.2311
 3816TIP3    H232864   2.780   4.888  17.180  0.6013 -1.1860  0.9980
 3817TIP3   OH232865   0.496   5.543  12.134  0.5564 -0.0436  0.2554
 3817TIP3    H132866   0.525   5.461  12.095 -0.9641 -0.3746 -0.2398
 3817TIP3    H232867   0.577   5.590  12.154  1.4340 -0.8188 -1.2673
 3818TIP3   OH232868   5.929   0.434   3.566  0.2827  0.3372  0.0001
 3818TIP3    H132869   5.882   0.382   3.631  1.0407  0.4872  0.6894
 3818TIP3    H232870   5.939   0.520   3.606 -0.6052  0.9157 -0.9717
 3819TIP3   OH232871   0.630   4.110   2.331  0.2865 -0.1828  1.0514
 3819TIP3    H132872   0.701   4.064   2.285  0.1069  1.4172 -0.9864
 3819TIP3    H232873   0.566   4.041   2.351  0.7439 -1.1042 -0.4477
 3820TIP3   OH232874   6.189   1.457   3.869  0.1530  0.5663  0.5264
 3820TIP3    H132875   6.135   1.390   3.913 -1.5777  3.0503  2.4950
 3820TIP3    H232876   6.270   1.459   3.919  2.2168 -2.8997 -2.1964
 3821TIP3   OH232877   3.639   4.072   5.019 -0.1694 -0.3662  0.3615
 3821TIP3    H132878   3.650   3.978   5.025  1.6935 -0.1178  2.0684
 3821TIP3    H232879   3.706   4.108   5.078 -0.2456  2.0462 -0.8873
 3822TIP3   OH232880   1.785   0.080   3.364  0.3661  0.2983  0.2061
 3822TIP3    H132881   1.821   0.154   3.412  0.6059 -0.0309  0.5368
 3822TIP3    H232882   1.857   0.017   3.358  0.1876  0.1170 -0.1323
 3823TIP3   OH232883   3.495   5.174   3.448  0.1735  0.2600  0.3742
 3823TIP3    H132884   3.550   5.101   3.476 -1.0677 -0.6989  0.4267
 3823TIP3    H232885   3.553   5.250   3.450  1.1314 -0.4592  1.7303
 3824TIP3   OH232886   6.032   2.934   2.519 -0.1066 -0.2549 -0.2646
 3824TIP3    H132887   6.058   3.009   2.573 -0.9132  0.9268 -1.4705
 3824TIP3    H232888   6.008   2.972   2.435  0.1144 -1.9610 -1.1268
 3825TIP3   OH232889   3.266   2.913  14.323  0.0415 -0.0281 -0.1833
 3825TIP3    H132890   3.191   2.854  14.335 -0.3219  0.7187  1.4462
 3825TIP3    H232891   3.285   2.946  14.410  1.2864  1.0192 -0.8146
 3826TIP3   OH232892   2.583   6.522  16.495 -0.3012  0.0388  0.2211
 3826TIP3    H132893   2.563   6.468  16.418 -2.1835  0.5320  0.3186
 3826TIP3    H232894   2.641   6.467  16.548 -0.2364 -0.9264 -0.8012
 3827TIP3   OH232895   0.445   0.951  16.784 -0.8576  0.2632  0.2494
 3827TIP3    H132896   0.414   0.860  16.781 -1.3828  0.4493 -0.0600
 3827TIP3    H232897   0.407   0.992  16.706  0.5076  0.3979 -0.3853
 3828TIP3   OH232898   4.248   2.026   2.173 -0.4475 -0.3470 -0.1561
 3828TIP3    H132899   4.204   1.964   2.115  1.0619  0.6282 -2.5017
 3828TIP3    H232900   4.276   2.097   2.115  3.1804 -0.3553  1.3282
 3829TIP3   OH232901   1.494   3.344   5.845 -0.4342 -0.0412  0.2052
 3829TIP3    H132902   1.431   3.278   5.817 -0.6558 -0.2823  1.2295
 3829TIP3    H232903   1.441   3.412   5.888  0.0511 -0.6967  1.9190
 3830TIP3   OH232904   5.423   6.791  11.261  0.2084  0.1565 -0.9550
 3830TIP3    H132905   5.420   6.698  11.283  0.0422  0.0306 -1.4990
 3830TIP3    H232906   5.472   6.795  11.179  0.0050  0.5221 -1.0619
 3831TIP3   OH232907   6.790   0.999  11.752  0.1683 -0.4533  0.0277
 3831TIP3    H132908   6.745   1.060  11.810  2.2522  0.4398  0.7962
 3831TIP3    H232909   6.725   0.977  11.685 -1.0476  1.5885  0.4584
 3832TIP3   OH232910   1.081   1.259  16.185  0.5301  0.1614 -0.3757
 3832TIP3    H132911   1.002   1.211  16.209  0.4700  0.4416 -0.0044
 3832TIP3    H232912   1.061   1.350  16.206  1.4043  0.0783  0.9701
 3833TIP3   OH232913   6.398   6.339  11.645 -0.1491  0.6241 -0.1587
 3833TIP3    H132914   6.340   6.387  11.587  0.5028  1.2950 -0.2769
 3833TIP3    H232915   6.466   6.402  11.669  0.3990 -0.0661  0.1671
 3834TIP3   OH232916   5.109   2.337  13.450 -0.0333  0.1400  0.4109
 3834TIP3    H132917   5.176   2.381  13.398  0.4747 -0.0346  0.9029
 3834TIP3    H232918   5.145   2.249  13.465 -1.4588 -0.8060 -1.3949
 3835TIP3   OH232919   1.309   4.338  16.453 -0.7892  0.5250  0.3158
 3835TIP3    H132920   1.266   4.421  16.434 -3.1012 -0.6954 -0.0833
 3835TIP3    H232921   1.402   4.356  16.439 -1.1831  3.1150  0.6047
 3836TIP3   OH232922   0.060   3.864   5.515 -0.4705  0.2448 -0.4325
 3836TIP3    H132923  -0.013   3.846   5.456 -0.3718  3.4138 -1.6902
 3836TIP3    H232924   0.033   3.942   5.564  1.5714  0.7735 -0.0399
 3837TIP3   OH232925   4.519   3.256   1.273  0.2218  0.2147  0.4521
 3837TIP3    H132926   4.458   3.195   1.231  1.7414 -0.7104 -0.5454
 3837TIP3    H232927   4.577   3.283   1.202  2.9385 -1.4238  1.9136
 3838TIP3   OH232928   1.248   3.662  14.128  0.2039  0.1382  0.5451
 3838TIP3    H132929   1.168   3.633  14.084 -0.6928  2.0531  0.8272
 3838TIP3    H232930   1.315   3.658  14.061 -0.3792 -0.2994 -0.0295
 3839TIP3   OH232931   3.707   0.225  14.299  0.2070 -0.3770  0.1097
 3839TIP3    H132932   3.621   0.265  14.287 -0.5541 -1.8355  0.4506
 3839TIP3    H232933   3.760   0.293  14.342 -1.5862 -0.2978  2.3818
 3840TIP3   OH232934   0.445   1.649  11.173  0.1612  0.2063 -0.4050
 3840TIP3    H132935   0.520   1.707  11.155 -0.2956  0.6769 -0.8545
 3840TIP3    H232936   0.482   1.576  11.222  0.4079  1.9208  2.1172
 3841TIP3   OH232937   6.215   1.945  14.250 -0.4678 -0.2078 -0.1019
 3841TIP3    H132938   6.187   1.855  14.265 -0.3397 -0.4177 -1.0486
 3841TIP3    H232939   6.310   1.939  14.242 -0.5741 -0.2782 -1.8447
 3842TIP3   OH232940   0.460   1.488  12.326 -0.5303  0.9022 -0.1328
 3842TIP3    H132941   0.378   1.535  12.310 -1.5516 -0.0179  1.9755
 3842TIP3    H232942   0.432   1.406  12.367  1.4715  0.7961  1.1289
 3843TIP3   OH232943   2.154   4.459  15.134 -0.4445 -0.4285 -0.0876
 3843TIP3    H132944   2.188   4.514  15.205 -0.2431  0.0691 -0.5615
 3843TIP3    H232945   2.121   4.380  15.178  0.5758 -0.5612  0.4700
 3844TIP3   OH232946   0.519   0.904   0.230 -0.0873 -0.5055  0.1287
 3844TIP3    H132947   0.453   0.974   0.235  0.5082  0.1359 -0.7269
 3844TIP3    H232948   0.470   0.828   0.199 -0.6222 -0.2947  0.4391
 3845TIP3   OH232949   2.713   0.520  14.374 -0.4148 -0.2432 -0.2902
 3845TIP3    H132950   2.773   0.500  14.301 -0.4699  0.2600 -0.4746
 3845TIP3    H232951   2.709   0.615  14.376 -1.1812 -0.2766 -0.2457
 3846TIP3   OH232952   3.842   0.479   0.395 -0.2837  0.0737 -0.2010
 3846TIP3    H132953   3.841   0.482   0.299  0.0586 -0.2537 -0.2157
 3846TIP3    H232954   3.898   0.552   0.421  0.6035 -0.5661 -0.2893
 3847TIP3   OH232955   1.538   4.684  13.138  0.0591  0.1895  0.3567
 3847TIP3    H132956   1.544   4.777  13.160  3.1586  0.2389 -0.3836
 3847TIP3    H232957   1.594   4.641  13.202  1.6067 -0.7083 -1.5100
 3848TIP3   OH232958   6.157   0.631   5.377  0.2396  0.5394 -1.0761
 3848TIP3    H132959   6.085   0.570   5.365  1.3758 -0.9996 -0.4286
 3848TIP3    H232960   6.184   0.655   5.288 -0.9914  1.0834 -1.3215
 3849TIP3   OH232961   2.136   4.180   3.580 -0.1581 -0.1778 -0.1515
 3849TIP3    H132962   2.137   4.260   3.527 -0.2859 -0.9276 -1.3342
 3849TIP3    H232963   2.219   4.181   3.627 -0.4772  1.0034  0.4196
 3850TIP3   OH232964   2.879   4.149  11.898  0.8649 -0.1591  0.3674
 3850TIP3    H132965   2.884   4.230  11.847  1.6148 -0.7601 -0.5375
 3850TIP3    H232966   2.956   4.099  11.872 -1.0250 -2.4288 -1.2647
 3851TIP3   OH232967   0.951   2.606  13.041 -0.2448  0.3923  0.4768
 3851TIP3    H132968   1.001   2.673  12.994 -1.4031  0.4217 -0.8198
 3851TIP3    H232969   0.926   2.543  12.973  1.8187 -2.0828  1.8423
 3852TIP3   OH232970   5.570   2.815   4.621  0.6074 -0.2898 -0.2837
 3852TIP3    H132971   5.541   2.742   4.567  1.6345 -1.0309  0.1382
 3852TIP3    H232972   5.543   2.793   4.710 -0.9773  0.8750 -0.4328
 3853TIP3   OH232973   4.968   1.251  11.573  0.3099  0.1217 -0.3831
 3853TIP3    H132974   4.889   1.275  11.524  1.1768  2.1652 -0.8582
 3853TIP3    H232975   4.954   1.285  11.661  0.9332  1.1393 -0.6617
 3854TIP3   OH232976   6.594   6.566   3.900 -0.4803  0.9262  0.3413
 3854TIP3    H132977   6.598   6.627   3.826  0.8559 -0.3254 -0.6793
 3854TIP3    H232978   6.537   6.495   3.869 -2.2920  1.7406  1.6420
 3855TIP3   OH232979   2.877   4.217   1.717  0.1189  0.1787  0.1224
 3855TIP3    H132980   2.802   4.182   1.765 -0.2873 -1.2810 -1.4681
 3855TIP3    H232981   2.942   4.147   1.719  0.6748  0.6761 -0.1853
 3856TIP3   OH232982   6.244   4.825  13.521 -0.0372 -0.1111 -0.6772
 3856TIP3    H132983   6.314   4.857  13.464 -0.7642 -0.2239 -1.6495
 3856TIP3    H232984   6.166   4.825  13.466 -0.6178 -0.8701  0.1197
 3857TIP3   OH232985   4.744   2.239  13.047 -0.0900  0.4115  0.2634
 3857TIP3    H132986   4.828   2.193  13.054 -0.3342  0.1579  2.1872
 3857TIP3    H232987   4.739   2.292  13.127 -1.3978  1.0660 -0.2219
 3858TIP3   OH232988   4.751   6.021  13.963  0.0828  0.7252 -0.4287
 3858TIP3    H132989   4.742   5.966  14.040  0.2866 -0.0250 -0.9346
 3858TIP3    H232990   4.836   6.063  13.973  1.6841 -1.9249 -1.8342
 3859TIP3   OH232991   1.424   2.392  13.878 -0.6598  0.0891  0.0341
 3859TIP3    H132992   1.355   2.360  13.937 -0.7081  0.2264  0.0546
 3859TIP3    H232993   1.471   2.457  13.931 -2.1956  2.0116 -0.8005
 3860TIP3   OH232994   1.859   3.983   5.629  0.2076  0.1944  0.5264
 3860TIP3    H132995   1.949   4.009   5.607  0.2907  0.0333  0.6717
 3860TIP3    H232996   1.864   3.889   5.643 -0.3674 -0.1564 -1.3539
 3861TIP3   OH232997   0.465   3.423  12.756  0.0581  0.1800 -0.6084
 3861TIP3    H132998   0.489   3.514  12.773  1.1893 -0.1355 -0.4291
 3861TIP3    H232999   0.374   3.417  12.785  0.1321  1.1136 -0.1182
 3862TIP3   OH233000   1.858   1.954  11.353  0.3813 -0.3229 -0.7351
 3862TIP3    H133001   1.846   2.038  11.396  1.5522 -0.1279 -0.7495
 3862TIP3    H233002   1.847   1.972  11.260 -1.0422 -0.5322 -0.6348
 3863TIP3   OH233003   3.887   6.781   0.004 -0.0662  0.0032 -0.0948
 3863TIP3    H133004   3.879   6.815   0.093 -1.6105 -0.1377 -0.1441
 3863TIP3    H233005   3.811   6.722  -0.006  0.9838 -1.2648 -0.9531
 3864TIP3   OH233006   0.311   6.229   3.912  0.1362  0.5008 -0.4167
 3864TIP3    H133007   0.401   6.227   3.946  0.8097  2.4860 -1.8312
 3864TIP3    H233008   0.322   6.224   3.817 -1.4463 -1.3842 -0.5515
 3865TIP3   OH233009   5.634   0.561   4.406  0.6432 -0.3903 -0.2775
 3865TIP3    H133010   5.570   0.613   4.356 -0.5770 -0.4515  1.1428
 3865TIP3    H233011   5.687   0.626   4.451 -2.2157 -0.1538  3.1832
 3866TIP3   OH233012   2.018   2.309  10.777 -0.0670 -0.4857  0.1347
 3866TIP3    H133013   2.065   2.287  10.857  0.1929  1.7896  0.6744
 3866TIP3    H233014   1.928   2.328  10.805  0.2784  1.3575  0.0973
 3867TIP3   OH233015   1.042   0.354  13.572 -0.0239 -0.1488 -0.2641
 3867TIP3    H133016   1.069   0.402  13.494  0.4488 -1.5872 -1.0069
 3867TIP3    H233017   1.112   0.371  13.635  0.6024 -0.5884 -0.8285
 3868TIP3   OH233018   0.784   3.193  13.599 -0.4620  0.5231 -0.0042
 3868TIP3    H133019   0.803   3.193  13.693 -1.9691  0.9161  0.3255
 3868TIP3    H233020   0.869   3.210  13.557  0.1355  0.8623  1.2942
 3869TIP3   OH233021   2.590   2.578  13.793  0.4809 -0.0351  0.1368
 3869TIP3    H133022   2.528   2.509  13.812  1.9679 -0.9830  1.8452
 3869TIP3    H233023   2.565   2.651  13.850  0.5022 -0.1618  0.3094
 3870TIP3   OH233024   6.149   6.671   1.229 -0.0547 -0.1318  0.1598
 3870TIP3    H133025   6.064   6.661   1.272 -1.6617  1.3255 -2.4172
 3870TIP3    H233026   6.131   6.722   1.150  3.4870  1.5969  0.2566
 3871TIP3   OH233027   1.310   4.542  13.105  1.1787 -0.7756 -0.4249
 3871TIP3    H133028   1.257   4.610  13.147  0.4146 -1.1132 -0.8061
 3871TIP3    H233029   1.397   4.580  13.099  1.0962 -0.3745  0.6378
 3872TIP3   OH233030   2.556   0.143   3.414 -0.1959 -0.3144 -0.2970
 3872TIP3    H133031   2.639   0.186   3.396  0.0155  0.3511  1.9738
 3872TIP3    H233032   2.575   0.049   3.407  0.3461 -0.1379 -1.2840
 3873TIP3   OH233033   6.373   4.912  14.375 -0.4315  0.5119 -0.1067
 3873TIP3    H133034   6.446   4.942  14.321  0.2572  0.2369  0.6467
 3873TIP3    H233035   6.324   4.991  14.396  1.7182  1.3179  2.3877
 3874TIP3   OH233036   6.574   6.015  12.178  0.0139  0.3107 -0.5838
 3874TIP3    H133037   6.665   6.018  12.150  0.5121  1.9938  0.9952
 3874TIP3    H233038   6.578   5.979  12.267 -0.6889  1.6120 -0.0065
 3875TIP3   OH233039   4.440   6.696  10.372  0.0644 -0.1447 -0.5109
 3875TIP3    H133040   4.483   6.701  10.458 -1.2508 -2.6807  0.4111
 3875TIP3    H233041   4.380   6.770  10.371 -0.8764 -0.8114  1.4040
 3876TIP3   OH233042   5.864   2.100  11.868 -0.3648  0.6532  0.2463
 3876TIP3    H133043   5.919   2.058  11.934 -0.5363 -0.7928 -0.5087
 3876TIP3    H233044   5.784   2.047  11.865 -0.8910  1.4396 -0.2494
 3877TIP3   OH233045   5.762   6.429   2.220  0.6339  0.3490 -0.0204
 3877TIP3    H133046   5.851   6.394   2.222  0.3752 -0.4692 -1.2851
 3877TIP3    H233047   5.719   6.390   2.295  0.7032 -1.1530 -0.7189
 3878TIP3   OH233048   0.555   5.417   5.134 -0.0819 -0.3905 -0.0430
 3878TIP3    H133049   0.590   5.494   5.179 -0.4433  0.1392 -0.6351
 3878TIP3    H233050   0.462   5.415   5.159 -0.2968 -0.0617 -0.7830
 3879TIP3   OH233051   5.156   1.238  12.352 -0.0568 -0.2743  0.2572
 3879TIP3    H133052   5.111   1.271  12.429 -2.1892 -1.1074 -0.5707
 3879TIP3    H233053   5.151   1.142  12.360  1.7870 -0.4240  0.2141
 3880TIP3   OH233054   3.637   4.650   1.266 -0.4188  0.5936  0.3038
 3880TIP3    H133055   3.640   4.637   1.361 -2.4012  2.4961  0.7201
 3880TIP3    H233056   3.644   4.562   1.229  1.0808 -0.1347  2.1568
 3881TIP3   OH233057   4.793   1.883   2.320 -0.1674  0.4089 -0.9851
 3881TIP3    H133058   4.879   1.889   2.278  0.6752  0.7879  0.6880
 3881TIP3    H233059   4.730   1.889   2.248  1.1942  0.4588 -2.2157
 3882TIP3   OH233060   0.992   2.990  10.771 -0.2195 -0.7608  0.0977
 3882TIP3    H133061   1.080   2.995  10.734  0.6013  0.1782  1.9865
 3882TIP3    H233062   0.937   3.040  10.711  1.0743  0.8512  0.1806
 3883TIP3   OH233063   5.028   1.493   5.208  0.1995  0.5549 -0.2671
 3883TIP3    H133064   5.124   1.498   5.214  0.1399  0.8390  0.6070
 3883TIP3    H233065   4.997   1.533   5.290 -0.6871  1.3317 -0.9639
 3884TIP3   OH233066   6.123   2.145  11.591  0.2245 -0.0182  0.0631
 3884TIP3    H133067   6.114   2.122  11.683 -1.3827 -0.3565 -0.1442
 3884TIP3    H233068   6.114   2.062  11.544 -3.3172  0.5738 -0.5754
 3885TIP3   OH233069   5.153   3.248   4.513  0.0582 -0.6153 -0.1441
 3885TIP3    H133070   5.214   3.180   4.486 -0.5017 -1.8310  1.5093
 3885TIP3    H233071   5.135   3.230   4.606 -4.3218 -1.5621 -0.9551
 3886TIP3   OH233072   2.764   6.518  12.124 -0.5768 -0.9202 -0.9948
 3886TIP3    H133073   2.689   6.502  12.181  0.5471 -3.0307  0.0164
 3886TIP3    H233074   2.753   6.457  12.051 -1.3233  0.8490 -2.4287
 3887TIP3   OH233075   3.829   0.940  14.272 -0.1255  0.4452  0.3584
 3887TIP3    H133076   3.817   0.959  14.366 -0.1955 -1.8926  0.8731
 3887TIP3    H233077   3.810   1.024  14.229 -0.7135  1.4326  2.3736
 3888TIP3   OH233078   4.197   5.011   1.206 -0.8543  0.1452  0.1092
 3888TIP3    H133079   4.169   4.991   1.116  0.4543 -0.4297 -0.1862
 3888TIP3    H233080   4.127   4.976   1.261 -1.5446  0.2690 -0.6700
 3889TIP3   OH233081   4.125   4.596  12.589 -0.3375  0.0671  0.3208
 3889TIP3    H133082   4.084   4.552  12.664 -1.2355 -0.2147 -0.3187
 3889TIP3    H233083   4.052   4.620  12.533  0.2059  1.6980  0.2723
 3890TIP3   OH233084   3.099   2.664  10.979  0.1333 -0.0479  0.1942
 3890TIP3    H133085   3.074   2.571  10.977  0.6580 -0.1891 -0.2007
 3890TIP3    H233086   3.033   2.707  10.924 -0.9415  0.0388  1.5053
 3891TIP3   OH233087   4.795   0.791   1.751  0.2160 -0.2129 -0.2067
 3891TIP3    H133088   4.807   0.882   1.778  0.7327 -0.8868  2.0976
 3891TIP3    H233089   4.705   0.787   1.719 -0.2786  0.8448  0.9692
 3892TIP3   OH233090   5.440   0.085   2.483 -0.0551  0.6163 -0.1715
 3892TIP3    H133091   5.491   0.036   2.547 -2.2208 -1.4217  0.1263
 3892TIP3    H233092   5.437   0.174   2.519  1.9822  0.4745  0.5149
 3893TIP3   OH233093   6.673   3.169  16.182  0.1994 -0.0328 -0.1266
 3893TIP3    H133094   6.592   3.206  16.215 -0.0089 -0.0447 -0.6165
 3893TIP3    H233095   6.678   3.199  16.091  0.7242 -0.0615 -0.1074
 3894TIP3   OH233096   0.729   2.480   5.565 -0.6910  0.3050 -0.3672
 3894TIP3    H133097   0.715   2.522   5.649 -2.4492 -0.0660 -0.4378
 3894TIP3    H233098   0.815   2.511   5.536 -0.1438  0.5783  1.4595
 3895TIP3   OH233099   0.451   0.116  14.638 -0.1473 -0.4085  0.2577
 3895TIP3    H133100   0.384   0.069  14.589 -0.2250  0.2687 -0.3077
 3895TIP3    H233101   0.476   0.057  14.709 -2.2429 -0.1939  1.2454
 3896TIP3   OH233102   3.503   0.070   6.356 -0.5381 -0.2312 -0.0794
 3896TIP3    H133103   3.456  -0.006   6.390  0.3547 -1.0828 -0.7094
 3896TIP3    H233104   3.434   0.132   6.332 -1.3075 -1.0945 -0.1595
 3897TIP3   OH233105   1.061   4.696   1.785 -0.1172 -0.2737 -0.1862
 3897TIP3    H133106   1.073   4.773   1.729  0.2600 -0.8250 -0.8951
 3897TIP3    H233107   1.027   4.730   1.867 -0.2445  0.6156 -0.5970
 3898TIP3   OH233108   0.467   6.426   2.286 -0.2033  0.0557 -0.0787
 3898TIP3    H133109   0.475   6.331   2.290  0.2048  0.0646 -0.6165
 3898TIP3    H233110   0.557   6.458   2.275 -0.3359  0.5036  0.0915
 3899TIP3   OH233111   3.757   1.774   0.188 -0.2765 -0.2316 -0.6312
 3899TIP3    H133112   3.791   1.718   0.257  0.0904  1.6178  0.7676
 3899TIP3    H233113   3.674   1.806   0.222 -0.8734 -0.5413 -1.7564
 3900TIP3   OH233114   3.877   4.267  12.029  0.0903 -0.5331  0.5366
 3900TIP3    H133115   3.886   4.280  11.935 -1.8286 -0.8145  0.2747
 3900TIP3    H233116   3.920   4.343  12.068 -0.5813  0.4833 -0.6224
 3901TIP3   OH233117   6.802   1.740   0.321  0.1214  0.1274 -0.4284
 3901TIP3    H133118   6.822   1.656   0.362 -1.7075  0.0712  0.4489
 3901TIP3    H233119   6.853   1.804   0.372 -0.5700 -0.1750  0.6919
 3902TIP3   OH233120   6.600   6.013  14.479  0.0931  0.5581  0.6081
 3902TIP3    H133121   6.605   5.923  14.447 -0.6282  1.4672 -2.3192
 3902TIP3    H233122   6.510   6.022  14.511  0.6581 -0.1891  2.5779
 3903TIP3   OH233123   5.686   1.366  15.689 -0.3057  0.4775 -0.3911
 3903TIP3    H133124   5.779   1.344  15.684 -0.1681  0.7746  0.6572
 3903TIP3    H233125   5.647   1.295  15.741 -0.7978  0.0120 -1.3592
 3904TIP3   OH233126   4.925   4.924   2.849 -0.4396  0.3340  0.0494
 3904TIP3    H133127   4.999   4.894   2.902 -0.8847 -0.2549  0.3602
 3904TIP3    H233128   4.936   4.881   2.765  0.0892  1.0083 -0.2306
 3905TIP3   OH233129   1.745   0.128   2.438  0.1166 -0.1018 -0.3518
 3905TIP3    H133130   1.721   0.161   2.352 -1.3632 -0.1650  0.0035
 3905TIP3    H233131   1.732   0.033   2.431 -1.7052  0.0476  0.3986
 3906TIP3   OH233132   4.117   4.020  16.105  0.7429  0.3335 -0.0938
 3906TIP3    H133133   4.140   3.942  16.157  2.2977  1.9527  1.8050
 3906TIP3    H233134   4.189   4.081  16.120 -1.0702  2.6944 -0.3722
 3907TIP3   OH233135   1.918   1.012  14.593  0.2568 -0.0558 -0.1512
 3907TIP3    H133136   2.007   0.987  14.566 -1.0023 -1.5264 -3.5487
 3907TIP3    H233137   1.913   1.106  14.574  1.1077  0.0567  0.1492
 3908TIP3   OH233138   6.639   5.139   0.045 -0.0984 -0.4156  0.6730
 3908TIP3    H133139   6.596   5.207   0.098 -0.5284 -1.5887  1.8977
 3908TIP3    H233140   6.566   5.096  -0.001  0.2389  0.3613 -0.6396
 3909TIP3   OH233141   1.318   4.110  13.393 -0.5932  0.5755 -0.2768
 3909TIP3    H133142   1.323   4.122  13.298 -0.0479  1.1394 -0.1833
 3909TIP3    H233143   1.225   4.094  13.410 -0.6727  0.3221 -0.9188
 3910TIP3   OH233144   3.327   5.052  16.445  0.6005 -0.2134  0.2664
 3910TIP3    H133145   3.346   5.017  16.532 -2.6971  0.7894  1.5653
 3910TIP3    H233146   3.274   4.984  16.403  3.1737 -1.2328 -1.5908
 3911TIP3   OH233147   2.892   6.172  11.673  0.0811  0.0823  0.1513
 3911TIP3    H133148   2.841   6.253  11.668  0.3415  0.2721  0.4295
 3911TIP3    H233149   2.892   6.137  11.584 -0.6331  0.0142  0.1729
 3912TIP3   OH233150   3.124   2.435   2.039 -0.2482 -0.6975 -0.4653
 3912TIP3    H133151   3.037   2.464   2.011  0.3081  0.0981 -1.4629
 3912TIP3    H233152   3.178   2.514   2.033  1.1813 -1.7214 -2.6454
 3913TIP3   OH233153   3.815   2.692  15.687 -0.0098 -0.1442 -0.8123
 3913TIP3    H133154   3.847   2.667  15.773  0.7113  1.8132 -0.4544
 3913TIP3    H233155   3.730   2.731  15.703  0.1950  0.3726 -0.9541
 3914TIP3   OH233156   0.791   3.816  15.257  0.0527 -0.1355  0.1672
 3914TIP3    H133157   0.779   3.749  15.325  1.0189  0.8153  1.3234
 3914TIP3    H233158   0.883   3.812  15.234  0.2946  1.2469  0.7765
 3915TIP3   OH233159   0.300   0.555   0.949  0.6746  0.0733 -0.0396
 3915TIP3    H133160   0.261   0.470   0.971 -0.2610  0.8098  1.2661
 3915TIP3    H233161   0.334   0.543   0.860 -1.0485 -1.1123 -0.5999
 3916TIP3   OH233162   5.960   1.427  13.808  0.3656 -0.2492 -0.4424
 3916TIP3    H133163   6.026   1.496  13.811 -0.4701  0.5900 -0.7302
 3916TIP3    H233164   6.010   1.346  13.813  1.3690  0.3680  0.0046
 3917TIP3   OH233165   6.780   0.332  12.643 -0.0263 -0.0844  0.3791
 3917TIP3    H133166   6.705   0.298  12.595  0.7941 -4.2051  1.6011
 3917TIP3    H233167   6.852   0.328  12.580 -0.3535  1.9841 -0.2015
 3918TIP3   OH233168   6.607   0.999   3.885  0.1148 -0.2926  0.1205
 3918TIP3    H133169   6.595   0.905   3.877 -0.6489 -0.1830 -0.1606
 3918TIP3    H233170   6.601   1.032   3.795 -2.8686  0.3473  0.4313
 3919TIP3   OH233171   1.137   3.770   3.152  0.3251 -0.2084  0.2385
 3919TIP3    H133172   1.079   3.732   3.086  2.1717 -0.7874 -1.1271
 3919TIP3    H233173   1.128   3.864   3.140 -0.3939 -0.2872  0.1114
 3920TIP3   OH233174   2.334   3.079  11.604 -0.0677  0.6524 -0.0218
 3920TIP3    H133175   2.264   3.138  11.631  1.2770  1.9585  0.6913
 3920TIP3    H233176   2.415   3.121  11.632  0.9610 -1.5560  0.5832
 3921TIP3   OH233177   5.815   1.719  16.155  0.4613 -0.1317 -0.5639
 3921TIP3    H133178   5.811   1.794  16.214  0.5787 -0.6813  0.1532
 3921TIP3    H233179   5.892   1.670  16.183 -0.5305 -1.3898  0.0387
 3922TIP3   OH233180   1.264   6.086  13.289 -0.0513 -0.0147 -0.2747
 3922TIP3    H133181   1.233   6.105  13.377  1.2389  1.0779 -0.0115
 3922TIP3    H233182   1.187   6.096  13.233 -0.7145  0.0462  0.6356
 3923TIP3   OH233183   5.117   5.223   0.611 -0.2316 -0.8959 -0.1710
 3923TIP3    H133184   5.026   5.205   0.588 -0.0605  0.7833 -2.5352
 3923TIP3    H233185   5.112   5.285   0.684 -0.8844 -2.2719  1.0212
 3924TIP3   OH233186   0.715   2.654   4.537  0.5373  0.0972  0.3626
 3924TIP3    H133187   0.798   2.698   4.557  0.3335  0.7710 -0.2129
 3924TIP3    H233188   0.737   2.561   4.534  1.1429  0.2172  0.8323
 3925TIP3   OH233189   4.303   5.357   0.514 -0.0858  0.7770 -0.5186
 3925TIP3    H133190   4.274   5.445   0.489  0.8139  0.9812 -0.8994
 3925TIP3    H233191   4.325   5.364   0.607 -0.4947  0.8184 -0.4230
 3926TIP3   OH233192   5.791   2.647   5.431  0.6484  0.0811 -0.6597
 3926TIP3    H133193   5.859   2.693   5.480 -0.5816  0.4118  0.7968
 3926TIP3    H233194   5.783   2.698   5.350 -0.4424  2.3380  0.7683
 3927TIP3   OH233195   1.769   0.721   0.338  0.3629  0.2724 -0.6199
 3927TIP3    H133196   1.790   0.694   0.428  2.3412  2.7443 -0.2191
 3927TIP3    H233197   1.830   0.673   0.283  0.6306  0.3658 -0.4064
 3928TIP3   OH233198   1.884   6.026  12.787 -0.1177 -0.0735 -0.5293
 3928TIP3    H133199   1.857   6.073  12.866  2.4651 -2.0168  1.7085
 3928TIP3    H233200   1.806   5.976  12.763 -0.3946 -1.2449  2.3171
 3929TIP3   OH233201   4.646   3.393   2.594  0.0659  0.0722 -0.0481
 3929TIP3    H133202   4.732   3.394   2.634 -0.0388  1.0234  0.1669
 3929TIP3    H233203   4.663   3.391   2.499  0.3111 -0.3862  0.0017
 3930TIP3   OH233204   2.709   2.615  11.622  0.0908 -0.2084  0.0220
 3930TIP3    H133205   2.765   2.688  11.597 -1.0743  0.3814 -1.0276
 3930TIP3    H233206   2.767   2.539  11.624  1.2492  0.6641  0.7456
 3931TIP3   OH233207   0.946   5.966  14.276  0.3529 -0.2192 -0.4325
 3931TIP3    H133208   0.861   5.927  14.296  0.8042 -1.0558 -0.1160
 3931TIP3    H233209   0.925   6.041  14.220 -0.7258  0.5792  0.9776
 3932TIP3   OH233210   2.930   4.580  16.743 -0.1485 -0.2037 -0.3465
 3932TIP3    H133211   2.942   4.488  16.767  2.2787  0.5533  1.7510
 3932TIP3    H233212   2.954   4.584  16.650 -0.8438 -1.7338 -0.6266
 3933TIP3   OH233213   3.149   0.145   4.097 -0.1965  0.2530  0.4149
 3933TIP3    H133214   3.119   0.055   4.106  1.9267 -0.7092 -1.0624
 3933TIP3    H233215   3.072   0.193   4.067 -1.3695 -1.0576  1.1949
 3934TIP3   OH233216   3.479   4.547   1.907  0.5074  0.4795  0.0660
 3934TIP3    H133217   3.505   4.495   1.831  1.7776 -0.9093  1.3711
 3934TIP3    H233218   3.560   4.559   1.957 -0.6988 -1.4682  2.7978
 3935TIP3   OH233219   4.182   4.556   3.009  0.2952 -0.2925 -0.0986
 3935TIP3    H133220   4.249   4.499   3.048  0.2907 -0.3378 -0.1558
 3935TIP3    H233221   4.118   4.495   2.972  1.2095 -0.3137 -1.7891
 3936TIP3   OH233222   0.504   1.914   3.440  0.8502 -0.4578 -0.4885
 3936TIP3    H133223   0.460   1.989   3.478  1.1945 -0.1752 -0.6393
 3936TIP3    H233224   0.437   1.871   3.387  0.3230 -0.9455  0.5533
 3937TIP3   OH233225   2.706   2.675  13.560 -0.8847 -0.4038  0.5087
 3937TIP3    H133226   2.666   2.639  13.640 -1.6432 -1.2137 -0.2089
 3937TIP3    H233227   2.635   2.675  13.496 -0.0330 -0.7531 -0.4601
 3938TIP3   OH233228   4.837   2.558   1.050  0.0285 -0.0645 -0.1144
 3938TIP3    H133229   4.891   2.575   0.973 -0.5342  0.8431 -0.3206
 3938TIP3    H233230   4.866   2.472   1.081  2.0248  0.6507  0.1381
 3939TIP3   OH233231   6.214   1.121  14.383 -0.7983  0.1091  0.0986
 3939TIP3    H133232   6.225   1.134  14.477 -1.6958 -0.3620  0.2876
 3939TIP3    H233233   6.261   1.040  14.364 -1.1569 -0.1440  0.2727
 3940TIP3   OH233234   2.875   6.042  12.408 -0.0622 -0.2435  0.0509
 3940TIP3    H133235   2.846   6.006  12.492 -3.6340  0.9593 -0.4873
 3940TIP3    H233236   2.896   6.134  12.428  3.8077 -1.0282  0.3954
 3941TIP3   OH233237   4.698   5.701  14.591 -0.3575  0.0508 -0.4044
 3941TIP3    H133238   4.771   5.643  14.568  0.3987  1.0947 -0.6991
 3941TIP3    H233239   4.737   5.788  14.593 -0.8412  0.3112  2.6858
 3942TIP3   OH233240   0.881   3.341  15.868 -0.5286 -0.1030 -0.2489
 3942TIP3    H133241   0.802   3.322  15.817  0.5115 -0.8456 -1.6204
 3942TIP3    H233242   0.952   3.301  15.819  0.4500 -1.7008  2.2521
 3943TIP3   OH233243   6.153   4.040  14.262 -0.5777  0.1916 -0.1492
 3943TIP3    H133244   6.063   4.071  14.266 -0.7124 -0.1850 -0.1870
 3943TIP3    H233245   6.146   3.946  14.277 -0.2036  0.1402 -0.2901
 3944TIP3   OH233246   6.201   0.219  11.569 -0.1615  0.2134 -0.1427
 3944TIP3    H133247   6.215   0.129  11.598  1.0209  0.4517  0.1035
 3944TIP3    H233248   6.123   0.248  11.617 -1.5227 -1.1706 -1.4509
 3945TIP3   OH233249   1.002   0.138   5.044 -0.0686  0.3713 -0.4460
 3945TIP3    H133250   1.003   0.059   5.099  1.7635  0.8298  0.2327
 3945TIP3    H233251   0.973   0.107   4.958 -2.8957 -0.3862  0.6773
 3946TIP3   OH233252   1.956   5.952   5.597  0.3338 -0.0202 -0.5030
 3946TIP3    H133253   1.898   5.899   5.652  0.8069  1.1847  1.2360
 3946TIP3    H233254   2.026   5.891   5.573  0.1908 -0.5517  0.3547
 3947TIP3   OH233255   3.087   4.370   2.477 -0.3043  0.0843 -0.2814
 3947TIP3    H133256   3.143   4.419   2.538 -0.3307  0.4121 -0.5180
 3947TIP3    H233257   2.999   4.406   2.491 -0.3626 -0.0491 -0.3006
 3948TIP3   OH233258   3.896   1.326   0.547  0.0447  0.0425 -0.4141
 3948TIP3    H133259   3.964   1.317   0.479  0.6560 -2.3538  0.3949
 3948TIP3    H233260   3.923   1.264   0.615 -1.2840  1.3890  1.4196
 3949TIP3   OH233261   2.947   3.723  15.414  0.6589  0.0266  0.5355
 3949TIP3    H133262   2.922   3.650  15.358  2.3387  0.3337 -0.6928
 3949TIP3    H233263   2.888   3.794  15.389  1.5874  0.2606 -1.1641
 3950TIP3   OH233264   6.614   0.423   1.564 -0.8138 -0.2425 -0.4375
 3950TIP3    H133265   6.620   0.516   1.544  0.6939 -0.4200 -0.9984
 3950TIP3    H233266   6.523   0.399   1.547 -0.7716  0.7172 -2.1967
 3951TIP3   OH233267   3.153   2.117   1.717  0.1293  0.0833 -0.1279
 3951TIP3    H133268   3.240   2.107   1.754 -0.1850  2.4011  1.4767
 3951TIP3    H233269   3.168   2.150   1.628  0.8530 -1.6261 -0.6754
 3952TIP3   OH233270   4.092   5.854  15.926 -0.0675  0.6796  0.1142
 3952TIP3    H133271   4.035   5.800  15.981 -0.5095 -0.5412 -1.4632
 3952TIP3    H233272   4.169   5.799  15.911  0.9430  1.7688  1.0733
 3953TIP3   OH233273   2.200   5.967  17.120 -0.2584 -0.3868 -0.0083
 3953TIP3    H133274   2.136   5.996  17.186  0.9842  3.7534 -0.3809
 3953TIP3    H233275   2.277   5.943  17.171  0.0656  1.0020  0.1859
 3954TIP3   OH233276   1.802   0.486  15.604  0.2740 -0.0916  0.3929
 3954TIP3    H133277   1.743   0.489  15.679  0.5813  0.5757  0.6170
 3954TIP3    H233278   1.745   0.468  15.529 -0.1648  0.1513  0.6631
 3955TIP3   OH233279   3.198   6.629   2.536 -0.1248 -0.0795  0.0519
 3955TIP3    H133280   3.239   6.571   2.472 -0.8366  1.0006 -1.4527
 3955TIP3    H233281   3.108   6.599   2.543  0.0264 -0.3846  0.8117
 3956TIP3   OH233282   4.055   5.333   3.435 -0.4762 -0.0771  0.2283
 3956TIP3    H133283   4.150   5.336   3.441 -0.4427 -0.3621 -0.1011
 3956TIP3    H233284   4.027   5.292   3.517 -0.4587  1.8359  1.2495
 3957TIP3   OH233285   2.174   1.290   4.759  0.3560  0.1962 -0.1662
 3957TIP3    H133286   2.196   1.370   4.712  1.7935  0.1297  0.3533
 3957TIP3    H233287   2.224   1.222   4.715 -2.3322 -0.8344 -1.8634
 3958TIP3   OH233288   1.734   5.104  13.342 -0.4667 -0.4222  0.0715
 3958TIP3    H133289   1.818   5.083  13.301  0.2492 -0.4699  1.4974
 3958TIP3    H233290   1.748   5.086  13.435 -2.0583 -0.3978  0.3335
 3959TIP3   OH233291   6.219   4.384   3.897 -0.0144  0.1538  0.3469
 3959TIP3    H133292   6.153   4.381   3.828 -0.5844 -1.3122  0.9115
 3959TIP3    H233293   6.269   4.302   3.885 -1.2539 -1.0298  2.7046
 3960TIP3   OH233294   1.894   5.739  12.262  0.3550 -0.3611 -0.5969
 3960TIP3    H133295   1.892   5.813  12.322 -2.4798 -0.0667 -0.9290
 3960TIP3    H233296   1.886   5.778  12.175  2.5313 -0.8988 -1.0961
 3961TIP3   OH233297   3.530   1.959   3.331  0.6103  0.0228 -0.7254
 3961TIP3    H133298   3.541   1.892   3.398 -1.0195  0.2723 -0.1527
 3961TIP3    H233299   3.532   2.042   3.380 -1.4821  0.1685 -0.8064
 3962TIP3   OH233300   3.009   3.092   5.819  0.5799  0.9317 -0.0244
 3962TIP3    H133301   2.954   3.151   5.870  0.5118  0.6930  0.1859
 3962TIP3    H233302   2.972   3.005   5.837  0.9998  0.7768  0.0806
 3963TIP3   OH233303   4.197   2.889  12.619  0.0478  0.5420  0.2395
 3963TIP3    H133304   4.182   2.795  12.622  0.8190  0.3798 -0.3284
 3963TIP3    H233305   4.124   2.924  12.568 -0.5363  0.3286  0.9232
 3964TIP3   OH233306   4.911   3.608   0.981  0.6192  0.1634  0.0640
 3964TIP3    H133307   4.841   3.668   0.956  1.8577  1.5459 -0.1743
 3964TIP3    H233308   4.911   3.541   0.912 -2.0732 -1.3463  1.3573
 3965TIP3   OH233309   0.557   1.584  17.143 -0.4809  0.3957 -0.5186
 3965TIP3    H133310   0.614   1.547  17.076  1.2127 -0.2004  1.1467
 3965TIP3    H233311   0.590   1.674  17.155  0.7685 -0.2115  1.0328
 3966TIP3   OH233312   1.209   1.527  14.680  0.1503 -0.1162  0.3111
 3966TIP3    H133313   1.293   1.569  14.700  0.2693  0.4743 -1.2727
 3966TIP3    H233314   1.154   1.546  14.756  0.6967  1.5975  0.3295
 3967TIP3   OH233315   1.500   2.361  16.668 -0.0424 -0.0856  0.4938
 3967TIP3    H133316   1.535   2.444  16.700  1.4248 -0.4840 -0.0107
 3967TIP3    H233317   1.422   2.346  16.722  0.4265  0.9466  1.5114
 3968TIP3   OH233318   0.438   0.675  10.332  0.2080  0.2851  0.3458
 3968TIP3    H133319   0.379   0.620  10.384  0.1331  0.3082  0.2844
 3968TIP3    H233320   0.444   0.757  10.381 -0.7499  0.7275 -0.2506
 3969TIP3   OH233321   3.559   0.493  12.667 -0.1582 -0.6538 -0.2699
 3969TIP3    H133322   3.622   0.422  12.680  0.3818 -0.2048 -0.3922
 3969TIP3    H233323   3.487   0.452  12.619  0.2027 -1.0972 -0.4424
 3970TIP3   OH233324   3.166   2.817   0.549 -0.3124  0.2683  0.1419
 3970TIP3    H133325   3.259   2.816   0.528 -0.3908  0.0638 -0.2055
 3970TIP3    H233326   3.122   2.827   0.465 -0.6083  0.2592  0.2929
 3971TIP3   OH233327   5.784   4.050   3.672 -0.0215  0.4301 -0.1958
 3971TIP3    H133328   5.838   4.084   3.600  0.3870 -1.5579 -0.8875
 3971TIP3    H233329   5.723   3.990   3.630 -0.7170  0.2923  0.9691
 3972TIP3   OH233330   0.021   2.943  11.451 -0.0822 -0.1675 -0.2080
 3972TIP3    H133331  -0.065   2.961  11.413 -1.1605 -0.7864  1.7771
 3972TIP3    H233332   0.020   2.849  11.468  1.8714 -0.5936 -2.0772
 3973TIP3   OH233333   1.515   6.123  12.140 -0.5598 -0.3110 -0.4466
 3973TIP3    H133334   1.550   6.046  12.096 -1.5126  0.5895 -2.9701
 3973TIP3    H233335   1.454   6.161  12.077 -0.4949  2.2488  0.8925
 3974TIP3   OH233336   6.152   0.351   6.687 -0.0680  0.2711  0.5411
 3974TIP3    H133337   6.226   0.319   6.739  0.4921 -0.2410 -0.5543
 3974TIP3    H233338   6.100   0.273   6.669 -0.6537  0.5614  0.9178
 3975TIP3   OH233339   3.122   3.125   5.541  0.4653 -0.0940  0.0829
 3975TIP3    H133340   3.115   3.211   5.583  0.6799 -0.6888  1.3912
 3975TIP3    H233341   3.101   3.063   5.611 -1.3914 -1.0657 -1.2466
 3976TIP3   OH233342   2.310   2.575   5.296 -0.0532  0.6040 -0.5227
 3976TIP3    H133343   2.264   2.626   5.229  0.2443 -0.9318 -1.9421
 3976TIP3    H233344   2.357   2.641   5.348 -1.4345  1.9394 -0.9112
 3977TIP3   OH233345   2.033   4.442   1.310 -0.5413 -0.7032  0.2115
 3977TIP3    H133346   2.004   4.473   1.225  2.8557  3.0536  0.0918
 3977TIP3    H233347   1.972   4.481   1.373 -0.4670  0.3493 -0.3521
 3978TIP3   OH233348   4.840   4.087   5.819 -0.2352  0.3281 -0.1779
 3978TIP3    H133349   4.929   4.100   5.786 -0.4080 -1.4894 -1.4650
 3978TIP3    H233350   4.834   4.146   5.894  1.5939  1.4769 -0.8660
 3979TIP3   OH233351   2.808   6.633   0.697  0.0287  0.1224  0.5329
 3979TIP3    H133352   2.818   6.712   0.644  2.1972 -0.2440  0.3005
 3979TIP3    H233353   2.835   6.562   0.639 -1.1813 -0.7165  0.9745
 3980TIP3   OH233354   2.087   5.631  15.795  0.2046  0.2611 -0.0046
 3980TIP3    H133355   2.063   5.639  15.703 -2.0089  0.5009  0.5522
 3980TIP3    H233356   2.152   5.700  15.809 -1.0680  1.6760 -0.8727
 3981TIP3   OH233357   5.859   2.894   1.232  0.0315  0.1844 -0.3510
 3981TIP3    H133358   5.776   2.873   1.274  0.4674  1.4058  1.2138
 3981TIP3    H233359   5.896   2.809   1.209  0.1387 -0.6830  2.5520
 3982TIP3   OH233360   6.474   0.883   5.081  0.1334  0.2910 -0.1005
 3982TIP3    H133361   6.512   0.874   4.994 -2.0696  0.4571 -1.1443
 3982TIP3    H233362   6.549   0.902   5.138  1.5244  1.0202 -2.0670
 3983TIP3   OH233363   5.539   0.678   0.366 -0.2761 -0.8193  0.3546
 3983TIP3    H133364   5.543   0.656   0.273  0.8451 -1.5860  0.5663
 3983TIP3    H233365   5.467   0.625   0.400  0.2127 -1.5956  0.1902
 3984TIP3   OH233366   1.518   2.202   1.325  0.1553  0.1067 -0.3949
 3984TIP3    H133367   1.470   2.269   1.373  0.5595  0.5653 -0.6289
 3984TIP3    H233368   1.570   2.157   1.392 -2.0950 -1.7653  0.2350
 3985TIP3   OH233369   6.154   6.442  16.404 -0.2943 -0.5683 -0.2656
 3985TIP3    H133370   6.109   6.475  16.325 -0.2871  0.9951  0.3393
 3985TIP3    H233371   6.101   6.475  16.476  0.8110 -0.2765  0.4206
 3986TIP3   OH233372   1.187   0.264   1.295  0.6720 -0.6565  0.5945
 3986TIP3    H133373   1.175   0.182   1.343 -0.1835 -0.8421  0.0961
 3986TIP3    H233374   1.175   0.332   1.361  0.2091 -0.9205  0.7881
 3987TIP3   OH233375   2.355   1.417   0.353 -0.1418 -0.7245 -0.0480
 3987TIP3    H133376   2.349   1.475   0.277  1.4938  0.9762  1.0202
 3987TIP3    H233377   2.433   1.364   0.336 -0.1031 -0.7445  0.1880
 3988TIP3   OH233378   3.526   3.469  14.346  0.1477  0.1101  0.8404
 3988TIP3    H133379   3.433   3.444  14.348  0.3338 -0.5690  1.4140
 3988TIP3    H233380   3.541   3.497  14.255 -0.4982 -0.2467  0.6151
 3989TIP3   OH233381   3.397   1.139  10.364  0.9779 -0.6173 -0.0162
 3989TIP3    H133382   3.333   1.076  10.330  0.1404  0.3639 -0.2799
 3989TIP3    H233383   3.446   1.166  10.287 -1.1761  1.9032 -0.6447
 3990TIP3   OH233384   1.887   2.317   3.586  0.4277  0.0907 -0.2496
 3990TIP3    H133385   1.844   2.244   3.542  0.7628 -0.0752 -0.3069
 3990TIP3    H233386   1.906   2.283   3.674  0.0246  0.3213 -0.0695
 3991TIP3   OH233387   6.762   4.847  16.038  0.2626  0.0982  0.3915
 3991TIP3    H133388   6.729   4.761  16.014  1.5832  0.0667 -1.4695
 3991TIP3    H233389   6.784   4.839  16.131  1.1301 -1.8255  0.0668
 3992TIP3   OH233390   2.645   4.345   0.914 -0.3504 -0.3759 -0.5564
 3992TIP3    H133391   2.586   4.414   0.881  0.5956  0.2157 -1.0686
 3992TIP3    H233392   2.689   4.385   0.989 -0.8782 -0.9515  0.0643
 3993TIP3   OH233393   6.629   3.441  13.443 -0.1663 -0.5028  0.5580
 3993TIP3    H133394   6.616   3.358  13.396  0.1776 -0.5023  0.4566
 3993TIP3    H233395   6.706   3.480  13.402 -0.9393  0.3822 -0.1340
 3994TIP3   OH233396   5.449   3.425  14.386  0.1313 -0.2240 -0.0836
 3994TIP3    H133397   5.439   3.330  14.383  1.4659 -0.3811 -1.8081
 3994TIP3    H233398   5.477   3.443  14.476  0.4973 -1.5602  0.1073
 3995TIP3   OH233399   2.085   4.588  11.222 -0.3911  0.1295  0.1949
 3995TIP3    H133400   2.030   4.632  11.287  0.1181 -0.0519  0.7572
 3995TIP3    H233401   2.093   4.652  11.151  0.5182  1.0645  1.0919
 3996TIP3   OH233402   2.144   5.524  15.319 -0.2817  0.0082 -0.0544
 3996TIP3    H133403   2.203   5.576  15.265 -0.7896  0.3839 -0.2590
 3996TIP3    H233404   2.176   5.434  15.311 -1.7638 -0.3803 -2.9902
 3997TIP3   OH233405   2.654   1.120   5.000 -0.5281  0.0567  0.3704
 3997TIP3    H133406   2.630   1.055   5.065 -1.2610  0.6535  0.7178
 3997TIP3    H233407   2.658   1.202   5.049 -1.3833  0.5668 -0.3757
 3998TIP3   OH233408   4.586   0.604   5.699 -0.4535  0.2166  0.2387
 3998TIP3    H133409   4.541   0.607   5.783 -0.8703 -0.8977  0.0623
 3998TIP3    H233410   4.534   0.660   5.642  0.3129  1.6960  0.9238
 3999TIP3   OH233411   2.070   4.895  15.602 -0.0257  0.3309  0.2082
 3999TIP3    H133412   2.145   4.948  15.572 -0.3548  1.1658  0.8016
 3999TIP3    H233413   2.015   4.958  15.649 -1.4875 -0.1037 -0.8636
 4000TIP3   OH233414   5.079   2.489  14.020 -0.6718  0.2304  0.3941
 4000TIP3    H133415   4.988   2.519  14.016 -0.3838  1.1116  0.1247
 4000TIP3    H233416   5.078   2.416  14.082 -1.3366  1.1066  1.4477
 4001TIP3   OH233417   2.266   1.793   4.887  0.2189 -0.6094 -0.3197
 4001TIP3    H133418   2.205   1.757   4.822 -0.4294  0.2503 -0.2057
 4001TIP3    H233419   2.260   1.888   4.875  1.9775 -0.5171 -0.6816
 4002TIP3   OH233420   3.850   2.166   3.430 -0.8896 -1.0089  0.2549
 4002TIP3    H133421   3.922   2.228   3.448 -0.7005 -1.0816 -0.2302
 4002TIP3    H233422   3.800   2.163   3.512 -1.4858  0.5591 -0.0128
 4003TIP3   OH233423   4.701   5.738   0.735 -0.6313  0.0750 -0.1232
 4003TIP3    H133424   4.736   5.780   0.656  0.9959 -1.0718 -0.0739
 4003TIP3    H233425   4.751   5.776   0.807 -0.7644 -0.2657  0.1505
 4004TIP3   OH233426   0.622   2.756   3.617 -0.3875  0.2986 -0.2858
 4004TIP3    H133427   0.597   2.669   3.646  0.3273  0.8083  2.1640
 4004TIP3    H233428   0.623   2.809   3.698 -0.2677  2.4364 -1.5952
 4005TIP3   OH233429   4.121   3.754  12.827  0.5928 -0.1439 -0.0154
 4005TIP3    H133430   4.056   3.689  12.802 -0.2684  0.9442 -0.7212
 4005TIP3    H233431   4.120   3.818  12.756  5.0462 -1.8312 -1.9329
 4006TIP3   OH233432   1.020   6.103  13.119  0.8142  0.0029 -0.0956
 4006TIP3    H133433   1.065   6.061  13.046 -0.6948  2.0669 -2.3598
 4006TIP3    H233434   0.937   6.056  13.126  0.6572  0.2610 -0.2023
 4007TIP3   OH233435   2.464   4.783   3.035  0.1363 -0.1240 -0.6825
 4007TIP3    H133436   2.422   4.791   3.121 -0.2504  0.5012 -0.9190
 4007TIP3    H233437   2.396   4.810   2.973 -0.3176 -2.5622 -1.3771
 4008TIP3   OH233438   4.220   6.740  14.922  0.9799 -0.1719  0.0706
 4008TIP3    H133439   4.190   6.652  14.942  0.6439  0.3283  1.9764
 4008TIP3    H233440   4.159   6.771  14.854 -0.4485 -0.5578  1.1158
 4009TIP3   OH233441   4.659   4.495  11.768  0.3598 -0.7878  0.0177
 4009TIP3    H133442   4.584   4.449  11.805  0.6270 -1.1795  0.0712
 4009TIP3    H233443   4.626   4.583  11.749  0.1907 -0.6022  1.1012
 4010TIP3   OH233444   1.320   1.192  10.661 -0.3212  0.2452 -0.3425
 4010TIP3    H133445   1.339   1.224  10.749 -0.3657  2.2738 -1.0096
 4010TIP3    H233446   1.389   1.129  10.643  1.4821  2.0274  0.0451
 4011TIP3   OH233447   6.680   4.945  15.681 -0.1143 -0.0203  0.1042
 4011TIP3    H133448   6.616   5.010  15.652 -0.8235 -1.1270 -0.8655
 4011TIP3    H233449   6.631   4.863  15.687  1.3271 -1.0583 -1.3855
 4012TIP3   OH233450   5.043   2.201   1.830 -0.4421 -0.0295  0.3460
 4012TIP3    H133451   5.023   2.295   1.835 -1.4392 -0.1839 -0.4139
 4012TIP3    H233452   5.086   2.181   1.913  1.5539  1.4908 -0.2431
 4013TIP3   OH233453   4.537   4.335  10.525 -0.5670  0.5385  0.6786
 4013TIP3    H133454   4.525   4.298  10.437  0.1996 -1.3448  1.2975
 4013TIP3    H233455   4.448   4.343  10.560 -0.8946  1.5126 -0.3246
 4014TIP3   OH233456   2.254   4.114  15.325 -1.0049  0.0798  0.3693
 4014TIP3    H133457   2.288   4.122  15.236  0.1262  0.0784  0.7760
 4014TIP3    H233458   2.303   4.179  15.375  0.5074 -1.8279  1.5478
 4015TIP3   OH233459   5.112   2.425  12.567  0.0067 -0.4015 -0.6884
 4015TIP3    H133460   5.152   2.416  12.481 -2.2282 -1.8168 -1.6816
 4015TIP3    H233461   5.088   2.517  12.573  0.8695 -0.1299 -1.2208
 4016TIP3   OH233462   2.599   4.672  12.040  0.7119  0.0204  0.2625
 4016TIP3    H133463   2.507   4.677  12.065  0.1945  1.5417 -1.6866
 4016TIP3    H233464   2.603   4.598  11.980  0.4627  0.7216 -0.6428
 4017TIP3   OH233465   1.411   1.626  12.363 -0.0114 -0.4162 -0.4330
 4017TIP3    H133466   1.390   1.706  12.412  0.3997  2.4499 -4.4326
 4017TIP3    H233467   1.332   1.608  12.313 -0.2267 -2.8946  0.6588
 4018TIP3   OH233468   2.141   5.507  12.799 -0.1093 -0.0537  0.3089
 4018TIP3    H133469   2.056   5.550  12.795  0.8936  1.9881 -1.6294
 4018TIP3    H233470   2.136   5.449  12.875 -2.9754  0.4684  0.6181
 4019TIP3   OH233471   6.211   5.813  16.296  0.0148  0.1120 -0.8351
 4019TIP3    H133472   6.272   5.762  16.243  2.7312  0.8381  1.3729
 4019TIP3    H233473   6.190   5.757  16.370  0.2113  0.8651 -0.1891
 4020TIP3   OH233474   2.910   2.572  15.172  0.0859  0.1100  0.0613
 4020TIP3    H133475   2.900   2.530  15.086  1.2097 -0.2501  0.0826
 4020TIP3    H233476   2.950   2.504  15.227 -0.5256  0.3733  0.8507
 4021TIP3   OH233477   3.821   6.069  11.781 -0.0138 -0.2898 -0.3232
 4021TIP3    H133478   3.780   6.136  11.835 -1.0308 -1.1503  0.0113
 4021TIP3    H233479   3.903   6.048  11.826  0.4673  0.9182 -0.5975
 4022TIP3   OH233480   1.968   2.480  16.949  0.2524 -0.2042 -0.0897
 4022TIP3    H133481   1.975   2.571  16.919 -1.2858  0.0712  0.3109
 4022TIP3    H233482   1.965   2.428  16.868  0.6307  0.1380 -0.3268
 4023TIP3   OH233483   4.946   2.225  12.246 -0.2953 -0.0211 -0.1166
 4023TIP3    H133484   4.897   2.151  12.208 -0.5690 -0.6361  1.3719
 4023TIP3    H233485   4.938   2.213  12.340  2.2771  0.1858  0.1928
 4024TIP3   OH233486   3.338   4.408  11.930 -0.5965 -0.6156  0.6172
 4024TIP3    H133487   3.307   4.382  11.843  1.6028 -0.6592 -0.2024
 4024TIP3    H233488   3.356   4.325  11.975  0.1251 -0.5890  0.3897
 4025TIP3   OH233489   1.762   0.014   0.328  0.2790  0.7317 -0.3261
 4025TIP3    H133490   1.849  -0.019   0.350  0.7981  0.8299 -2.0882
 4025TIP3    H233491   1.720  -0.057   0.280 -1.0312  0.3047  1.3807
 4026TIP3   OH233492   0.901   1.711   3.286  0.2555 -0.1666 -0.2103
 4026TIP3    H133493   0.886   1.620   3.312 -0.0650 -0.2941 -0.8321
 4026TIP3    H233494   0.834   1.760   3.333 -0.6070 -0.4498 -1.1096
 4027TIP3   OH233495   6.118   6.663  12.395 -0.1260  0.5048 -0.1136
 4027TIP3    H133496   6.081   6.577  12.413  1.5427  0.3632  3.4604
 4027TIP3    H233497   6.045   6.713  12.358 -2.5774 -1.0997  2.2150
 4028TIP3   OH233498   4.453   2.505   5.772 -0.2374 -0.1311  0.3909
 4028TIP3    H133499   4.414   2.515   5.685 -0.7723  0.3782  0.6828
 4028TIP3    H233500   4.432   2.416   5.798 -1.6062  0.2642  0.7248
 4029TIP3   OH233501   2.048   3.847  11.851  0.0342  0.6104 -0.5809
 4029TIP3    H133502   1.964   3.890  11.867  0.5442  1.4116 -0.0028
 4029TIP3    H233503   2.107   3.917  11.823  0.4288 -0.0042 -1.3478
 4030TIP3   OH233504   2.463   1.722  17.091  0.1738  0.9275 -0.0209
 4030TIP3    H133505   2.402   1.699  17.021  0.9290 -1.2343 -0.0553
 4030TIP3    H233506   2.446   1.659  17.160  1.6444  0.9443  0.3973
 4031TIP3   OH233507   3.343   3.467  16.288 -0.6167  0.6386  0.0728
 4031TIP3    H133508   3.276   3.437  16.226 -0.2316  1.0379 -0.5523
 4031TIP3    H233509   3.344   3.400  16.357  2.0591 -2.3474 -2.5198
 4032TIP3   OH233510   1.934   2.979  10.352  0.2045  0.0362 -0.0538
 4032TIP3    H133511   1.973   2.910  10.405 -0.1872 -1.0044 -1.0740
 4032TIP3    H233512   1.918   3.050  10.414  0.4489 -0.8469  1.0654
 4033TIP3   OH233513   5.973   6.119   5.899  0.2850 -0.6430  0.0201
 4033TIP3    H133514   6.068   6.121   5.899  0.3072 -1.2346 -0.5524
 4033TIP3    H233515   5.951   6.027   5.883 -0.3753 -0.5011  0.0879
 4034TIP3   OH233516   6.614   2.063  14.717 -0.0472 -0.0398  0.0188
 4034TIP3    H133517   6.622   2.062  14.813  1.0983 -2.0223 -0.0265
 4034TIP3    H233518   6.670   2.135  14.689 -0.9614  1.0312  0.8467
 4035TIP3   OH233519   3.798   5.117   6.092 -0.6629 -0.1370 -0.0807
 4035TIP3    H133520   3.738   5.076   6.030 -2.1199 -0.4605  1.4676
 4035TIP3    H233521   3.780   5.073   6.175  0.5206  0.9466  0.7837
 4036TIP3   OH233522   0.463   5.256  14.245 -0.4145 -0.3226 -0.3126
 4036TIP3    H133523   0.440   5.163  14.251  1.7257 -1.0211 -1.8005
 4036TIP3    H233524   0.427   5.284  14.160 -1.4237  0.3661  0.3157
 4037TIP3   OH233525   6.392   4.772   2.101 -0.1300 -0.4953 -0.2555
 4037TIP3    H133526   6.412   4.851   2.051  1.4204 -1.4329 -1.1915
 4037TIP3    H233527   6.476   4.727   2.110 -0.9653 -2.0355  0.2943
 4038TIP3   OH233528   4.137   5.108   5.423  0.4328 -0.3915  0.3011
 4038TIP3    H133529   4.060   5.157   5.453 -0.0366  0.0541 -1.5036
 4038TIP3    H233530   4.134   5.115   5.327  0.9806 -3.0230  0.0186
 4039TIP3   OH233531   2.186   5.774   4.069  0.5310  0.5166  0.1586
 4039TIP3    H133532   2.109   5.805   4.116 -1.5680 -2.4700 -1.0239
 4039TIP3    H233533   2.247   5.748   4.139 -0.7340  0.1868  1.1873
 4040TIP3   OH233534   0.539   1.098   4.873 -0.3779 -0.0873 -0.1330
 4040TIP3    H133535   0.519   1.147   4.953  1.0322 -0.6977  0.6268
 4040TIP3    H233536   0.633   1.079   4.879  0.0567  0.8250 -2.4778
 4041TIP3   OH233537   1.758   3.684  10.919  0.1940  0.6082 -0.2432
 4041TIP3    H133538   1.664   3.671  10.908  0.2112  0.5421 -0.3106
 4041TIP3    H233539   1.794   3.675  10.831  0.3547 -0.1472 -0.1044
 4042TIP3   OH233540   0.432   2.238  16.826 -0.0495 -0.2755 -0.3651
 4042TIP3    H133541   0.471   2.243  16.738 -1.3628 -1.5414 -1.0706
 4042TIP3    H233542   0.505   2.213  16.883  0.4464 -1.4312 -1.4520
 4043TIP3   OH233543   6.777   1.642   4.808  0.3695  0.1822  0.4449
 4043TIP3    H133544   6.701   1.642   4.749  1.1395  0.5333 -0.5711
 4043TIP3    H233545   6.738   1.648   4.896 -0.7828  0.2335 -0.0427
 4044TIP3   OH233546   1.959   3.376   6.616 -0.6834 -0.4341 -0.1691
 4044TIP3    H133547   2.045   3.372   6.574 -0.4118 -0.9037  0.4269
 4044TIP3    H233548   1.917   3.452   6.576  0.3634  0.3648  0.2076
 4045TIP3   OH233549   2.882   1.675  13.360  0.0490 -0.1990 -0.2061
 4045TIP3    H133550   2.810   1.624  13.323 -0.3412  0.6746 -0.6702
 4045TIP3    H233551   2.949   1.675  13.291 -0.2591  0.5440 -0.5187
 4046TIP3   OH233552   5.309   3.936   3.814 -0.2835  0.5367 -0.0552
 4046TIP3    H133553   5.222   3.917   3.850  0.4471 -0.5062  1.2765
 4046TIP3    H233554   5.330   4.022   3.849 -1.0276  1.1004 -0.9347
 4047TIP3   OH233555   2.003   4.095  16.567  0.2899  0.0682 -0.1592
 4047TIP3    H133556   1.941   4.117  16.637 -0.2815 -0.7749 -0.3888
 4047TIP3    H233557   2.063   4.169  16.565 -1.3925  1.4996 -0.6972
 4048TIP3   OH233558   2.819   3.970   5.533 -0.1301 -0.1808 -0.1489
 4048TIP3    H133559   2.842   4.030   5.604 -2.3741 -1.7199  2.0681
 4048TIP3    H233560   2.874   3.893   5.547 -0.3188 -0.3443 -0.2933
 4049TIP3   OH233561   1.504   1.893   4.971 -0.1898 -0.9343  0.1360
 4049TIP3    H133562   1.442   1.966   4.970 -2.7918 -2.9404  1.7136
 4049TIP3    H233563   1.568   1.918   5.037 -0.9689 -0.0304  0.5895
 4050TIP3   OH233564   5.185   0.378   0.747  0.1752 -0.1777 -0.3670
 4050TIP3    H133565   5.111   0.368   0.807  0.8225 -0.4929  0.4086
 4050TIP3    H233566   5.262   0.360   0.802  1.0044  2.3283 -0.5612
 4051TIP3   OH233567   0.978   1.893   0.611 -0.2370 -0.4550 -0.4539
 4051TIP3    H133568   0.952   1.840   0.686  1.4663 -1.1218 -0.2819
 4051TIP3    H233569   1.038   1.959   0.648 -3.1707  2.4545 -0.4604
 4052TIP3   OH233570   2.264   1.288   4.190 -0.0798  0.0411 -0.3167
 4052TIP3    H133571   2.257   1.335   4.107 -1.7248  0.8778  0.2417
 4052TIP3    H233572   2.202   1.215   4.181  1.5447 -1.3706 -0.7086
 4053TIP3   OH233573   2.191   5.997  16.069  0.1687 -0.6829  0.2421
 4053TIP3    H133574   2.101   5.967  16.082 -0.8614  1.8089 -0.4086
 4053TIP3    H233575   2.213   6.040  16.152  0.5061 -0.7273  0.1745
 4054TIP3   OH233576   6.406   2.441   0.325 -0.0437  0.2585 -0.0410
 4054TIP3    H133577   6.317   2.415   0.302 -0.0758 -0.8649  1.2134
 4054TIP3    H233578   6.454   2.436   0.243 -1.1141  0.8386 -0.7253
 4055TIP3   OH233579   1.662   5.185   0.781 -0.1167 -0.0144  0.8285
 4055TIP3    H133580   1.734   5.222   0.833 -1.1609 -1.6169  3.6669
 4055TIP3    H233581   1.607   5.260   0.759  1.3638  0.9667  0.3098
 4056TIP3   OH233582   0.867   0.434  11.628  0.0242 -0.4341 -0.3164
 4056TIP3    H133583   0.935   0.368  11.615 -1.2228 -1.4058 -2.4192
 4056TIP3    H233584   0.799   0.412  11.564 -1.9287  0.9751  1.1584
 4057TIP3   OH233585   0.645   5.383  10.859 -0.1923  0.1433 -0.5522
 4057TIP3    H133586   0.701   5.416  10.789  0.1973  0.3618 -0.1467
 4057TIP3    H233587   0.557   5.380  10.821  0.3596 -2.1249 -1.8554
 4058TIP3   OH233588   5.803   1.533  10.753 -0.1178  0.2410 -0.0514
 4058TIP3    H133589   5.780   1.597  10.686  1.6730  0.6464 -0.3220
 4058TIP3    H233590   5.898   1.538  10.761 -0.1435 -0.7637  1.5666
 4059TIP3   OH233591   1.322   4.394  10.456 -0.8836 -0.3905 -0.2621
 4059TIP3    H133592   1.347   4.368  10.367  0.4218  1.1895 -0.4167
 4059TIP3    H233593   1.227   4.384  10.459 -0.9052 -0.7841 -1.7300
 4060TIP3   OH233594   2.682   3.274   4.883 -0.1287 -0.2367 -0.0228
 4060TIP3    H133595   2.615   3.299   4.946 -0.6232  0.0065 -0.6368
 4060TIP3    H233596   2.740   3.215   4.931  0.8410  1.7280  1.3681
 4061TIP3   OH233597   6.404   2.896  12.598 -0.1929 -0.4307 -0.0775
 4061TIP3    H133598   6.402   2.990  12.619 -1.5937 -0.2522 -0.8326
 4061TIP3    H233599   6.416   2.894  12.503 -1.2985 -0.9661 -0.2159
 4062TIP3   OH233600   6.618   4.187  16.144 -0.2777 -0.0841  0.8833
 4062TIP3    H133601   6.643   4.203  16.235  1.8108  1.0671  0.1800
 4062TIP3    H233602   6.565   4.263  16.120 -0.5469 -0.2237  1.0327
 4063TIP3   OH233603   1.798   6.620   0.895  0.1984 -0.3511 -0.7369
 4063TIP3    H133604   1.888   6.652   0.896 -0.4931  1.7861 -1.4535
 4063TIP3    H233605   1.759   6.654   0.976 -0.3972  0.1658 -1.2259
 4064TIP3   OH233606   3.417   2.415   3.399 -0.3540  0.3859 -0.3604
 4064TIP3    H133607   3.321   2.424   3.400 -0.2477  2.3061 -1.4354
 4064TIP3    H233608   3.438   2.397   3.308  0.2164 -2.4893  0.2492
 4065TIP3   OH233609   5.596   5.578  14.894 -0.0177  0.3105 -0.5776
 4065TIP3    H133610   5.651   5.506  14.926 -1.1206 -0.2410  0.1559
 4065TIP3    H233611   5.582   5.559  14.802 -0.2096 -0.3799 -0.4151
 4066TIP3   OH233612   1.899   6.759  13.482 -0.3488  0.1914 -0.2016
 4066TIP3    H133613   1.899   6.666  13.507 -2.1903  0.8270  2.6517
 4066TIP3    H233614   1.987   6.789  13.504  0.8394 -1.1738 -2.7669
 4067TIP3   OH233615   6.629   0.833  15.209 -0.3549  0.3921  0.0730
 4067TIP3    H133616   6.560   0.779  15.169 -0.6220  0.5019  0.3814
 4067TIP3    H233617   6.687   0.771  15.253  1.2791  0.0174 -2.4121
 4068TIP3   OH233618   0.657   2.486  16.469  0.1945  0.6531 -0.1832
 4068TIP3    H133619   0.658   2.582  16.475 -1.0241  0.7689 -1.2353
 4068TIP3    H233620   0.723   2.465  16.403  0.3907  0.7864 -0.0268
 4069TIP3   OH233621   5.325   0.031   0.853 -0.7165 -0.1756  0.0743
 4069TIP3    H133622   5.282   0.026   0.768 -1.0556  0.7815  0.1697
 4069TIP3    H233623   5.387   0.103   0.845  0.0839 -0.8243  0.2887
 4070TIP3   OH233624   2.553   0.943   4.643 -0.0695  0.2428 -0.3405
 4070TIP3    H133625   2.603   1.002   4.700  1.7549  0.7644 -2.3403
 4070TIP3    H233626   2.539   0.865   4.697 -0.4403  1.5513  1.5599
 4071TIP3   OH233627   3.726   6.465   1.871  0.3924 -0.6932 -0.5488
 4071TIP3    H133628   3.745   6.501   1.958 -0.0419  2.3609 -1.5968
 4071TIP3    H233629   3.808   6.474   1.822 -0.4418  1.5593 -1.6313
 4072TIP3   OH233630   0.328   4.624   6.142 -0.1670  0.0514  0.2024
 4072TIP3    H133631   0.269   4.549   6.134  0.0054 -0.0697  0.0284
 4072TIP3    H233632   0.286   4.693   6.091  0.6501 -0.5446 -1.3759
 4073TIP3   OH233633   2.429   1.116  16.519 -0.2750  0.0111 -0.2818
 4073TIP3    H133634   2.466   1.177  16.455  0.4232 -0.0891  0.0179
 4073TIP3    H233635   2.455   1.151  16.604 -0.7095 -0.1725 -0.0674
 4074TIP3   OH233636   4.756   5.561   5.862  0.8870 -0.2037 -0.1445
 4074TIP3    H133637   4.661   5.555   5.872  0.9691 -3.0655 -0.2290
 4074TIP3    H233638   4.782   5.632   5.920 -1.2257  0.2946  0.2861
 4075TIP3   OH233639   4.236   4.712  10.621 -0.1088  0.5878 -0.3466
 4075TIP3    H133640   4.223   4.806  10.629  1.1982  0.6798  1.5352
 4075TIP3    H233641   4.162   4.673  10.668 -1.2500  0.5887 -2.0560
 4076TIP3   OH233642   5.963   6.389   0.567 -0.1125 -0.4168 -0.8009
 4076TIP3    H133643   5.916   6.313   0.534 -0.0045 -0.7650 -0.1698
 4076TIP3    H233644   6.029   6.408   0.500 -1.1798  0.1234 -1.7264
 4077TIP3   OH233645   1.676   0.324  16.340 -0.5177 -0.1599 -0.1076
 4077TIP3    H133646   1.661   0.388  16.271 -0.6705 -0.8882 -0.7562
 4077TIP3    H233647   1.600   0.266  16.336 -0.8225  0.1327  1.0629
 4078TIP3   OH233648   0.625   6.539   0.477 -0.1962  0.8384  0.0922
 4078TIP3    H133649   0.623   6.633   0.461  0.7253  0.9108  0.3761
 4078TIP3    H233650   0.644   6.531   0.570  1.3872  0.3687 -0.2430
 4079TIP3   OH233651   5.856   3.902  15.821 -0.6205  0.1642  0.0012
 4079TIP3    H133652   5.802   3.836  15.865 -0.9652 -1.0867 -2.1759
 4079TIP3    H233653   5.820   3.908  15.733  1.1314  1.2688 -0.6928
 4080TIP3   OH233654   4.251   0.146   2.782  0.0470  0.2706  0.1257
 4080TIP3    H133655   4.195   0.071   2.763  1.3500 -0.7378  0.1626
 4080TIP3    H233656   4.322   0.140   2.717  0.1979  1.4486  0.1566
 4081TIP3   OH233657   0.298   4.674  14.881  0.4452  0.3513  0.1410
 4081TIP3    H133658   0.383   4.679  14.925 -0.4827 -0.3903  2.1662
 4081TIP3    H233659   0.237   4.650  14.951 -1.3483  0.3424 -1.3611
 4082TIP3   OH233660   1.067   3.393  16.991  0.1505  0.7502 -0.3734
 4082TIP3    H133661   1.004   3.409  17.062 -0.0794  1.5866 -0.7590
 4082TIP3    H233662   1.025   3.429  16.913  0.0066 -0.9737 -1.1335
 4083TIP3   OH233663   3.363   4.953   0.667  0.4210 -0.6140 -0.1108
 4083TIP3    H133664   3.350   4.978   0.576  0.2876 -0.4565 -0.0486
 4083TIP3    H233665   3.373   5.036   0.714 -0.3387 -0.6571  0.1394
 4084TIP3   OH233666   4.916   0.729   2.633 -0.2035 -0.2690  0.3301
 4084TIP3    H133667   4.858   0.722   2.558 -0.7462 -0.8080  0.7937
 4084TIP3    H233668   4.954   0.642   2.643 -0.1828 -0.2174  0.7230
 4085TIP3   OH233669   4.126   5.487  11.678 -0.5638 -0.2036 -0.2491
 4085TIP3    H133670   4.070   5.529  11.744  1.3127  0.9023  0.7098
 4085TIP3    H233671   4.215   5.498  11.711  0.3624 -0.6935 -2.3982
 4086TIP3   OH233672   2.853   3.865  11.621 -0.1125  0.6805 -0.1409
 4086TIP3    H133673   2.890   3.784  11.586 -1.8639 -0.6149  0.8484
 4086TIP3    H233674   2.857   3.854  11.716 -2.8536  0.5058  0.0156
 4087TIP3   OH233675   1.355   4.270   2.303  0.2221  0.6074 -0.2990
 4087TIP3    H133676   1.314   4.350   2.269 -1.2519 -0.6024 -1.5032
 4087TIP3    H233677   1.415   4.243   2.233  0.5560  0.5364  0.0146
 4088TIP3   OH233678   5.609   4.372  13.840  0.0159 -0.5970  0.0088
 4088TIP3    H133679   5.626   4.322  13.920  1.3721 -0.4172 -0.1367
 4088TIP3    H233680   5.557   4.447  13.870  0.0851 -0.7916  0.6483
 4089TIP3   OH233681   3.063   3.937   2.994  0.4355  0.2472  0.4519
 4089TIP3    H133682   3.092   3.846   2.992 -0.4504 -0.0913  1.8687
 4089TIP3    H233683   2.972   3.932   3.025  0.3300  1.6013  0.4028
 4090TIP3   OH233684   4.007   3.499   2.822  0.7123  0.4994 -0.0120
 4090TIP3    H133685   4.020   3.558   2.747 -0.2847  0.7179 -0.0228
 4090TIP3    H233686   3.957   3.551   2.885  0.2623 -0.1713  0.1884
 4091TIP3   OH233687   1.915   2.466  12.253  0.0672  0.2326 -0.1049
 4091TIP3    H133688   2.007   2.471  12.227 -0.4333 -0.7796 -2.2126
 4091TIP3    H233689   1.912   2.394  12.316  0.8234  0.7723  0.5644
 4092TIP3   OH233690   0.818   2.332  16.005 -0.4516 -0.2973 -0.5086
 4092TIP3    H133691   0.790   2.262  15.945  0.2328 -1.2414  0.2286
 4092TIP3    H233692   0.911   2.345  15.984 -0.3398 -0.2798 -0.0139
 4093TIP3   OH233693   3.287   6.478   2.316  0.2593 -0.9032 -0.6610
 4093TIP3    H133694   3.324   6.493   2.229 -1.8060 -0.2339 -1.4870
 4093TIP3    H233695   3.205   6.432   2.299  0.1584 -1.4054  1.0140
 4094TIP3   OH233696   6.127   5.157   0.088  0.2637  0.5919  0.4633
 4094TIP3    H133697   6.159   5.230   0.034 -1.1256  1.3505  0.6205
 4094TIP3    H233698   6.201   5.096   0.091  1.1974  1.6272 -0.3156
 4095TIP3   OH233699   6.005   5.161   5.622  0.0556 -0.8250 -0.2293
 4095TIP3    H133700   5.986   5.150   5.529 -2.2400 -1.1221  0.2203
 4095TIP3    H233701   5.937   5.111   5.667 -0.0118  0.7987  1.6316
 4096TIP3   OH233702   2.663   6.470   3.965  0.5297  0.1535  0.2053
 4096TIP3    H133703   2.659   6.556   3.921  1.3824 -0.0210 -0.2367
 4096TIP3    H233704   2.571   6.445   3.976  0.2712  0.2393 -1.4482
 4097TIP3   OH233705   6.152   0.510   5.874 -0.8187  0.0368  0.0155
 4097TIP3    H133706   6.217   0.551   5.816 -0.2832  0.7418  1.0842
 4097TIP3    H233707   6.180   0.418   5.879 -0.7493  0.0136 -0.6714
 4098TIP3   OH233708   2.756   5.451  13.263  0.1838  0.2559  1.0173
 4098TIP3    H133709   2.707   5.518  13.312 -0.1871  1.0327 -0.3423
 4098TIP3    H233710   2.692   5.382  13.247 -0.1765  0.7387  0.2670
 4099TIP3   OH233711   0.401   2.985  13.643  0.2515  0.3646  0.0355
 4099TIP3    H133712   0.487   2.948  13.660 -0.1775 -1.5105 -1.5646
 4099TIP3    H233713   0.354   2.977  13.727  2.1949  3.4584  1.6303
 4100TIP3   OH233714   5.945   6.213   4.361 -0.5830 -0.0406  0.5492
 4100TIP3    H133715   6.036   6.219   4.330 -0.6599  0.3149  0.3791
 4100TIP3    H233716   5.914   6.304   4.359 -0.9616 -0.1690  0.5457
 4101TIP3   OH233717   1.966   0.079  12.795  0.8028 -0.1882  0.2415
 4101TIP3    H133718   1.896   0.018  12.773  0.3425 -0.1110  1.3864
 4101TIP3    H233719   1.978   0.132  12.716  0.0096 -0.6212 -0.1815
 4102TIP3   OH233720   1.957   6.040   0.386 -0.1581 -0.1511 -0.0297
 4102TIP3    H133721   1.883   5.981   0.395 -1.0524  0.8880 -0.3162
 4102TIP3    H233722   1.957   6.066   0.294 -0.3111  0.9289  0.2562
 4103TIP3   OH233723   0.119   2.309  16.957  0.3018  0.1904  0.3425
 4103TIP3    H133724   0.190   2.262  17.002 -0.5798 -1.2075  0.3399
 4103TIP3    H233725   0.121   2.273  16.868  0.8522  1.6045 -0.2434
 4104TIP3   OH233726   5.218   1.658   5.453 -0.2049 -0.1940  0.4122
 4104TIP3    H133727   5.284   1.709   5.500  2.1175 -4.1149  1.9036
 4104TIP3    H233728   5.224   1.688   5.363  0.1418  2.7972  1.3061
 4105TIP3   OH233729   4.241   2.537  15.426 -0.0869 -0.2443 -0.3279
 4105TIP3    H133730   4.155   2.544  15.467  0.4794 -0.0635  0.8758
 4105TIP3    H233731   4.253   2.621  15.382 -0.3403 -0.0879 -0.1074
 4106TIP3   OH233732   6.297   1.320  11.394  0.5580 -0.6353 -0.1589
 4106TIP3    H133733   6.271   1.265  11.467 -1.4148  2.1262  1.4238
 4106TIP3    H233734   6.223   1.315  11.333 -0.2998  1.1564  0.6464
 4107TIP3   OH233735   3.443   0.031  11.215 -0.1507  0.9394  0.5834
 4107TIP3    H133736   3.463  -0.051  11.170  0.5227  1.4252 -0.0266
 4107TIP3    H233737   3.519   0.087  11.197 -0.0091  1.2672  2.0383
 4108TIP3   OH233738   6.692   2.499  16.031 -0.2882  0.1730 -0.0453
 4108TIP3    H133739   6.687   2.433  16.100  1.8231  0.9758  0.9656
 4108TIP3    H233740   6.750   2.461  15.965 -0.0411  0.5237 -0.0356
 4109TIP3   OH233741   2.590   4.242   0.522  0.3643 -0.1292  0.1826
 4109TIP3    H133742   2.525   4.294   0.475 -1.1250 -0.4099  1.8331
 4109TIP3    H233743   2.616   4.174   0.460  0.4408  1.0360 -1.1136
 4110TIP3   OH233744   3.105   5.965  15.230 -0.1879 -0.3787 -0.3187
 4110TIP3    H133745   3.150   6.003  15.154  0.6942  0.8824  0.7788
 4110TIP3    H233746   3.125   6.025  15.302 -3.6365  0.2558  0.2919
 4111TIP3   OH233747   1.729   1.034   1.241 -0.1455  0.3151 -0.0606
 4111TIP3    H133748   1.705   0.960   1.298 -0.6454 -0.1691 -0.8731
 4111TIP3    H233749   1.646   1.059   1.200  0.1538  0.8667 -0.3305
 4112TIP3   OH233750   5.546   6.714  12.630 -0.4130  0.3739 -0.1168
 4112TIP3    H133751   5.574   6.728  12.721 -0.2110 -0.0456 -0.1133
 4112TIP3    H233752   5.608   6.650  12.595 -1.3444 -0.5570 -0.1246
 4113TIP3   OH233753   0.547   5.635  16.685  0.1540  0.4346  0.4425
 4113TIP3    H133754   0.466   5.636  16.735  0.7266  2.4794  1.4736
 4113TIP3    H233755   0.526   5.682  16.604  0.3388  1.1509  0.8017
 4114TIP3   OH233756   6.569   4.525   2.672  0.2786  0.5923  0.7901
 4114TIP3    H133757   6.507   4.487   2.734  0.5103  1.3040  1.4774
 4114TIP3    H233758   6.564   4.620   2.688 -0.3511  0.8805 -0.9429
 4115TIP3   OH233759   5.117   5.987  15.991  0.0985 -0.0260 -0.7352
 4115TIP3    H133760   5.026   6.009  16.011 -0.9859 -2.8155 -2.1100
 4115TIP3    H233761   5.125   6.002  15.896  0.3702 -1.7988 -1.0276
 4116TIP3   OH233762   5.678   2.138   2.713 -0.3405  0.6233 -0.3892
 4116TIP3    H133763   5.629   2.218   2.727  0.4971  1.1134 -0.1531
 4116TIP3    H233764   5.761   2.152   2.760  0.5901  0.3715 -1.8969
 4117TIP3   OH233765   3.857   1.245   4.411 -0.1615  0.4400 -0.1851
 4117TIP3    H133766   3.931   1.282   4.362  0.0132 -0.5393 -0.6943
 4117TIP3    H233767   3.784   1.245   4.349 -0.4947  1.0381  0.1942
 4118TIP3   OH233768   2.305   6.364   6.172 -0.0817 -0.5526 -0.3542
 4118TIP3    H133769   2.268   6.401   6.252  0.9045  1.1339 -0.6328
 4118TIP3    H233770   2.232   6.318   6.131 -1.0545  0.0572  0.6351
 4119TIP3   OH233771   5.685   1.499  15.413 -0.2968  0.5021 -0.2853
 4119TIP3    H133772   5.601   1.485  15.456  0.2016 -0.9268  0.2568
 4119TIP3    H233773   5.708   1.414  15.375 -0.1933  1.4298 -2.4596
 4120TIP3   OH233774   3.700   1.242   5.547 -0.0423  0.1712  0.3324
 4120TIP3    H133775   3.620   1.292   5.566 -0.9724 -0.4296 -1.7407
 4120TIP3    H233776   3.747   1.296   5.483  0.7009  0.0114  0.7297
 4121TIP3   OH233777   3.661   1.672   4.755 -0.5588 -0.1155 -0.3736
 4121TIP3    H133778   3.576   1.714   4.764 -0.3136  0.4171 -0.4911
 4121TIP3    H233779   3.656   1.624   4.672  0.4057  2.7281 -2.1919
 4122TIP3   OH233780   2.538   4.651   5.649  0.2963 -0.0238  1.0226
 4122TIP3    H133781   2.560   4.645   5.742  1.4426  0.8234  0.8275
 4122TIP3    H233782   2.470   4.718   5.644 -0.4638 -0.7554  1.3423
 4123TIP3   OH233783   2.886   1.952   4.218  0.4325 -0.2592  0.5513
 4123TIP3    H133784   2.795   1.975   4.202 -0.0766  0.0349  3.4622
 4123TIP3    H233785   2.934   2.035   4.213  0.1956 -0.0873  1.1409
 4124TIP3   OH233786   3.124   0.759   0.583  0.2904  0.4048 -0.3174
 4124TIP3    H133787   3.094   0.670   0.562 -0.7273  0.7840 -0.5564
 4124TIP3    H233788   3.123   0.762   0.679  0.7078  0.0416 -0.2978
 4125TIP3   OH233789   3.017   0.198   4.407 -0.2808  0.2272  0.1259
 4125TIP3    H133790   3.093   0.172   4.459  0.0230  0.0405 -0.3992
 4125TIP3    H233791   2.942   0.179   4.463 -0.1171 -2.2537 -0.3770
 4126TIP3   OH233792   3.867   1.251  16.996  0.6902 -0.3111  0.3819
 4126TIP3    H133793   3.943   1.247  16.938  0.0793  1.1534 -0.5998
 4126TIP3    H233794   3.904   1.248  17.085  2.0039  1.2047 -0.0568
 4127TIP3   OH233795   1.509   6.547   1.140 -0.5965  0.1906 -0.0394
 4127TIP3    H133796   1.568   6.612   1.102 -0.6267  1.2603  1.6602
 4127TIP3    H233797   1.428   6.595   1.157 -1.6192 -0.9959 -1.3192
 4128TIP3   OH233798   3.772   0.999  12.889  0.2710 -0.0395 -0.1629
 4128TIP3    H133799   3.859   1.026  12.918  0.2052 -0.6132  0.6231
 4128TIP3    H233800   3.767   0.906  12.912 -0.3266 -0.1580 -0.7487
 4129TIP3   OH233801   5.657   1.611   4.194  0.1631  0.3795 -0.1282
 4129TIP3    H133802   5.642   1.519   4.216 -1.1017  0.5433 -0.1970
 4129TIP3    H233803   5.587   1.632   4.131 -0.7297  1.8678  1.2704
 4130TIP3   OH233804   6.205   4.497  11.069 -0.1328  0.4502 -0.1500
 4130TIP3    H133805   6.254   4.515  10.989  1.4123  0.6729  0.8070
 4130TIP3    H233806   6.137   4.435  11.042  2.9982 -3.0628 -0.8976
 4131TIP3   OH233807   0.001   3.741  12.884 -0.3728  0.4505 -0.0357
 4131TIP3    H133808   0.083   3.713  12.923 -0.7396  0.5101  0.7968
 4131TIP3    H233809   0.005   3.837  12.886  0.3336  0.5006 -1.7252
 4132TIP3   OH233810   4.378   4.820  13.337 -0.6387  0.1485 -0.2658
 4132TIP3    H133811   4.305   4.865  13.380 -1.2756  0.4978 -1.6427
 4132TIP3    H233812   4.419   4.768  13.406 -0.7505  1.7503  1.0431
 4133TIP3   OH233813   5.596   3.126   3.707  0.2577  0.0191  0.0673
 4133TIP3    H133814   5.637   3.040   3.716 -0.4361 -0.3086  0.2018
 4133TIP3    H233815   5.606   3.167   3.792 -0.1475 -0.2708  0.2579
 4134TIP3   OH233816   0.595   5.781  15.702 -0.5980 -0.2693  0.7139
 4134TIP3    H133817   0.510   5.825  15.704 -0.5407 -0.1816  1.3675
 4134TIP3    H233818   0.642   5.823  15.629 -0.7727  0.3178  0.9347
 4135TIP3   OH233819   0.534   4.651   1.042 -0.0885  0.5441 -0.5688
 4135TIP3    H133820   0.589   4.730   1.038  2.1760 -0.8331  1.1287
 4135TIP3    H233821   0.528   4.632   1.136 -0.0833 -1.6154 -0.9684
 4136TIP3   OH233822   2.064   4.896  10.052 -0.3756  0.3891  1.2919
 4136TIP3    H133823   2.043   4.854  10.135  0.5553 -0.5600  1.0773
 4136TIP3    H233824   2.130   4.962  10.074 -2.0254  1.9822  1.6696
 4137TIP3   OH233825   4.600   5.379  11.948  0.1308 -0.8669 -0.2270
 4137TIP3    H133826   4.551   5.428  12.014 -1.8447 -2.5569 -0.3515
 4137TIP3    H233827   4.611   5.441  11.875 -0.1718  0.1133  0.5475
 4138TIP3   OH233828   4.903   6.423  15.673  0.3741  0.2214  0.3923
 4138TIP3    H133829   4.931   6.336  15.700  0.9188  0.2322 -0.1398
 4138TIP3    H233830   4.811   6.428  15.702 -0.0788 -1.0054 -0.7136
 4139TIP3   OH233831   1.154   6.191  12.727  0.3092 -1.1255  0.2189
 4139TIP3    H133832   1.132   6.130  12.798  0.2573 -2.2282 -0.7177
 4139TIP3    H233833   1.218   6.144  12.674  0.8958 -0.0318 -0.0752
 4140TIP3   OH233834   1.884   6.214  16.141 -0.2486  0.0240 -0.3011
 4140TIP3    H133835   1.901   6.279  16.072 -0.4357  0.7981  0.3573
 4140TIP3    H233836   1.851   6.266  16.214 -0.5238 -0.8450  0.2033
 4141TIP3   OH233837   0.932   5.976  17.133 -0.3439 -0.2124  0.1102
 4141TIP3    H133838   0.947   6.023  17.215  0.0353  0.2234 -0.2095
 4141TIP3    H233839   1.016   5.978  17.088 -0.8670  0.6321 -0.8640
 4142TIP3   OH233840   3.313   4.746  10.495 -0.1501 -0.2450 -0.3700
 4142TIP3    H133841   3.263   4.784  10.567  0.7431 -0.4393  0.3796
 4142TIP3    H233842   3.298   4.652  10.503  1.6348 -0.4673  0.9196
 4143TIP3   OH233843   1.445   6.066  14.122  0.4512 -0.1167 -0.0882
 4143TIP3    H133844   1.430   6.148  14.168  0.6109  1.4080 -2.6133
 4143TIP3    H233845   1.359   6.042  14.087  0.8739  0.3546 -1.4900
 4144TIP3   OH233846   0.159   1.521   3.971 -0.1810  0.1454  0.0672
 4144TIP3    H133847   0.162   1.441   3.919 -1.7127  0.0190  0.1344
 4144TIP3    H233848   0.222   1.580   3.929  0.0418 -0.6503 -0.7337
 4145TIP3   OH233849   4.793   4.827  13.091 -0.3181  0.2886 -0.0793
 4145TIP3    H133850   4.838   4.777  13.023 -1.8535 -0.3201 -0.6965
 4145TIP3    H233851   4.756   4.902  13.045 -1.9030 -0.4577 -0.0788
 4146TIP3   OH233852   6.392   5.442   4.362 -0.1415 -0.5831  0.1309
 4146TIP3    H133853   6.383   5.478   4.451  0.1850 -0.0602 -0.0404
 4146TIP3    H233854   6.372   5.349   4.371  0.1095 -0.5755  0.7899
 4147TIP3   OH233855   6.340   0.973  16.789  1.1921  0.1260  0.0235
 4147TIP3    H133856   6.324   0.990  16.696 -0.7226 -1.0916  0.0838
 4147TIP3    H233857   6.254   0.981  16.830  1.2171 -3.3663  0.9953
 4148TIP3   OH233858   2.868   0.865   6.115  0.4650 -0.4544  0.0525
 4148TIP3    H133859   2.821   0.884   6.034  1.3265  1.0578 -0.1392
 4148TIP3    H233860   2.849   0.939   6.173  0.1106 -1.3561  1.1380
 4149TIP3   OH233861   3.770   3.454   5.717  0.3132  0.1529 -0.5423
 4149TIP3    H133862   3.856   3.480   5.686  0.4369  1.3345  0.7129
 4149TIP3    H233863   3.712   3.526   5.691 -0.2548 -0.4917 -1.1156
 4150TIP3   OH233864   4.202   0.463   2.178 -0.1402  0.2320 -0.1455
 4150TIP3    H133865   4.185   0.538   2.234  0.0876 -1.1844  1.9103
 4150TIP3    H233866   4.297   0.462   2.166 -0.2766  1.1479 -1.5105
 4151TIP3   OH233867   4.349   1.010  17.118  0.4855  0.4221 -0.4903
 4151TIP3    H133868   4.260   0.991  17.088  0.1562  0.2733  0.5516
 4151TIP3    H233869   4.404   0.950  17.066 -0.2309 -1.0092  0.3341
 4152TIP3   OH233870   2.148   6.677  15.174 -0.2689  0.3434 -0.2546
 4152TIP3    H133871   2.062   6.637  15.164  0.2939 -1.1347  0.4719
 4152TIP3    H233872   2.189   6.668  15.088 -0.2121 -0.5327 -0.1434
 4153TIP3   OH233873   0.348   1.222  16.043 -0.4060 -0.4753 -0.4708
 4153TIP3    H133874   0.303   1.278  15.980  4.1006  3.5103 -0.7052
 4153TIP3    H233875   0.383   1.150  15.991 -1.4416 -0.3651 -1.3536
 4154TIP3   OH233876   0.285   2.929  16.942 -0.1403 -0.3519 -0.2392
 4154TIP3    H133877   0.216   2.977  16.987 -1.1297 -1.3582 -0.6433
 4154TIP3    H233878   0.275   2.839  16.971  0.6226 -0.6201 -0.7711
 4155TIP3   OH233879   6.543   0.788  11.506  0.1451 -0.5023 -0.0993
 4155TIP3    H133880   6.554   0.882  11.522  1.2180 -0.4153 -1.1429
 4155TIP3    H233881   6.471   0.783  11.443 -0.6674 -0.4708  0.8185
 4156TIP3   OH233882   0.890   5.268   4.891 -0.1785 -0.2913 -0.4277
 4156TIP3    H133883   0.814   5.325   4.882 -0.4032 -0.6388 -0.7662
 4156TIP3    H233884   0.903   5.231   4.804  1.0451  0.5966 -0.6550
 4157TIP3   OH233885   4.292   3.143  13.750  0.1858 -0.0645 -0.0255
 4157TIP3    H133886   4.213   3.150  13.698  0.4816 -0.9733 -0.6282
 4157TIP3    H233887   4.356   3.100  13.692 -0.0039 -2.7623  1.5843
 4158TIP3   OH233888   2.731   3.545  16.146  0.3583  0.2044 -0.1646
 4158TIP3    H133889   2.766   3.456  16.149 -0.5789 -0.1649  0.3135
 4158TIP3    H233890   2.779   3.587  16.075  0.9857 -0.6096 -0.2399
 4159TIP3   OH233891   0.279   2.443   3.588  0.7570 -0.2494  0.0953
 4159TIP3    H133892   0.323   2.527   3.582  1.5084 -0.6984 -1.2258
 4159TIP3    H233893   0.315   2.402   3.667  0.4083  0.6353  0.7235
 4160TIP3   OH233894   3.754   4.768  11.644 -0.2395 -0.0473  0.3682
 4160TIP3    H133895   3.726   4.805  11.560 -0.4069  1.7342  1.1677
 4160TIP3    H233896   3.842   4.801  11.657 -1.0181  1.5528  1.9044
 4161TIP3   OH233897   5.633   2.567   4.490  0.5982 -0.3319 -0.0181
 4161TIP3    H133898   5.678   2.572   4.574 -2.8047 -0.2722  2.0012
 4161TIP3    H233899   5.598   2.478   4.486 -0.0559 -0.0583 -0.9184
 4162TIP3   OH233900   4.578   3.058  13.830 -0.5399  0.0261  0.1322
 4162TIP3    H133901   4.507   2.999  13.857 -1.1660 -0.5298 -2.5211
 4162TIP3    H233902   4.553   3.143  13.866 -1.0361 -0.7141  1.6576
 4163TIP3   OH233903   0.248   0.297   6.238 -0.0089 -0.6782 -0.2466
 4163TIP3    H133904   0.312   0.314   6.168 -0.8161 -0.9864 -1.0917
 4163TIP3    H233905   0.230   0.383   6.276 -0.0095 -0.4063 -0.8418
 4164TIP3   OH233906   6.601   1.229   1.211 -0.6871 -0.1226  0.7646
 4164TIP3    H133907   6.688   1.228   1.169 -1.7942 -0.1426 -1.7025
 4164TIP3    H233908   6.610   1.290   1.284  1.1854  0.5183  0.0550
 4165TIP3   OH233909   3.343   2.265  11.183 -0.3121 -0.6044  0.1891
 4165TIP3    H133910   3.315   2.355  11.171  0.9645 -0.5240 -3.0167
 4165TIP3    H233911   3.340   2.226  11.096 -1.0137 -3.7834  1.4659
 4166TIP3   OH233912   4.872   6.569  13.157 -0.1369  0.5771 -0.2556
 4166TIP3    H133913   4.814   6.616  13.097 -2.1716 -0.3413  0.8732
 4166TIP3    H233914   4.818   6.553  13.234  1.5186 -0.7281  0.6906
 4167TIP3   OH233915   1.345   1.607   2.800  0.2729  0.1296  0.1946
 4167TIP3    H133916   1.410   1.540   2.820  0.9110  0.4283 -0.8162
 4167TIP3    H233917   1.372   1.643   2.716 -0.0785  1.6296  0.6851
 4168TIP3   OH233918   4.686   0.454   1.974  0.0220  0.2438 -0.8601
 4168TIP3    H133919   4.724   0.373   1.942  1.0428  0.8277 -1.1702
 4168TIP3    H233920   4.758   0.517   1.972 -0.8590  1.2757 -1.0624
 4169TIP3   OH233921   6.415   4.285   4.712 -0.4544 -0.7955  0.2695
 4169TIP3    H133922   6.459   4.256   4.792 -1.2516 -0.1372  0.9628
 4169TIP3    H233923   6.466   4.361   4.682 -1.0396 -0.0832  1.0280
 4170TIP3   OH233924   4.958   2.395  14.603 -0.1843 -0.5247  0.0604
 4170TIP3    H133925   4.927   2.485  14.604 -2.7244 -1.3046 -1.0874
 4170TIP3    H233926   4.993   2.382  14.515 -0.5234 -0.8755 -0.0234
 4171TIP3   OH233927   1.778   2.960  16.491  0.0223 -0.0949 -0.8890
 4171TIP3    H133928   1.822   2.887  16.534  2.5872  1.7554 -0.1057
 4171TIP3    H233929   1.685   2.939  16.497  0.2823 -0.9994  3.7829
 4172TIP3   OH233930   2.063   3.143   5.025 -0.1936  0.2541  0.3706
 4172TIP3    H133931   2.061   3.047   5.030  0.9968  0.2840  2.6363
 4172TIP3    H233932   2.089   3.161   4.934  0.9188 -1.6098  0.2580
 4173TIP3   OH233933   0.160   1.245   3.961 -0.2649 -0.4502 -0.6519
 4173TIP3    H133934   0.254   1.267   3.958 -0.2481  0.1177  1.7246
 4173TIP3    H233935   0.155   1.168   4.018 -1.3146  0.2091  0.1910
 4174TIP3   OH233936   4.575   3.037  16.692  0.1442 -0.1898 -0.0770
 4174TIP3    H133937   4.482   3.027  16.673  0.0203 -0.0299  0.4476
 4174TIP3    H233938   4.600   3.118  16.648 -0.0436 -0.0453  0.0836
 4175TIP3   OH233939   0.380   5.330   3.298 -0.0223  0.3758  0.0346
 4175TIP3    H133940   0.358   5.423   3.290  1.5778  0.6887 -1.3416
 4175TIP3    H233941   0.472   5.329   3.323 -0.4403 -0.8713  1.6484
 4176TIP3   OH233942   5.938   1.029   3.577  0.1694 -0.4457 -0.0539
 4176TIP3    H133943   5.891   1.010   3.658 -1.4661 -0.9102 -1.0717
 4176TIP3    H233944   5.954   1.123   3.580 -0.0505 -0.4269  0.7138
 4177TIP3   OH233945   6.798   4.222   3.741  0.2339  0.6901  0.1901
 4177TIP3    H133946   6.850   4.150   3.705 -0.6575 -0.2111  0.6597
 4177TIP3    H233947   6.740   4.180   3.805  1.0671  2.1028  1.9473
 4178TIP3   OH233948   4.775   5.379   2.729 -0.8079 -0.0864 -0.3939
 4178TIP3    H133949   4.843   5.409   2.669  0.5359 -1.2594  0.4785
 4178TIP3    H233950   4.741   5.299   2.689  0.7817 -1.4339  0.7836
 4179TIP3   OH233951   2.153   4.493   2.265 -0.2429 -0.0469 -0.4745
 4179TIP3    H133952   2.178   4.431   2.195 -1.0118  2.4337 -3.1477
 4179TIP3    H233953   2.058   4.486   2.270 -0.2512  0.2990 -0.1449
 4180TIP3   OH233954   1.535   3.954   4.539 -0.2079 -0.0529  0.5452
 4180TIP3    H133955   1.510   4.036   4.497 -1.1731  0.8050  2.6583
 4180TIP3    H233956   1.485   3.952   4.620  2.0790 -1.2451  2.0568
 4181TIP3   OH233957   4.797   2.992  15.303 -0.2099 -0.3535  0.4560
 4181TIP3    H133958   4.759   3.076  15.330 -3.5474  0.0321 -4.1413
 4181TIP3    H233959   4.744   2.926  15.350 -2.0502  0.2418 -0.6652
 4182TIP3   OH233960   5.523   1.017  12.811 -0.4000  0.2208 -0.1876
 4182TIP3    H133961   5.497   0.984  12.897 -0.2574  0.3209 -0.1050
 4182TIP3    H233962   5.491   0.951  12.750  1.5956 -1.1367  0.1070
 4183TIP3   OH233963   5.418   2.666  15.022  0.2271 -0.6653  0.3285
 4183TIP3    H133964   5.495   2.702  15.066  0.0250  0.1629  0.0275
 4183TIP3    H233965   5.402   2.725  14.948  0.6844 -2.1281 -1.0036
 4184TIP3   OH233966   2.726   5.891  15.359  0.4630  0.4009  0.0799
 4184TIP3    H133967   2.703   5.976  15.396  1.1313  1.0312 -0.9195
 4184TIP3    H233968   2.816   5.877  15.385 -0.0655 -0.6771  1.4394
 4185TIP3   OH233969   4.253   4.069   3.226 -0.2393 -0.2409 -0.1519
 4185TIP3    H133970   4.292   4.151   3.197 -1.6196 -0.2797 -2.3477
 4185TIP3    H233971   4.324   4.005   3.221  0.5168  0.5399  0.3357
 4186TIP3   OH233972   3.263   1.204   3.648  0.1125  0.1490  0.1959
 4186TIP3    H133973   3.174   1.186   3.677 -0.8803  0.4169 -2.3629
 4186TIP3    H233974   3.260   1.189   3.553  3.3926 -2.1407  0.3082
 4187TIP3   OH233975   3.340   0.679   5.584 -0.5667  0.1231 -0.0764
 4187TIP3    H133976   3.275   0.727   5.532 -0.5213 -0.4916 -0.7196
 4187TIP3    H233977   3.405   0.744   5.607 -0.9340  0.5496 -0.2278
 4188TIP3   OH233978   1.335   0.928   1.605  0.2395 -0.1433  0.2962
 4188TIP3    H133979   1.362   0.897   1.691  0.2573  0.0217  0.3492
 4188TIP3    H233980   1.263   0.988   1.622  1.1200  0.9542  0.3076
 4189TIP3   OH233981   2.938   5.623   3.172 -0.4377 -0.0433  0.0005
 4189TIP3    H133982   3.024   5.620   3.215  1.1215  0.1697 -2.8271
 4189TIP3    H233983   2.911   5.714   3.179  0.2762  0.2001 -0.3453
 4190TIP3   OH233984   4.247   2.940  15.069  0.3839 -0.3076 -0.6182
 4190TIP3    H133985   4.210   3.005  15.010 -0.7478 -1.4708 -1.2464
 4190TIP3    H233986   4.294   2.991  15.135  1.3020  1.0415 -2.2499
 4191TIP3   OH233987   0.540   5.479  14.701  0.2210  0.1455 -0.5671
 4191TIP3    H133988   0.461   5.439  14.738  0.0016 -0.3652 -1.5327
 4191TIP3    H233989   0.612   5.437  14.746 -0.0007  2.1783  1.9503
 4192TIP3   OH233990   3.947   6.474  11.820  0.5327 -0.0128  0.1468
 4192TIP3    H133991   3.946   6.420  11.899 -0.5711  0.4027  0.4396
 4192TIP3    H233992   4.000   6.551  11.843 -0.6239  0.6020  0.8507
 4193TIP3   OH233993   4.491   4.977  12.171  0.0912  0.7690  0.3209
 4193TIP3    H133994   4.498   5.014  12.083 -1.8405  0.4210 -0.0468
 4193TIP3    H233995   4.475   4.883  12.156 -0.6923  0.7797  0.9952
 4194TIP3   OH233996   3.358   5.674  15.073 -0.7494 -0.3432  0.0312
 4194TIP3    H133997   3.330   5.754  15.028 -0.4706  1.0363  2.1700
 4194TIP3    H233998   3.436   5.701  15.122 -0.3108 -2.1031  0.3595
 4195TIP3   OH233999   2.425   0.303   2.858 -0.5556 -0.4094  0.4584
 4195TIP3    H134000   2.359   0.298   2.789  0.0854 -0.1815 -0.1844
 4195TIP3    H234001   2.375   0.299   2.940 -1.3346 -0.5316 -0.0158
 4196TIP3   OH234002   4.898   4.481  15.907 -0.1276 -0.6217  0.3757
 4196TIP3    H134003   4.917   4.522  15.991  1.8132 -1.0339  0.1678
 4196TIP3    H234004   4.824   4.531  15.873 -0.1716  0.3209  1.7756
 4197TIP3   OH234005   6.579   6.726  11.144 -0.0023 -0.2234  0.1765
 4197TIP3    H134006   6.639   6.798  11.125 -0.0016 -0.3017 -0.1187
 4197TIP3    H234007   6.604   6.657  11.082 -1.2815  0.2273 -0.8927
 4198TIP3   OH234008   1.879   1.416   0.586 -0.1461  0.4091  0.1540
 4198TIP3    H134009   1.787   1.432   0.606 -0.8799 -2.4015 -0.4945
 4198TIP3    H234010   1.894   1.325   0.613  1.6453 -0.1136 -2.2669
 4199TIP3   OH234011   4.831   4.089  15.229 -0.0427 -0.0429  0.5177
 4199TIP3    H134012   4.875   4.047  15.156  0.1751  0.1998  0.5088
 4199TIP3    H234013   4.776   4.157  15.189  1.0543  0.9612  0.6571
 4200TIP3   OH234014   2.033   3.165  12.834  0.2683 -0.2603  0.0363
 4200TIP3    H134015   1.968   3.201  12.894 -0.8787 -1.3095 -0.5323
 4200TIP3    H234016   2.104   3.135  12.890  0.4901  1.3005  0.6401
 4201TIP3   OH234017   2.905   2.771  11.990 -0.1869 -0.3283  0.1738
 4201TIP3    H134018   2.965   2.745  11.920 -0.7232  0.6387 -0.6804
 4201TIP3    H234019   2.891   2.864  11.975 -0.5778 -0.1854  1.3810
 4202TIP3   OH234020   2.395   1.045  12.318 -0.1345 -0.1371 -0.1716
 4202TIP3    H134021   2.324   1.108  12.326 -0.7459 -0.8805  0.4103
 4202TIP3    H234022   2.416   1.020  12.409  1.4712  0.7133 -0.2666
 4203TIP3   OH234023   0.078   2.504  10.587  0.0720 -0.0401 -0.4876
 4203TIP3    H134024  -0.009   2.480  10.553  1.1459 -2.2167 -1.9045
 4203TIP3    H234025   0.121   2.421  10.603  1.2291  0.9936  2.1840
 4204TIP3   OH234026   4.659   0.659  10.637 -0.3545 -0.4720 -0.4676
 4204TIP3    H134027   4.585   0.700  10.593 -1.3482 -1.2849  0.3999
 4204TIP3    H234028   4.676   0.715  10.713 -0.5185 -0.6525 -0.2973
 4205TIP3   OH234029   6.687   3.119   0.927 -0.0625  0.3853 -0.6592
 4205TIP3    H134030   6.772   3.107   0.884  0.0965  0.5538 -0.3982
 4205TIP3    H234031   6.699   3.078   1.013  0.0142  1.1219 -0.3136
 4206TIP3   OH234032   4.221   3.708   1.874 -0.4778 -0.1329  0.6580
 4206TIP3    H134033   4.216   3.797   1.837  1.6487 -1.1773 -2.6111
 4206TIP3    H234034   4.314   3.696   1.893 -0.6115 -1.8847  0.3521
 4207TIP3   OH234035   6.711   1.713  11.845  0.4175  0.1761  0.2477
 4207TIP3    H134036   6.684   1.803  11.827 -0.6108 -0.3737 -1.1201
 4207TIP3    H234037   6.637   1.659  11.815  1.3410 -1.1661  0.2866
 4208TIP3   OH234038   3.169   5.304  14.192  0.4564  0.0916  0.1537
 4208TIP3    H134039   3.095   5.341  14.144  0.5432 -1.0882 -0.9414
 4208TIP3    H234040   3.129   5.259  14.267 -0.2378 -2.3486 -1.5416
 4209TIP3   OH234041   0.034   6.423  15.523 -0.8330 -0.5691 -0.4796
 4209TIP3    H134042  -0.021   6.442  15.447 -1.1359 -1.1257 -0.4042
 4209TIP3    H234043  -0.012   6.354  15.570 -0.4503 -0.5059  0.0017
 4210TIP3   OH234044   6.373   4.969   3.285  0.1028  0.3893  0.1748
 4210TIP3    H134045   6.397   4.920   3.363 -2.3374 -0.6674  0.3651
 4210TIP3    H234046   6.331   5.048   3.320  1.4295  1.2593 -0.1270
 4211TIP3   OH234047   1.044   6.775   4.820  0.1264 -0.1131 -0.2792
 4211TIP3    H134048   1.015   6.734   4.739  0.7933 -0.9584 -0.1179
 4211TIP3    H234049   1.091   6.705   4.866 -0.3461  0.3109  0.8883
 4212TIP3   OH234050   5.754   3.634   0.887 -0.1324  0.0822  0.0104
 4212TIP3    H134051   5.838   3.622   0.932  0.4674  0.5306 -0.9624
 4212TIP3    H234052   5.778   3.650   0.795 -1.3119 -0.4028 -0.3917
 4213TIP3   OH234053   0.414   5.992   2.599 -0.2523 -0.0182 -0.2988
 4213TIP3    H134054   0.472   6.068   2.591 -0.9156  0.7524  1.5930
 4213TIP3    H234055   0.340   6.013   2.542  0.6059 -0.3408 -1.5832
 4214TIP3   OH234056   3.732   5.443  12.215  0.3069 -0.1863 -0.6085
 4214TIP3    H134057   3.750   5.528  12.257  0.2332  0.8631 -2.5573
 4214TIP3    H234058   3.643   5.421  12.242  0.2949  0.4120 -0.1376
 4215TIP3   OH234059   4.859   5.769  12.363  0.1595  0.2240  0.5079
 4215TIP3    H134060   4.926   5.721  12.315  0.9922  0.2643  1.6026
 4215TIP3    H234061   4.777   5.749  12.317  0.8863  0.0359 -0.7399
 4216TIP3   OH234062   5.230   4.811  15.201  0.3596  0.3000 -0.0599
 4216TIP3    H134063   5.189   4.861  15.272 -1.3671 -2.0813  0.7528
 4216TIP3    H234064   5.294   4.755  15.245 -0.0593 -0.5307 -0.4834
 4217TIP3   OH234065   0.289   1.107  14.987 -0.6320  0.2073  0.6596
 4217TIP3    H134066   0.237   1.040  15.032 -0.5101  0.0140  0.5150
 4217TIP3    H234067   0.280   1.086  14.894  0.4131 -0.3684  0.6619
 4218TIP3   OH234068   5.463   3.199  15.003 -0.1473 -0.1120 -0.0124
 4218TIP3    H134069   5.430   3.231  14.920  2.2638  0.4193 -0.8409
 4218TIP3    H234070   5.499   3.276  15.046  0.9402 -0.7923  0.3521
 4219TIP3   OH234071   1.680   3.873   3.864 -0.3371  0.6801  0.5283
 4219TIP3    H134072   1.621   3.903   3.795 -0.0483  1.2168  0.5083
 4219TIP3    H234073   1.740   3.812   3.820 -0.0552  1.1413  0.2722
 4220TIP3   OH234074   4.952   5.614   0.271  0.8343  0.1654  0.0246
 4220TIP3    H134075   5.025   5.555   0.252  1.1330  1.1531 -2.1179
 4220TIP3    H234076   4.906   5.623   0.188 -1.8849 -0.5541  1.3368
 4221TIP3   OH234077   1.929   5.840   3.015  0.1060 -0.4944 -0.7271
 4221TIP3    H134078   1.841   5.811   2.993 -0.7833  1.2421  0.2655
 4221TIP3    H234079   1.955   5.896   2.942  0.9992 -2.0684 -1.6776
 4222TIP3   OH234080   0.211   5.974   1.845  0.0229 -0.4403 -0.0735
 4222TIP3    H134081   0.150   5.976   1.772 -1.6543  0.3713  1.2975
 4222TIP3    H234082   0.157   5.985   1.923  1.7846 -0.9377  1.3024
 4223TIP3   OH234083   1.535   2.158   3.696 -0.3275  0.6661 -0.2844
 4223TIP3    H134084   1.538   2.174   3.791  0.8591  0.9777 -0.3592
 4223TIP3    H234085   1.467   2.218   3.664  0.3534  1.7199  0.1724
 4224TIP3   OH234086   1.026   3.538  15.239 -0.2566 -0.4567 -1.0854
 4224TIP3    H134087   0.975   3.558  15.317  0.1956  0.2033 -0.9574
 4224TIP3    H234088   1.077   3.617  15.222  1.6656 -1.5167 -0.4881
 4225TIP3   OH234089   0.735   1.838  14.365  0.3398 -0.0851  0.9015
 4225TIP3    H134090   0.667   1.905  14.354 -0.2792 -0.9259 -0.8896
 4225TIP3    H234091   0.686   1.759  14.391  0.7772 -0.4072  0.7490
 4226TIP3   OH234092   3.085   4.248   3.327  0.4843  0.3967  0.1556
 4226TIP3    H134093   3.036   4.310   3.381  0.5113 -0.7680  1.5812
 4226TIP3    H234094   3.176   4.278   3.331  0.3798  0.7140  0.1692
 4227TIP3   OH234095   2.460   0.212  15.855  0.3467 -0.3364 -0.4561
 4227TIP3    H134096   2.482   0.119  15.865  0.3896 -0.2341  0.5179
 4227TIP3    H234097   2.370   0.212  15.823  0.4447 -0.7177 -0.7324
 4228TIP3   OH234098   4.067   4.361   2.890 -0.4597 -0.0541  0.2739
 4228TIP3    H134099   3.989   4.306   2.892 -0.1048 -0.6399 -0.9498
 4228TIP3    H234100   4.140   4.299   2.893 -0.0439  0.4064 -0.1901
 4229TIP3   OH234101   5.354   6.495   3.831 -0.7198 -0.2657 -0.4012
 4229TIP3    H134102   5.346   6.410   3.786 -1.2200  0.7843 -2.4201
 4229TIP3    H234103   5.315   6.558   3.770 -1.3623  1.2943  1.5177
 4230TIP3   OH234104   1.693   4.818  16.140  0.0661 -0.2009  0.2246
 4230TIP3    H134105   1.682   4.853  16.051  0.8916 -1.5006 -0.4142
 4230TIP3    H234106   1.758   4.876  16.180 -1.3213  1.2442  0.5056
 4231TIP3   OH234107   4.191   3.761   4.823 -0.5977  0.3580  0.4450
 4231TIP3    H134108   4.264   3.816   4.850 -1.5117  1.8045  0.0891
 4231TIP3    H234109   4.119   3.823   4.808 -1.9392 -1.0240  0.9221
 4232TIP3   OH234110   3.788   4.562  11.973  0.3035 -0.4537 -0.4354
 4232TIP3    H134111   3.748   4.483  11.937 -1.3789 -0.0349  0.4283
 4232TIP3    H234112   3.731   4.633  11.943  1.4343  0.3773 -0.6687
 4233TIP3   OH234113   1.360   1.828   6.299  0.5096 -0.1108  0.7819
 4233TIP3    H134114   1.374   1.756   6.238  0.0340 -0.6195  1.2506
 4233TIP3    H234115   1.291   1.796   6.357 -0.0683  0.9209  0.6905
 4234TIP3   OH234116   6.502   5.196   4.716 -0.8198  0.5734 -0.1246
 4234TIP3    H134117   6.494   5.117   4.662 -0.3755 -0.3856  1.1669
 4234TIP3    H234118   6.580   5.240   4.682 -0.7601  0.1828 -0.5029
 4235TIP3   OH234119   3.996   5.620  12.141 -0.2347 -0.0086  0.2960
 4235TIP3    H134120   3.908   5.599  12.174 -0.4840 -0.0234 -0.3625
 4235TIP3    H234121   4.050   5.546  12.170 -0.8193 -0.9068 -0.7926
 4236TIP3   OH234122   6.277   5.386   2.280  0.2426  0.0642 -0.5789
 4236TIP3    H134123   6.305   5.390   2.371  1.4228  1.5963 -0.9679
 4236TIP3    H234124   6.356   5.362   2.231 -0.4488 -1.0650 -1.2000
 4237TIP3   OH234125   5.264   2.890  15.851 -0.1199 -0.0786 -0.3538
 4237TIP3    H134126   5.251   2.900  15.946  0.5267  2.2144 -0.4514
 4237TIP3    H234127   5.359   2.894  15.839 -0.2058 -0.2534 -1.1227
 4238TIP3   OH234128   2.602   3.292  13.051  0.2357  0.4712 -0.4955
 4238TIP3    H134129   2.534   3.258  12.993  0.7578  0.7529 -1.3013
 4238TIP3    H234130   2.584   3.385  13.058 -3.0399 -0.1799  4.1808
 4239TIP3   OH234131   6.721   3.983  13.766 -0.2094 -0.1691 -0.1763
 4239TIP3    H134132   6.705   4.059  13.822 -1.4293 -2.0955  2.2689
 4239TIP3    H234133   6.645   3.980  13.708 -0.7282 -0.1367  0.4899
 4240TIP3   OH234134   6.728   0.892  15.469  0.8015 -0.3106 -0.1217
 4240TIP3    H134135   6.724   0.802  15.436 -1.8270 -0.5505  0.6082
 4240TIP3    H234136   6.781   0.886  15.548 -2.1733 -2.0723  1.9824
 4241TIP3   OH234137   5.223   4.686  15.973 -0.1664 -0.1004 -0.5142
 4241TIP3    H134138   5.207   4.641  16.056 -1.8630  0.6594 -0.3923
 4241TIP3    H234139   5.235   4.778  15.996  0.2484 -0.0138 -1.0390
 4242TIP3   OH234140   4.332   0.777  16.327  0.1665 -0.8777 -0.4987
 4242TIP3    H134141   4.239   0.755  16.332  0.2510 -1.0129  3.3731
 4242TIP3    H234142   4.368   0.716  16.263 -2.4568 -0.3163 -2.6886
 4243TIP3   OH234143   2.576   6.684   4.624  0.0365  0.2379  0.0890
 4243TIP3    H134144   2.512   6.720   4.563 -0.5538 -0.2638  0.4027
 4243TIP3    H234145   2.524   6.654   4.699  0.5816 -0.6452  0.1235
 4244TIP3   OH234146   3.921   3.297   0.136 -0.3904 -0.4711 -0.3551
 4244TIP3    H134147   3.945   3.389   0.127 -0.2473 -0.5034 -0.3057
 4244TIP3    H234148   3.949   3.273   0.224  1.3023 -1.0678 -1.0161
 4245TIP3   OH234149   4.933   4.805   1.827  0.7943  0.3085 -0.8266
 4245TIP3    H134150   4.907   4.749   1.754  0.1446  0.7479 -0.9424
 4245TIP3    H234151   5.028   4.797   1.831  0.6027 -4.0091  1.6854
 4246TIP3   OH234152   6.314   3.637   0.870 -0.3971  0.2449 -0.2379
 4246TIP3    H134153   6.399   3.676   0.891  0.3236 -0.3892 -1.8195
 4246TIP3    H234154   6.335   3.554   0.828 -1.7400  0.5075 -1.5487
 4247TIP3   OH234155   5.933   3.899  15.144  0.3082  0.0122 -0.2394
 4247TIP3    H134156   5.850   3.860  15.117 -0.4384  0.7428  0.9326
 4247TIP3    H234157   5.966   3.840  15.213  0.7022 -0.2000 -0.6034
 4248TIP3   OH234158   0.232   0.369   5.708 -0.4579 -0.2089 -0.4193
 4248TIP3    H134159   0.171   0.309   5.666 -1.3781  1.2739 -1.2745
 4248TIP3    H234160   0.189   0.397   5.788 -0.0028 -0.7309  0.0125
 4249TIP3   OH234161   1.584   1.217  14.254  0.9412 -0.1315 -0.3892
 4249TIP3    H134162   1.489   1.211  14.270  1.2509  0.4828  2.0404
 4249TIP3    H234163   1.599   1.309  14.235  1.2423  0.1644  1.1151
 4250TIP3   OH234164   0.308   3.348   3.748 -0.1623  0.3651  0.2659
 4250TIP3    H134165   0.243   3.414   3.725 -0.3427 -0.0915 -0.5880
 4250TIP3    H234166   0.299   3.281   3.680  1.7085  0.6545 -0.3457
 4251TIP3   OH234167   6.518   6.014  15.483  0.3584 -0.2664 -0.4157
 4251TIP3    H134168   6.480   6.075  15.420  0.0593 -0.9546 -0.9181
 4251TIP3    H234169   6.466   6.026  15.562 -0.6804 -0.9214 -0.9783
 4252TIP3   OH234170   5.484   1.968  13.204  0.2447 -0.2346  0.0542
 4252TIP3    H134171   5.508   2.007  13.120  0.0660  1.5073  0.7791
 4252TIP3    H234172   5.563   1.977  13.258 -0.5709  1.4891  1.0276
 4253TIP3   OH234173   5.888   4.055   0.216 -0.0767  0.2513 -0.0906
 4253TIP3    H134174   5.939   4.136   0.207  0.6698 -0.4192 -2.7970
 4253TIP3    H234175   5.816   4.065   0.155 -0.3743 -0.8402  0.0632
 4254TIP3   OH234176   5.522   1.535   2.469  0.3727  0.4052 -0.6222
 4254TIP3    H134177   5.558   1.597   2.532 -1.7055  1.9178 -0.8493
 4254TIP3    H234178   5.507   1.455   2.520  1.8513  0.4794 -0.0265
 4255TIP3   OH234179   5.597   5.056  15.879  0.4186  0.6400  0.2917
 4255TIP3    H134180   5.648   4.978  15.904 -0.4362 -0.8810 -2.2793
 4255TIP3    H234181   5.507   5.033  15.900  0.1366  0.8232 -0.6732
 4256TIP3   OH234182   0.443   2.727   0.236 -0.2780  0.5143  0.7224
 4256TIP3    H134183   0.478   2.757   0.320  1.6197  0.1905  0.0907
 4256TIP3    H234184   0.430   2.808   0.185  2.1662  0.5556  0.0298
 4257TIP3   OH234185   3.196   4.607   5.562 -0.1888 -0.2398 -0.0489
 4257TIP3    H134186   3.145   4.682   5.534 -0.0325 -0.0598  0.1426
 4257TIP3    H234187   3.138   4.532   5.550 -0.1828 -0.1489 -0.6950
 4258TIP3   OH234188   1.343   5.457  15.558  0.0663 -0.4449 -0.1154
 4258TIP3    H134189   1.307   5.464  15.470  0.2612  1.1980 -0.0861
 4258TIP3    H234190   1.273   5.489  15.615 -0.3321 -2.1689  0.4274
 4259TIP3   OH234191   1.684   3.222   0.068  0.0968  0.5204  0.5816
 4259TIP3    H134192   1.643   3.295   0.021 -2.5706 -1.2217  0.0211
 4259TIP3    H234193   1.706   3.159   0.000  0.1135 -0.2482  1.2887
 4260TIP3   OH234194   3.377   1.231   5.274  0.7806 -0.1595  0.0721
 4260TIP3    H134195   3.437   1.189   5.336  0.9079 -1.2695 -0.7519
 4260TIP3    H234196   3.401   1.323   5.275  1.5701 -0.3625  0.7879
 4261TIP3   OH234197   2.386   3.770   0.494  0.3039 -0.3018  0.1919
 4261TIP3    H134198   2.351   3.859   0.500 -1.5415 -0.8312 -1.6217
 4261TIP3    H234199   2.309   3.714   0.506  1.2139 -1.6243 -0.0002
 4262TIP3   OH234200   2.064   2.703   6.355  0.1011 -0.3785 -0.2503
 4262TIP3    H134201   2.012   2.634   6.315 -0.4269  1.5031 -3.1575
 4262TIP3    H234202   2.005   2.778   6.360  1.4971  0.7595 -0.1414
 4263TIP3   OH234203   5.538   1.330  15.184  0.4135  0.0425  0.6001
 4263TIP3    H134204   5.618   1.306  15.230  0.3264  0.4412  0.9687
 4263TIP3    H234205   5.473   1.343  15.254  0.1838  0.2910  0.3442
 4264TIP3   OH234206   0.958   2.755  16.759 -0.0741  0.0248 -0.1054
 4264TIP3    H134207   1.011   2.697  16.704  1.6436 -0.0431  1.5258
 4264TIP3    H234208   1.021   2.802  16.813 -1.5893  1.4405  0.5390
 4265TIP3   OH234209   1.798   2.545   1.309  0.5147 -0.0304  0.1213
 4265TIP3    H134210   1.778   2.492   1.232 -1.4244  1.0507 -0.1725
 4265TIP3    H234211   1.763   2.494   1.383 -0.4056  0.3387 -0.0514
 4266TIP3   OH234212   2.366   5.681  15.479  0.1065  0.5757 -0.0271
 4266TIP3    H134213   2.309   5.757  15.484  0.8461  1.0951  0.9186
 4266TIP3    H234214   2.340   5.636  15.398 -0.2656  1.8728 -0.6487
 4267TIP3   OH234215   6.028   1.950   5.210 -0.5274  0.0513 -0.1436
 4267TIP3    H134216   5.973   1.998   5.148  1.7783  1.0517 -1.5449
 4267TIP3    H234217   6.008   1.857   5.193 -1.2731  0.3670 -1.0758
 4268TIP3   OH234218   0.591   4.813   3.572 -0.7780 -0.3677 -0.3605
 4268TIP3    H134219   0.645   4.809   3.493  0.9353 -0.6436  0.7881
 4268TIP3    H234220   0.650   4.843   3.641 -2.3130  0.1793  0.7860
 4269TIP3   OH234221   6.271   2.545   3.817 -0.0602  0.7902  0.2422
 4269TIP3    H134222   6.200   2.558   3.880  1.4537 -0.1258  2.2215
 4269TIP3    H234223   6.307   2.632   3.803 -2.1404  1.4550 -1.6103
 4270TIP3   OH234224   3.627   3.608   5.394 -0.0212 -0.6298 -0.5237
 4270TIP3    H134225   3.639   3.564   5.310  1.4132  0.1240 -0.7453
 4270TIP3    H234226   3.550   3.664   5.382  0.2490 -0.4321 -1.3880
 4271TIP3   OH234227   1.597   4.106  13.456 -0.2457  0.4867  0.6212
 4271TIP3    H134228   1.519   4.143  13.413  0.2413  2.2695  1.1672
 4271TIP3    H234229   1.564   4.031  13.505 -1.4332  0.5612 -0.0265
 4272TIP3   OH234230   3.268   0.943  11.944  0.2286 -0.2078 -0.1027
 4272TIP3    H134231   3.348   0.988  11.918 -0.2372  0.2327 -0.7776
 4272TIP3    H234232   3.209   1.012  11.973  0.3983 -0.6050  1.2699
 4273TIP3   OH234233   0.023   4.126   5.639  0.0801  0.4013 -0.4226
 4273TIP3    H134234   0.043   4.173   5.720 -0.6543  1.4800 -0.8464
 4273TIP3    H234235  -0.054   4.171   5.604 -1.0512 -1.5336 -0.5295
 4274TIP3   OH234236   0.602   0.019  10.487  0.5987 -0.0613 -0.1113
 4274TIP3    H134237   0.605  -0.041  10.413 -1.9399 -1.3526  0.7251
 4274TIP3    H234238   0.551   0.094  10.457 -0.7085 -0.7317  0.3929
 4275TIP3   OH234239   3.777   6.006  14.424 -0.2477  0.6490 -0.1656
 4275TIP3    H134240   3.856   6.044  14.385 -0.0503  1.3228  0.8783
 4275TIP3    H234241   3.795   5.912  14.425  0.1928  0.7197 -0.6954
 4276TIP3   OH234242   3.897   4.541  14.465 -0.3003  0.2672  0.4469
 4276TIP3    H134243   3.981   4.511  14.502  0.7393  1.0430 -1.1844
 4276TIP3    H234244   3.844   4.461  14.460  1.2196 -0.7201 -0.7357
 4277TIP3   OH234245   0.742   2.244   1.497 -0.2726 -0.0582 -0.0883
 4277TIP3    H134246   0.767   2.180   1.564 -0.7839  0.2130  0.3596
 4277TIP3    H234247   0.663   2.285   1.531  1.2814  2.4649  0.7291
 4278TIP3   OH234248   6.625   1.753   0.124  0.2625 -0.4514 -0.0249
 4278TIP3    H134249   6.668   1.775   0.041  0.8542 -0.6673  0.2187
 4278TIP3    H234250   6.675   1.801   0.190  1.5277 -2.4017  0.5128
 4279TIP3   OH234251   1.904   3.228   3.632 -0.1563  0.3993  0.5409
 4279TIP3    H134252   1.822   3.233   3.582  0.9525  1.4541 -1.2450
 4279TIP3    H234253   1.878   3.186   3.715 -2.2358 -0.5154 -0.4919
 4280TIP3   OH234254   1.702   2.747   0.636 -0.4959  0.8233  0.6398
 4280TIP3    H134255   1.772   2.733   0.700  0.2314  2.5613  0.2799
 4280TIP3    H234256   1.683   2.841   0.642 -0.1377  1.1189 -1.9781
 4281TIP3   OH234257   2.686   0.585   0.726  0.0210 -0.2738 -0.0439
 4281TIP3    H134258   2.628   0.548   0.659  0.1170 -1.6941  0.6218
 4281TIP3    H234259   2.631   0.644   0.776 -0.2079  0.3243 -0.9675
 4282TIP3   OH234260   1.896   2.658   3.401  0.1841  0.1682  0.7660
 4282TIP3    H134261   1.863   2.583   3.351  0.1005  1.1214 -0.6873
 4282TIP3    H234262   1.877   2.637   3.492 -1.5201 -0.7651  0.2451
 4283TIP3   OH234263   1.922   2.614   4.122 -0.2793 -0.0656  0.1695
 4283TIP3    H134264   1.976   2.651   4.053 -0.9769  0.7788  0.0726
 4283TIP3    H234265   1.985   2.570   4.180  0.2895 -0.9619 -1.0858
 4284TIP3   OH234266   1.944   1.187   4.656  0.0420  0.0695  0.0802
 4284TIP3    H134267   1.948   1.091   4.650 -1.1923 -0.0202  0.4204
 4284TIP3    H234268   2.028   1.212   4.694  0.9529 -0.7458 -1.3050
 4285TIP3   OH234269   0.239   5.355   0.265  0.1040 -0.4750  1.0759
 4285TIP3    H134270   0.157   5.390   0.229 -0.6227 -1.7915  1.3869
 4285TIP3    H234271   0.275   5.300   0.196  1.1190  0.6412  0.6773
 4286TIP3   OH234272   5.961   3.847   2.831  0.6842  0.2545 -0.1116
 4286TIP3    H134273   5.920   3.805   2.755  0.1493 -0.5915  0.6245
 4286TIP3    H234274   5.892   3.902   2.868  1.0451  0.9251 -0.4224
 4287TIP3   OH234275   3.756   4.493   4.974 -0.1165  0.0843  0.0050
 4287TIP3    H134276   3.717   4.475   5.060 -0.4620  1.2249  0.1123
 4287TIP3    H234277   3.848   4.470   4.984 -0.1913  0.0285  0.6283
 4288TIP3   OH234278   3.487   4.462  14.303 -0.0575 -0.4754  0.4869
 4288TIP3    H134279   3.431   4.450  14.226  0.0777  0.1169  0.2882
 4288TIP3    H234280   3.427   4.457  14.377 -0.6638  1.6700  0.2105
 4289TIP3   OH234281   5.131   3.938   3.535 -0.0954 -0.2006  0.3343
 4289TIP3    H134282   5.075   3.868   3.569  0.4191 -0.4978  0.5788
 4289TIP3    H234283   5.209   3.935   3.590  0.4141 -0.1723 -0.3701
 4290TIP3   OH234284   1.603   4.943  10.683 -0.5215  0.3496  0.1028
 4290TIP3    H134285   1.697   4.947  10.703 -0.6380 -0.7609  0.9539
 4290TIP3    H234286   1.589   5.015  10.621  1.0153  0.0980 -0.5884
 4291TIP3   OH234287   0.702   4.425   4.493  0.1009  0.1534  0.1985
 4291TIP3    H134288   0.748   4.374   4.426  1.0410  0.3546  0.6682
 4291TIP3    H234289   0.760   4.421   4.570 -1.1893 -0.4734  1.1686
 4292TIP3   OH234290   0.936   1.104   4.420 -0.5678 -0.5846 -0.0509
 4292TIP3    H134291   0.984   1.134   4.497  1.2687 -0.5773 -1.1426
 4292TIP3    H234292   0.994   1.041   4.379 -1.6295 -0.7816 -1.3129
 4293TIP3   OH234293   5.077   1.428   1.275  0.3589 -0.0073  0.2275
 4293TIP3    H134294   5.083   1.438   1.370 -0.5122  2.5405  0.0916
 4293TIP3    H234295   5.107   1.511   1.240 -1.8199  0.1299 -1.5952
 4294TIP3   OH234296   0.293   5.117   2.546 -0.3300  0.4018  0.2420
 4294TIP3    H134297   0.365   5.179   2.531 -0.4748  0.5704  0.2523
 4294TIP3    H234298   0.315   5.076   2.630  0.0800  0.0039 -0.0508
 4295TIP3   OH234299   1.064   3.475  15.569  0.1699  0.6381  0.8398
 4295TIP3    H134300   1.055   3.415  15.643 -0.9060  1.5152  1.4538
 4295TIP3    H234301   1.147   3.451  15.528 -0.1653 -1.1504  1.1490
 4296TIP3   OH234302   0.813   1.141  15.935 -0.4655  0.1156 -0.1366
 4296TIP3    H134303   0.905   1.122  15.916 -0.6685 -0.0436 -0.9955
 4296TIP3    H234304   0.804   1.235  15.920 -0.6170 -0.0033 -0.7941
 4297TIP3   OH234305   5.089   1.038  16.094 -0.0017  0.1656  0.2300
 4297TIP3    H134306   5.177   1.046  16.130 -0.4386 -1.0419  1.6464
 4297TIP3    H234307   5.045   0.975  16.151 -1.8187  0.8103 -0.3849
 4298TIP3   OH234308   6.693   2.974   2.433 -0.1054 -1.1090  0.2707
 4298TIP3    H134309   6.739   3.031   2.495 -0.8557  1.4149 -1.3587
 4298TIP3    H234310   6.608   2.956   2.475 -1.6001  2.5524 -0.8634
 4299TIP3   OH234311   3.606   2.473  13.368 -0.3105 -0.9229 -0.1255
 4299TIP3    H134312   3.590   2.380  13.384 -0.0722 -1.0931 -0.8411
 4299TIP3    H234313   3.647   2.476  13.281  0.0459 -0.1841  0.0575
 4300TIP3   OH234314   5.444   6.322   5.690  0.9836 -0.0754  0.0316
 4300TIP3    H134315   5.523   6.332   5.637  0.7754 -1.1372 -0.5136
 4300TIP3    H234316   5.464   6.250   5.750 -0.4202 -2.1706 -1.8559
 4301TIP3   OH234317   5.197   4.996  14.942 -0.3150 -0.3018 -0.3177
 4301TIP3    H134318   5.168   5.079  14.980 -2.8785 -0.7740 -1.0350
 4301TIP3    H234319   5.193   4.934  15.014 -3.4164 -0.8146 -0.8104
 4302TIP3   OH234320   1.696   2.763  11.037 -0.0662 -0.1473 -0.0647
 4302TIP3    H134321   1.728   2.830  10.976 -1.7081  2.4489  1.7429
 4302TIP3    H234322   1.761   2.762  11.107  0.0653 -0.6672 -0.1865
 4303TIP3   OH234323   6.582   6.522  11.771  0.6050  0.3827  0.2221
 4303TIP3    H134324   6.666   6.486  11.798  0.5470  0.6251  0.7353
 4303TIP3    H234325   6.601   6.614  11.752  0.7697  0.0805 -1.1547
 4304TIP3   OH234326   1.309   1.451  11.668 -0.0093  0.0622  0.0767
 4304TIP3    H134327   1.336   1.543  11.673  1.2386 -0.3625  2.3130
 4304TIP3    H234328   1.361   1.416  11.595 -0.7362  1.1639 -1.0096
 4305TIP3   OH234329   2.546   3.390  11.949 -0.2005  0.9527 -0.6239
 4305TIP3    H134330   2.561   3.296  11.935 -1.5004  0.6264 -0.0311
 4305TIP3    H234331   2.633   3.430  11.943  0.3590 -0.2718 -0.9799
 4306TIP3   OH234332   5.904   0.060  12.279  0.2917  0.2160  0.1093
 4306TIP3    H134333   5.934   0.132  12.334 -0.3482  1.0873 -0.6553
 4306TIP3    H234334   5.947   0.076  12.194 -0.0054 -0.1975 -0.1208
 4307TIP3   OH234335   0.482   2.099  12.167 -0.3391  0.0834  0.0723
 4307TIP3    H134336   0.442   2.170  12.117 -1.1284 -0.2109  0.2768
 4307TIP3    H234337   0.451   2.019  12.126  1.0476 -0.1627 -0.5490
 4308TIP3   OH234338   3.583   2.869   1.074  0.0420  0.2764  0.3922
 4308TIP3    H134339   3.599   2.938   1.138 -0.2605 -1.0207  1.9048
 4308TIP3    H234340   3.514   2.905   1.018  0.5134  1.5418  0.5881
 4309TIP3   OH234341   0.811   6.802   1.896  0.3649 -0.0762 -0.0002
 4309TIP3    H134342   0.754   6.841   1.830  0.1814  0.6899  0.6091
 4309TIP3    H234343   0.862   6.875   1.930  0.0830 -0.3689  1.0847
 4310TIP3   OH234344   2.697   4.709  16.856  0.0213 -0.4116 -0.5311
 4310TIP3    H134345   2.780   4.677  16.822  0.4628  0.6699 -0.5066
 4310TIP3    H234346   2.689   4.669  16.943  0.2593 -0.9387 -0.7530
 4311TIP3   OH234347   3.840   0.779   2.366  1.1834  0.1527  0.3045
 4311TIP3    H134348   3.750   0.765   2.399  2.0071  0.5219  2.9799
 4311TIP3    H234349   3.848   0.717   2.294 -1.2007  0.0577  0.0223
 4312TIP3   OH234350   3.947   4.979  14.313 -0.0419 -0.1948  0.1917
 4312TIP3    H134351   3.858   4.979  14.349 -1.9654 -1.1924 -3.9465
 4312TIP3    H234352   3.970   4.886  14.308  1.2627  0.0556  1.1696
 4313TIP3   OH234353   2.961   5.051  17.128 -0.8678  0.1386 -0.0073
 4313TIP3    H134354   2.965   5.134  17.175 -0.8319  0.0147  0.2128
 4313TIP3    H234355   2.979   5.073  17.037  1.4491  0.0965  0.3658
 4314TIP3   OH234356   6.168   2.586   5.739 -0.6100 -0.1368 -0.2463
 4314TIP3    H134357   6.178   2.638   5.819 -1.1149 -0.7006  0.1942
 4314TIP3    H234358   6.111   2.514   5.765  0.2184 -1.0129 -0.7983
 4315TIP3   OH234359   2.089   2.441  10.532  0.7058 -0.5258 -0.5277
 4315TIP3    H134360   2.181   2.468  10.522  1.0786  0.1555  3.3085
 4315TIP3    H234361   2.091   2.374  10.600 -1.6062 -0.8571 -0.7273
 4316TIP3   OH234362   3.725   5.079   4.608 -0.4915 -0.0295 -0.2449
 4316TIP3    H134363   3.794   5.086   4.674 -0.4863 -1.2074 -0.1040
 4316TIP3    H234364   3.647   5.110   4.652 -0.7053 -1.7926  0.6981
 4317TIP3   OH234365   5.323   3.595  11.463 -0.2201 -0.1504 -0.4586
 4317TIP3    H134366   5.365   3.540  11.397  1.0047 -1.5936  1.4145
 4317TIP3    H234367   5.259   3.538  11.505  1.5768 -0.4727  2.0116
 4318TIP3   OH234368   4.258   5.184   4.524 -0.6289  0.0345  0.1297
 4318TIP3    H134369   4.306   5.262   4.497 -1.6368  0.7290  0.2816
 4318TIP3    H234370   4.175   5.189   4.477 -0.9098 -0.6744  0.5282
 4319TIP3   OH234371   5.994   4.590   5.810 -0.2881 -0.1327 -0.0613
 4319TIP3    H134372   5.993   4.632   5.724  1.6559 -1.3580 -0.7398
 4319TIP3    H234373   6.057   4.640   5.861  2.6207 -2.4549 -1.1098
 4320TIP3   OH234374   5.403   6.630   1.742  0.0743  0.5373 -0.5888
 4320TIP3    H134375   5.406   6.570   1.817 -2.6089  0.7550 -0.1884
 4320TIP3    H234376   5.372   6.576   1.669 -1.2828  1.1339 -0.4944
 4321TIP3   OH234377   1.879   6.454  13.589  0.2657 -0.1590 -0.4183
 4321TIP3    H134378   1.868   6.424  13.679 -1.9745  0.5821 -0.3731
 4321TIP3    H234379   1.836   6.387  13.536 -0.1162  0.3252 -0.7393
 4322TIP3   OH234380   0.005   3.987  16.716  0.0646 -0.4389 -0.3082
 4322TIP3    H134381   0.071   3.945  16.771 -0.0876 -2.1521 -1.3767
 4322TIP3    H234382  -0.075   3.983  16.768  0.0209 -1.6322 -0.4455
 4323TIP3   OH234383   5.725   4.756  14.653 -0.2117 -0.7225 -0.6548
 4323TIP3    H134384   5.739   4.723  14.565  1.4055  1.0162 -1.1292
 4323TIP3    H234385   5.669   4.833  14.642 -2.9224 -2.4300  0.2839
 4324TIP3   OH234386   3.050   6.296   0.685 -0.0439  0.1391 -0.5234
 4324TIP3    H134387   3.143   6.314   0.692 -0.0690  0.0256  0.1232
 4324TIP3    H234388   3.015   6.310   0.773 -0.0222 -3.2228  0.1713
 4325TIP3   OH234389   5.680   6.482   1.654 -0.2860  0.7370  0.3568
 4325TIP3    H134390   5.666   6.575   1.637  0.1492  0.7987  0.3143
 4325TIP3    H234391   5.736   6.480   1.732 -0.7854  0.4969  0.7182
 4326TIP3   OH234392   2.924   4.502   1.692 -0.2825  0.0329  0.6661
 4326TIP3    H134393   3.018   4.485   1.688 -0.2833  0.1266 -2.0464
 4326TIP3    H234394   2.888   4.430   1.744  0.8538 -2.7453 -2.0778
 4327TIP3   OH234395   3.049   0.683  14.011  1.1602 -0.5744  0.1273
 4327TIP3    H134396   3.022   0.762  13.964 -0.5546 -0.6043  0.9871
 4327TIP3    H234397   3.122   0.712  14.066 -0.6934  0.9642  1.9183
 4328TIP3   OH234398   1.225   0.049   0.679  0.4878  0.7228  0.3386
 4328TIP3    H134399   1.161  -0.009   0.638 -0.6118  1.8168  0.4716
 4328TIP3    H234400   1.261  -0.002   0.752  0.3925 -0.2019 -0.2515
 4329TIP3   OH234401   0.917   4.466   3.639 -0.5360 -0.0153 -0.2721
 4329TIP3    H134402   0.836   4.468   3.690 -0.2474 -0.8167  0.2394
 4329TIP3    H234403   0.912   4.542   3.582 -2.3065 -0.8219 -1.2647
 4330TIP3   OH234404   3.105   2.302  13.603 -0.1197  0.1180  0.1007
 4330TIP3    H134405   3.188   2.335  13.635 -0.0459 -1.3666  1.5457
 4330TIP3    H234406   3.043   2.374  13.616  0.4409  0.4005  1.2906
 4331TIP3   OH234407   6.362   1.177  12.088 -0.0853 -0.5060 -0.0959
 4331TIP3    H134408   6.410   1.229  12.024 -2.7227 -0.1772 -1.9688
 4331TIP3    H234409   6.394   1.208  12.173  1.2546  1.3460 -1.1942
 4332TIP3   OH234410   5.108   0.184  14.696  0.1170 -0.1043 -0.1009
 4332TIP3    H134411   5.151   0.130  14.630  1.9504  1.0367  0.0869
 4332TIP3    H234412   5.036   0.227  14.649  0.2432 -0.7179 -0.8719
 4333TIP3   OH234413   3.024   0.678  16.221  0.1499  0.0733 -0.2844
 4333TIP3    H134414   3.019   0.773  16.227  0.5326  0.0670  0.1625
 4333TIP3    H234415   3.117   0.658  16.220  0.0744 -0.2952 -0.4524
 4334TIP3   OH234416   4.467   1.970  11.968  0.2983  0.5645 -0.4476
 4334TIP3    H134417   4.378   1.936  11.973 -0.3744  2.1131 -1.3531
 4334TIP3    H234418   4.479   2.019  12.050  1.0103 -1.1356  0.5194
 4335TIP3   OH234419   2.058   2.889   4.915  0.9516 -0.5172  0.1194
 4335TIP3    H134420   2.064   2.902   4.820  1.9993  0.0261  0.2535
 4335TIP3    H234421   1.990   2.822   4.925  0.8961 -0.6551 -1.0155
 4336TIP3   OH234422   0.079   6.288  12.735  0.6380 -0.0002 -0.0533
 4336TIP3    H134423   0.131   6.230  12.680  0.4222 -0.5603  0.3240
 4336TIP3    H234424   0.092   6.375  12.697  1.1621 -0.2559 -0.4770
 4337TIP3   OH234425   1.944   5.765   6.145  0.0746  0.0859 -0.4056
 4337TIP3    H134426   2.029   5.805   6.163 -0.2860  0.2127  1.2328
 4337TIP3    H234427   1.961   5.671   6.143  0.4684  0.1675 -1.5189
 4338TIP3   OH234428   6.136   5.922   1.057 -0.4144 -1.3622  0.0041
 4338TIP3    H134429   6.071   5.955   0.995 -1.4584  0.1524  1.8089
 4338TIP3    H234430   6.085   5.879   1.126  0.5797 -1.4620  0.7124
 4339TIP3   OH234431   6.306   5.181   5.280 -0.4541  0.2391  0.6008
 4339TIP3    H134432   6.335   5.098   5.318  1.0759  0.7876  0.6922
 4339TIP3    H234433   6.259   5.155   5.201  0.7188 -0.7067  0.1754
 4340TIP3   OH234434   5.415   1.993   1.359  0.5507 -0.2382  0.4300
 4340TIP3    H134435   5.435   2.014   1.268  1.2205  1.7463  0.9793
 4340TIP3    H234436   5.440   1.901   1.369  0.1125 -0.5975 -1.4622
 4341TIP3   OH234437   1.816   0.741   2.985 -0.6120  0.2639 -0.0398
 4341TIP3    H134438   1.907   0.717   2.967 -1.2206  0.1603 -3.6095
 4341TIP3    H234439   1.823   0.810   3.052  1.8972 -0.9877  1.1610
 4342TIP3   OH234440   0.984   0.166  12.639  0.1344 -0.4017 -0.4579
 4342TIP3    H134441   0.980   0.261  12.631  1.4175 -0.1868  0.9629
 4342TIP3    H234442   1.067   0.142  12.597  1.8094 -0.3816  2.5808
 4343TIP3   OH234443   5.448   3.430  13.297 -0.1770  0.5709  0.3080
 4343TIP3    H134444   5.364   3.468  13.324  0.5207  1.3276  1.4997
 4343TIP3    H234445   5.426   3.341  13.270 -1.7991  1.6157 -2.1741
 4344TIP3   OH234446   0.918   5.832   4.228  0.0649  0.0434 -0.2728
 4344TIP3    H134447   0.862   5.755   4.234 -0.0142  0.1447  0.3906
 4344TIP3    H234448   0.977   5.824   4.303  1.3462 -0.3733 -1.2936
 4345TIP3   OH234449   0.802   1.997  11.956 -0.0311  0.6291  0.2239
 4345TIP3    H134450   0.763   1.912  11.934 -0.7055  0.8109  0.7100
 4345TIP3    H234451   0.786   2.008  12.049  0.2391  1.2026  0.2088
 4346TIP3   OH234452   0.808   0.643  12.124 -0.0254 -0.8365 -0.2386
 4346TIP3    H134453   0.746   0.714  12.144  1.5293  1.3418 -2.5706
 4346TIP3    H234454   0.890   0.671  12.164  0.1422 -2.4826  0.6754
 4347TIP3   OH234455   6.707   4.281   1.813 -0.7535  0.0560 -0.2182
 4347TIP3    H134456   6.728   4.293   1.905  0.5362  0.3896 -0.5266
 4347TIP3    H234457   6.793   4.273   1.770 -1.3070  0.6632 -1.4890
 4348TIP3   OH234458   4.690   3.759   0.904 -0.2264 -1.1297  0.4918
 4348TIP3    H134459   4.613   3.708   0.930 -0.6066 -0.7036  0.2165
 4348TIP3    H234460   4.666   3.850   0.923 -0.3436 -0.8504 -0.9072
 4349TIP3   OH234461   5.816   6.182  11.435  0.0116  0.2753  0.3998
 4349TIP3    H134462   5.789   6.224  11.354  1.4289  1.4601  0.5120
 4349TIP3    H234463   5.901   6.220  11.456  0.2771 -0.9455  1.7686
 4350TIP3   OH234464   2.636   3.441  12.591 -0.0635 -0.0035  0.2960
 4350TIP3    H134465   2.655   3.351  12.566  0.4634  0.2045 -0.0483
 4350TIP3    H234466   2.541   3.443  12.603  0.0304 -0.8524  1.3006
 4351TIP3   OH234467   2.319   0.387  15.217 -0.0741  0.2600 -0.0709
 4351TIP3    H134468   2.368   0.344  15.147  1.7235 -0.4671  1.5521
 4351TIP3    H234469   2.325   0.480  15.197 -1.2275 -0.0037 -1.8702
 4352TIP3   OH234470   4.556   0.898  12.583 -0.2652 -0.2253  0.0240
 4352TIP3    H134471   4.633   0.843  12.595  0.1475  0.5151  0.8933
 4352TIP3    H234472   4.587   0.973  12.533 -0.5227 -0.1453 -0.0181
 4353TIP3   OH234473   1.654   1.451  15.855  0.2792 -0.0826 -0.4387
 4353TIP3    H134474   1.606   1.509  15.913 -0.2649  0.2512 -1.2097
 4353TIP3    H234475   1.716   1.508  15.810  1.0369 -0.4227  0.1605
 4354TIP3   OH234476   1.652   3.254  13.682  0.1686  0.0572 -0.5081
 4354TIP3    H134477   1.671   3.288  13.594 -0.2122  0.9579 -0.2490
 4354TIP3    H234478   1.683   3.163  13.679  3.9367  1.1479 -0.3657
 4355TIP3   OH234479   1.873   6.455   0.255 -0.1911  0.1621  0.0912
 4355TIP3    H134480   1.918   6.415   0.330  1.3941 -0.7810 -1.2911
 4355TIP3    H234481   1.788   6.482   0.290 -0.3653 -2.1915  1.7184
 4356TIP3   OH234482   2.542   5.357   1.541  0.2246 -0.1247 -0.1544
 4356TIP3    H134483   2.520   5.265   1.555 -0.2474  0.1611  1.1173
 4356TIP3    H234484   2.479   5.406   1.594  0.5981  0.9311 -0.6453
 4357TIP3   OH234485   3.600   1.947   0.722  0.1608 -0.0547 -0.1887
 4357TIP3    H134486   3.627   2.002   0.648  0.5225 -1.5233 -1.1908
 4357TIP3    H234487   3.506   1.963   0.730 -0.1161 -0.7074 -1.7229
 4358TIP3   OH234488   2.758   0.333   2.125 -0.1861  0.3764 -0.1444
 4358TIP3    H134489   2.759   0.308   2.217 -1.9117  0.1852 -0.1519
 4358TIP3    H234490   2.674   0.377   2.113  1.4209  3.6038 -0.8322
 4359TIP3   OH234491   1.456   3.656   3.706  0.0888  0.0198 -0.2499
 4359TIP3    H134492   1.477   3.618   3.791  0.8930  2.5448  0.7550
 4359TIP3    H234493   1.380   3.712   3.722 -0.4989 -0.3753 -1.4722
 4360TIP3   OH234494   0.795   3.407   5.729 -0.4771  0.4340 -0.3882
 4360TIP3    H134495   0.779   3.400   5.635  0.9573 -0.6941 -0.5751
 4360TIP3    H234496   0.710   3.431   5.766 -1.0166  1.1149 -1.9777
 4361TIP3   OH234497   5.276   4.307  14.090  0.2480 -0.8862  0.5264
 4361TIP3    H134498   5.317   4.389  14.116 -0.5474 -0.2618 -0.1241
 4361TIP3    H234499   5.348   4.251  14.064  0.7340  0.0103 -0.1136
 4362TIP3   OH234500   5.283   1.644   2.217 -0.1772  0.4922  0.8723
 4362TIP3    H134501   5.361   1.696   2.238  1.7387 -2.2620  1.1338
 4362TIP3    H234502   5.249   1.615   2.301 -0.9641  0.9109  0.7103
 4363TIP3   OH234503   2.489   1.775  13.993  0.0834  0.3263  0.1750
 4363TIP3    H134504   2.520   1.825  14.069  0.1819  1.8336 -0.8109
 4363TIP3    H234505   2.555   1.707  13.981  0.6641  0.7655  0.7681
 4364TIP3   OH234506   0.181   3.390  12.535  0.1321 -0.0122  0.5127
 4364TIP3    H134507   0.193   3.305  12.577 -1.2241 -0.2945  0.3759
 4364TIP3    H234508   0.270   3.420  12.516  0.7161 -0.6186  2.0767
 4365TIP3   OH234509   1.452   4.756   1.125  0.1733 -0.2304  0.1805
 4365TIP3    H134510   1.438   4.710   1.043 -1.0215  0.1780  0.1266
 4365TIP3    H234511   1.453   4.687   1.192 -2.3486 -0.3746  0.1911
 4366TIP3   OH234512   2.573   0.324  17.097  0.1576  0.1461 -0.6578
 4366TIP3    H134513   2.481   0.306  17.077  0.0414  0.6012 -0.5505
 4366TIP3    H234514   2.579   0.420  17.096  0.0708  0.2388  1.7330
 4367TIP3   OH234515   0.786   3.112  12.601 -0.2872 -0.0293 -0.3945
 4367TIP3    H134516   0.874   3.148  12.611  0.4984 -1.9348 -0.0684
 4367TIP3    H234517   0.738   3.147  12.676  0.5709 -0.0489  0.1814
 4368TIP3   OH234518   6.180   5.878  13.609  0.4406 -0.4514 -0.2675
 4368TIP3    H134519   6.240   5.936  13.562  0.3613  0.4015  0.6517
 4368TIP3    H234520   6.235   5.806  13.639  0.8563 -0.0740 -0.1107
 4369TIP3   OH234521   4.089   0.420   4.977  0.1447  0.5890 -0.1034
 4369TIP3    H134522   4.178   0.410   4.943  0.9521  1.6328  1.5628
 4369TIP3    H234523   4.079   0.349   5.041 -1.3620 -1.3679 -2.3360
 4370TIP3   OH234524   0.149   4.259   0.898 -0.5609  0.1890  0.0811
 4370TIP3    H134525   0.213   4.314   0.944  0.4645 -0.3127 -0.6947
 4370TIP3    H234526   0.182   4.170   0.910 -1.3352 -0.1200 -0.0234
 4371TIP3   OH234527   3.365   6.694  14.062 -0.2492  0.3979 -0.1532
 4371TIP3    H134528   3.306   6.626  14.094  0.7219 -1.3236 -1.8370
 4371TIP3    H234529   3.445   6.682  14.114  0.1626 -0.2262 -0.9147
 4372TIP3   OH234530   6.158   3.554   2.539 -0.3335  0.2639  0.6211
 4372TIP3    H134531   6.140   3.505   2.459 -0.4670  1.3498 -0.0459
 4372TIP3    H234532   6.071   3.568   2.578 -0.1136 -2.0714  2.1183
 4373TIP3   OH234533   3.294   2.110  13.535  0.4054 -0.0803 -0.1686
 4373TIP3    H134534   3.201   2.092  13.522  0.1777  0.4191  0.6959
 4373TIP3    H234535   3.319   2.165  13.460  0.6510 -2.2768 -1.8018
 4374TIP3   OH234536   1.238   5.249   5.073  0.3753  0.1563  0.5966
 4374TIP3    H134537   1.220   5.190   5.000  0.1489  0.8399  0.0957
 4374TIP3    H234538   1.278   5.193   5.140  0.1383 -0.5671  0.1390
 4375TIP3   OH234539   4.646   4.157  13.521 -0.2075 -0.5763  0.0926
 4375TIP3    H134540   4.713   4.218  13.490 -0.0776 -1.3549 -1.2162
 4375TIP3    H234541   4.582   4.213  13.567  0.3295  0.4257 -0.3532
 4376TIP3   OH234542   3.933   2.180   5.475  0.5167  0.3367 -0.4012
 4376TIP3    H134543   4.004   2.138   5.523  0.0281  0.2236  0.2423
 4376TIP3    H234544   3.972   2.208   5.392  0.7938 -1.7150 -1.0327
 4377TIP3   OH234545   1.992   0.103   1.702  0.2631  0.3589 -0.5162
 4377TIP3    H134546   2.063   0.098   1.637  1.7046  0.8770  0.9479
 4377TIP3    H234547   1.918   0.138   1.653  1.5861  1.6721 -1.6909
 4378TIP3   OH234548   1.344   4.381   0.084  0.3652 -0.1070 -0.6541
 4378TIP3    H134549   1.342   4.472   0.053 -2.2520  0.5645  1.1022
 4378TIP3    H234550   1.409   4.381   0.154 -1.0124  1.0213  0.7124
 4379TIP3   OH234551   2.528   5.103   5.274  0.1627  0.1096  0.5788
 4379TIP3    H134552   2.435   5.117   5.290 -0.1917 -1.9877  0.6891
 4379TIP3    H234553   2.564   5.190   5.260 -1.6189  1.0506  1.5575
 4380TIP3   OH234554   5.071   1.943   4.761 -0.0005 -0.2317 -0.1550
 4380TIP3    H134555   5.030   1.938   4.674 -0.4051  0.2610  0.0045
 4380TIP3    H234556   5.003   1.978   4.818 -0.1515 -1.7233  0.6329
 4381TIP3   OH234557   2.025   6.442   3.230 -0.6376 -0.7503 -0.4813
 4381TIP3    H134558   2.121   6.440   3.232 -0.4326  3.0176  0.4879
 4381TIP3    H234559   2.004   6.507   3.162 -2.4026  0.0508  0.7673
 4382TIP3   OH234560   4.571   3.504  15.307  0.1371  0.3152 -0.6734
 4382TIP3    H134561   4.544   3.540  15.392 -0.7516 -1.3621 -0.1966
 4382TIP3    H234562   4.490   3.467  15.270  0.9438 -1.0365 -1.1650
 4383TIP3   OH234563   0.259   3.047   2.478  0.3031 -0.0299  0.1277
 4383TIP3    H134564   0.208   3.038   2.558 -0.4701  0.8210 -0.2365
 4383TIP3    H234565   0.276   2.958   2.449  0.6786 -0.3405  1.2880
 4384TIP3   OH234566   5.242   6.035  15.743 -0.0259 -0.1688  0.1757
 4384TIP3    H134567   5.330   6.004  15.762  0.0928 -0.6305 -1.0384
 4384TIP3    H234568   5.191   5.955  15.726 -0.5697  0.1136  0.4437
 4385TIP3   OH234569   6.299   5.354  13.168  0.0917 -0.5152  0.6519
 4385TIP3    H134570   6.330   5.285  13.108  0.8691  1.0045 -0.7984
 4385TIP3    H234571   6.204   5.343  13.170 -0.1370  0.1578 -1.9945
 4386TIP3   OH234572   5.567   5.174   2.710  0.1689 -0.2009  0.0618
 4386TIP3    H134573   5.632   5.105   2.723 -0.2461 -0.8410 -1.0984
 4386TIP3    H234574   5.495   5.130   2.665 -0.6981  0.6865  0.5476
 4387TIP3   OH234575   4.031   1.422   0.015  0.3963 -0.2060  0.4497
 4387TIP3    H134576   3.941   1.446  -0.008  0.3957 -1.2258 -0.6995
 4387TIP3    H234577   4.070   1.395  -0.068  1.3093 -1.1903  1.1773
 4388TIP3   OH234578   0.572   0.566   0.723  0.0826  0.0972 -0.3642
 4388TIP3    H134579   0.627   0.623   0.669 -0.9801  0.8226 -0.7381
 4388TIP3    H234580   0.628   0.538   0.795  0.7350  1.3726 -0.3537
 4389TIP3   OH234581   4.890   1.397   1.934  0.3488 -0.2904  0.1996
 4389TIP3    H134582   4.939   1.320   1.963 -0.3981 -0.6824  0.4443
 4389TIP3    H234583   4.944   1.471   1.960  1.6692 -0.7313 -1.1045
 4390TIP3   OH234584   4.617   2.544   2.145  0.0507  0.5763 -0.0105
 4390TIP3    H134585   4.542   2.531   2.204 -1.0844  0.2987 -1.4658
 4390TIP3    H234586   4.578   2.556   2.059  1.7418 -1.0110 -1.0673
 4391TIP3   OH234587   3.447   0.581   5.102  0.3835  0.8127 -0.3209
 4391TIP3    H134588   3.426   0.668   5.134  0.5311  1.4421 -1.8369
 4391TIP3    H234589   3.413   0.579   5.012 -0.0170 -0.8532 -0.1755
 4392TIP3   OH234590   3.521   4.792   4.279  0.1163 -0.2754  0.3112
 4392TIP3    H134591   3.539   4.699   4.292  1.8227 -0.1547 -0.8019
 4392TIP3    H234592   3.593   4.836   4.324 -0.1142  0.4781 -0.0479
 4393TIP3   OH234593   0.987   6.789  11.696  0.2896  0.1994  0.1318
 4393TIP3    H134594   0.915   6.844  11.664  0.2347  0.1287  0.1318
 4393TIP3    H234595   1.045   6.849  11.742  0.0230  0.1959  0.4846
 4394TIP3   OH234596   5.062   1.385   1.598  0.0860 -0.1597 -0.0143
 4394TIP3    H134597   5.105   1.420   1.675  0.8296  1.5399 -1.1331
 4394TIP3    H234598   4.972   1.418   1.604  0.3124  0.5079 -0.1691
 4395TIP3   OH234599   2.347   5.095   4.158 -0.2823  0.0690 -0.2075
 4395TIP3    H134600   2.321   5.004   4.170 -0.6418  0.4523  2.2796
 4395TIP3    H234601   2.433   5.089   4.116 -0.1304 -1.4264  0.2331
 4396TIP3   OH234602   1.848   3.076  14.997 -0.1266  0.9341  0.2410
 4396TIP3    H134603   1.879   3.165  14.983 -0.5526  0.6795 -2.9599
 4396TIP3    H234604   1.916   3.020  14.959 -0.3739 -0.0767  1.2257
 4397TIP3   OH234605   5.671   5.631   3.117 -0.4760 -0.3881 -0.4037
 4397TIP3    H134606   5.732   5.682   3.064 -0.5496 -1.2098 -1.3095
 4397TIP3    H234607   5.596   5.616   3.060  0.1583 -2.7452 -0.7418
 4398TIP3   OH234608   3.228   2.342  13.856 -0.2318  0.6913  0.6566
 4398TIP3    H134609   3.195   2.275  13.916 -0.5043 -1.1516 -1.4370
 4398TIP3    H234610   3.318   2.357  13.886  0.0091 -0.9972  0.9138
 4399TIP3   OH234611   5.745   5.990   3.757  0.0535 -0.1681  0.6218
 4399TIP3    H134612   5.725   5.920   3.696  0.8671 -0.0696  0.2290
 4399TIP3    H234613   5.767   6.065   3.702  2.2416 -0.4833  0.9761
 4400TIP3   OH234614   6.430   4.942  12.108 -0.3897 -0.1729 -0.1403
 4400TIP3    H134615   6.341   4.966  12.131 -0.8521 -1.4091 -0.5475
 4400TIP3    H234616   6.431   4.937  12.012  0.9694  2.8736 -0.3977
 4401TIP3   OH234617   2.063   6.746   0.826  0.7556  0.2157 -0.3472
 4401TIP3    H134618   2.110   6.735   0.743  1.4182  1.1392 -0.1167
 4401TIP3    H234619   2.118   6.807   0.876  0.4701 -0.4811  0.8542
 4402TIP3   OH234620   0.734   5.202   5.235  0.4147  0.5527  0.1237
 4402TIP3    H134621   0.828   5.206   5.221  0.4340 -1.3197 -0.4500
 4402TIP3    H234622   0.698   5.269   5.177  1.2789  0.0659 -1.0118
 4403TIP3   OH234623   0.289   1.213   0.794 -0.0470 -0.4692  0.3731
 4403TIP3    H134624   0.250   1.216   0.707  1.2739 -0.0497 -0.2315
 4403TIP3    H234625   0.286   1.121   0.819 -1.1433 -0.4810  0.2333
 4404TIP3   OH234626   6.278   2.337  10.523 -0.4816  0.3465  0.3707
 4404TIP3    H134627   6.231   2.265  10.566 -0.3124  0.1656  0.2532
 4404TIP3    H234628   6.363   2.300  10.502 -1.8162 -0.9240 -3.7114
 4405TIP3   OH234629   0.385   6.804  11.885 -0.4437  0.5369  0.0862
 4405TIP3    H134630   0.291   6.800  11.871 -0.3197 -1.6355 -0.5085
 4405TIP3    H234631   0.399   6.883  11.937 -2.4810  1.3524 -0.5338
 4406TIP3   OH234632   2.313   4.556   4.918 -0.3331 -0.3508  0.0375
 4406TIP3    H134633   2.346   4.527   4.833  0.0989 -0.7781  0.3422
 4406TIP3    H234634   2.306   4.475   4.969 -2.1777 -0.3104 -0.1111
 4407TIP3   OH234635   4.986   3.965  15.024 -0.0577 -0.0303  0.2955
 4407TIP3    H134636   5.001   3.873  15.044 -0.1048 -0.5930 -2.0083
 4407TIP3    H234637   4.900   3.967  14.981 -0.0752  1.1131  0.3420
 4408TIP3   OH234638   0.336   4.047  13.341  0.1524  0.0931  0.5696
 4408TIP3    H134639   0.355   4.071  13.432 -2.8497  2.8944  0.6363
 4408TIP3    H234640   0.342   4.130  13.293 -3.0633 -0.3096 -0.7992
 4409TIP3   OH234641   6.801   4.031  11.308  0.0217 -0.4563 -0.4577
 4409TIP3    H134642   6.878   3.992  11.349 -0.5913 -1.2944 -0.0477
 4409TIP3    H234643   6.818   4.125  11.308  0.6347 -0.5495  0.4895
 4410TIP3   OH234644   1.693   6.627  13.942 -0.4211  0.3298  0.5053
 4410TIP3    H134645   1.604   6.644  13.975 -0.2888  0.3544  0.8485
 4410TIP3    H234646   1.723   6.552  13.994 -0.1526  0.4675  0.5490
 4411TIP3   OH234647   0.842   5.566   1.154 -0.0380 -0.0211 -0.0120
 4411TIP3    H134648   0.905   5.494   1.148 -1.1925 -1.0163 -1.0180
 4411TIP3    H234649   0.757   5.522   1.162 -0.6351  1.2708  1.2183
 4412TIP3   OH234650   0.966   3.724   2.948  0.1931  0.0148 -0.8563
 4412TIP3    H134651   0.879   3.761   2.939  0.6959  1.7675  0.8832
 4412TIP3    H234652   1.010   3.747   2.866 -0.1528  1.5459 -0.6400
 4413TIP3   OH234653   4.305   6.265   0.856  0.1209 -0.0176 -0.5473
 4413TIP3    H134654   4.306   6.334   0.790  0.1229  0.6442  0.1378
 4413TIP3    H234655   4.315   6.311   0.940 -0.6880 -0.7627 -0.0209
 4414TIP3   OH234656   4.538   5.164   2.741 -0.4104 -0.3675  0.0370
 4414TIP3    H134657   4.514   5.175   2.833 -0.4529  0.7772 -0.1039
 4414TIP3    H234658   4.574   5.075   2.737  0.7470  0.0110  1.4044
 4415TIP3   OH234659   0.070   5.441  14.114  0.2945 -0.3512 -0.3041
 4415TIP3    H134660   0.021   5.420  14.034 -0.6011  1.6368 -0.3293
 4415TIP3    H234661   0.118   5.521  14.093 -0.2559  0.4324  1.2420
 4416TIP3   OH234662   1.967   1.603   6.434 -0.7930  0.0314  0.4939
 4416TIP3    H134663   2.003   1.615   6.522  0.3403 -0.7424  0.1537
 4416TIP3    H234664   1.939   1.512   6.431 -0.8718  0.0662  0.0673
 4417TIP3   OH234665   3.997   5.580  15.992 -0.1772  0.4660 -0.2422
 4417TIP3    H134666   3.987   5.490  16.022  1.7521 -0.3381 -1.8540
 4417TIP3    H234667   3.970   5.633  16.068 -0.3195 -1.4326  1.1088
 4418TIP3   OH234668   3.225   1.207   0.801 -0.4106 -0.1196 -0.1661
 4418TIP3    H134669   3.271   1.280   0.760 -1.8233 -1.0344 -3.8131
 4418TIP3    H234670   3.133   1.232   0.799 -0.6078 -0.3958  2.3622
 4419TIP3   OH234671   6.106   5.657  12.494 -0.4679 -0.2535 -0.2840
 4419TIP3    H134672   6.047   5.730  12.474 -0.8585 -0.2306  0.8830
 4419TIP3    H234673   6.062   5.581  12.456 -0.9234 -0.1353 -0.0104
 4420TIP3   OH234674   5.099   0.929   6.681 -0.5760  0.0072 -0.1751
 4420TIP3    H134675   5.037   1.000   6.698 -1.7109 -1.1358  0.7088
 4420TIP3    H234676   5.047   0.849   6.692  0.8794 -0.9791 -0.2063
 4421TIP3   OH234677   2.091   5.797  11.639 -0.1338 -0.5666  0.0653
 4421TIP3    H134678   2.097   5.794  11.735  2.1343 -0.2621 -0.0097
 4421TIP3    H234679   2.045   5.879  11.621 -0.1079 -0.3609  0.8961
 4422TIP3   OH234680   2.622   4.167  15.192 -0.0788  1.0217  0.1435
 4422TIP3    H134681   2.656   4.241  15.142 -1.5104 -0.3037 -3.0618
 4422TIP3    H234682   2.534   4.152  15.157 -0.2253 -1.5530  1.3824
 4423TIP3   OH234683   2.595   3.607  13.023 -0.1774 -0.0762  0.1380
 4423TIP3    H134684   2.622   3.699  13.024 -1.2081  0.2390  0.4006
 4423TIP3    H234685   2.526   3.602  13.090  0.0576 -1.1029  0.3189
 4424TIP3   OH234686   1.015   1.429  11.502 -0.8565  0.4791 -0.4807
 4424TIP3    H134687   1.081   1.449  11.435 -0.5014 -0.1850 -0.3310
 4424TIP3    H234688   0.952   1.501  11.495  0.2861  1.5471 -0.0979
 4425TIP3   OH234689   6.146   2.940  14.954 -0.4606  0.0618  0.2458
 4425TIP3    H134690   6.053   2.949  14.935  0.0184  0.9195 -2.0435
 4425TIP3    H234691   6.170   2.855  14.918 -0.0949  0.4487 -0.4385
 4426TIP3   OH234692   3.388   1.028  17.105 -0.0821 -0.1861  0.4354
 4426TIP3    H134693   3.416   0.941  17.134  2.0608  0.6279  0.9803
 4426TIP3    H234694   3.353   1.069  17.183  1.1918  0.2788  0.7871
 4427TIP3   OH234695   4.122   1.772   3.853 -0.1380 -0.5546 -0.6717
 4427TIP3    H134696   4.145   1.750   3.763  0.7017 -0.0845 -0.5794
 4427TIP3    H234697   4.193   1.735   3.905  0.3080  0.6997 -0.3577
 4428TIP3   OH234698   2.340   0.417  16.324  0.2024  0.2305  0.1674
 4428TIP3    H134699   2.311   0.368  16.402  2.7486  0.6842  1.4896
 4428TIP3    H234700   2.343   0.508  16.353  0.9696  0.4372 -0.5508
 4429TIP3   OH234701   1.804   6.571  12.458  0.6166 -0.2166 -0.0307
 4429TIP3    H134702   1.877   6.559  12.397 -0.5363  0.5628 -1.6381
 4429TIP3    H234703   1.757   6.647  12.423 -2.5650 -2.3378 -0.6938
 4430TIP3   OH234704   4.940   1.503   0.110  0.0922 -0.0898  0.0270
 4430TIP3    H134705   4.988   1.471   0.186  0.1080  0.7643  0.3864
 4430TIP3    H234706   4.918   1.424   0.061  0.3519 -0.6257  0.7535
 4431TIP3   OH234707   4.337   4.226   2.894  0.1054  0.3805 -0.5166
 4431TIP3    H134708   4.327   4.140   2.852  1.1195  0.2811 -0.5843
 4431TIP3    H234709   4.429   4.247   2.883 -0.2864  1.8493 -1.1829
 4432TIP3   OH234710   1.652   1.752   2.353  0.1171 -0.2425 -0.3047
 4432TIP3    H134711   1.570   1.756   2.304 -2.1704  0.3185  3.2114
 4432TIP3    H234712   1.662   1.838   2.392  0.3705 -1.3054  2.1980
 4433TIP3   OH234713   0.265   2.992  13.391 -0.1377  0.0862  0.1605
 4433TIP3    H134714   0.308   2.960  13.470  2.3074  2.0409 -0.2524
 4433TIP3    H234715   0.276   2.921  13.328 -0.7487 -0.8779  1.1091
 4434TIP3   OH234716   2.657   5.671   2.240  0.0953  0.0825 -0.2434
 4434TIP3    H134717   2.714   5.606   2.280  1.1094  1.1224  0.0802
 4434TIP3    H234718   2.717   5.741   2.211 -0.8166  0.3081 -1.7131
 4435TIP3   OH234719   0.846   2.890  13.905  0.0588  0.1383  0.2902
 4435TIP3    H134720   0.807   2.805  13.925  0.3671  0.2847  1.5843
 4435TIP3    H234721   0.807   2.950  13.968  0.3952  0.8159 -0.1321
 4436TIP3   OH234722   1.116   5.007  15.003 -0.0370  0.0377 -0.0256
 4436TIP3    H134723   1.152   5.095  14.996  0.4627 -0.2437 -1.4995
 4436TIP3    H234724   1.041   5.016  15.061 -0.1829  1.5071 -0.3990
 4437TIP3   OH234725   0.123   1.475  12.857  0.6539 -0.0608  0.4953
 4437TIP3    H134726   0.196   1.536  12.862 -0.1765  0.8880  3.7262
 4437TIP3    H234727   0.143   1.408  12.922 -0.5160 -0.7898  0.1436
 4438TIP3   OH234728   4.024   3.449  16.539 -0.3455 -0.1987  0.1502
 4438TIP3    H134729   4.095   3.508  16.565 -1.3733  0.8849  0.5528
 4438TIP3    H234730   3.947   3.480  16.586 -1.0670 -1.4858 -0.1123
 4439TIP3   OH234731   1.190   1.106   3.877 -0.4148 -0.6206 -0.4211
 4439TIP3    H134732   1.102   1.080   3.850 -0.1376 -1.7950 -0.2556
 4439TIP3    H234733   1.245   1.031   3.856  0.6856  0.3438 -1.1316
 4440TIP3   OH234734   4.314   1.451  14.171 -0.1708 -0.2366 -0.1742
 4440TIP3    H134735   4.344   1.529  14.217 -1.6025 -0.1918  0.7504
 4440TIP3    H234736   4.299   1.386  14.239 -1.9212 -0.3050 -0.5592
 4441TIP3   OH234737   2.962   4.712  14.853 -0.1897  0.8196 -0.5061
 4441TIP3    H134738   2.880   4.761  14.856  0.0879  1.2123  1.6565
 4441TIP3    H234739   2.954   4.659  14.773 -1.8499  1.9903 -1.1896
 4442TIP3   OH234740   0.345   2.112   3.531  0.4546  0.0969 -0.5613
 4442TIP3    H134741   0.280   2.123   3.461 -0.8359  1.1298  0.7371
 4442TIP3    H234742   0.378   2.200   3.546 -0.0925  0.0762  0.8568
 4443TIP3   OH234743   0.127   1.843   2.008  0.5181  0.4543 -0.6537
 4443TIP3    H134744   0.192   1.900   2.048 -0.7382  1.4372  0.0658
 4443TIP3    H234745   0.082   1.802   2.081  2.2654 -2.6291 -1.1266
 4444TIP3   OH234746   6.045   1.500  11.542  0.6201  0.4814 -0.0663
 4444TIP3    H134747   6.101   1.572  11.513  0.3519  1.4410  1.6719
 4444TIP3    H234748   6.001   1.471  11.462  3.0503  0.1304 -1.3745
 4445TIP3   OH234749   5.150   6.055  15.458 -0.3394  0.0047  0.7645
 4445TIP3    H134750   5.243   6.048  15.436 -0.6274 -0.1555 -0.4711
 4445TIP3    H234751   5.148   6.113  15.534  0.7527  0.1423  0.7084
 4446TIP3   OH234752   6.482   0.850  15.807  0.1240  0.4622  0.0256
 4446TIP3    H134753   6.566   0.804  15.816  0.2506  0.7292  0.1990
 4446TIP3    H234754   6.418   0.792  15.848 -0.0102 -0.4135 -1.3353
 4447TIP3   OH234755   5.199   0.782  15.968  0.5316 -0.2280 -0.3740
 4447TIP3    H134756   5.153   0.767  16.051  0.8035  1.2714  0.0899
 4447TIP3    H234757   5.276   0.725  15.972  0.0523 -0.8670 -0.0228
 4448TIP3   OH234758   0.966   2.378  15.617  0.5900  0.0941 -0.6562
 4448TIP3    H134759   0.889   2.412  15.571  0.9385 -0.6884 -1.8630
 4448TIP3    H234760   0.948   2.285  15.628  1.2400 -0.0383 -0.6947
 4449TIP3   OH234761   2.305   1.541   1.589 -0.0149  0.3690 -0.3571
 4449TIP3    H134762   2.224   1.561   1.637  2.1250  4.2103  2.2675
 4449TIP3    H234763   2.342   1.466   1.635 -0.7585  0.3531  0.2476
 4450TIP3   OH234764   2.279   1.792  13.571 -0.1072 -0.6416  0.4986
 4450TIP3    H134765   2.374   1.786  13.560 -0.1532 -1.8983  0.6338
 4450TIP3    H234766   2.246   1.709  13.538 -1.2154 -0.0267  0.0008
 4451TIP3   OH234767   0.742   5.926  12.262  0.5487 -0.3492  0.3190
 4451TIP3    H134768   0.728   5.977  12.182  1.2231 -1.2354 -0.3913
 4451TIP3    H234769   0.799   5.980  12.316  0.0373  0.2837  0.2297
 4452TIP3   OH234770   6.215   2.737  12.762  0.0672 -0.3389  0.1852
 4452TIP3    H134771   6.273   2.795  12.711 -0.0385 -0.4619 -0.0808
 4452TIP3    H234772   6.275   2.678  12.807  0.2076  0.3890  0.9802
 4453TIP3   OH234773   0.105   4.944   5.164 -0.3535  0.0867  0.1381
 4453TIP3    H134774   0.139   4.992   5.089 -1.2371 -0.2013 -0.4641
 4453TIP3    H234775   0.184   4.914   5.211  0.3100 -1.7254 -1.9492
 4454TIP3   OH234776   2.350   1.130  14.586 -0.8343 -0.1446 -0.4368
 4454TIP3    H134777   2.446   1.132  14.584 -0.8260 -0.3776 -0.3079
 4454TIP3    H234778   2.325   1.222  14.593 -0.6192 -0.0848 -0.4261
 4455TIP3   OH234779   6.123   2.592   5.263 -0.1638 -0.4797  0.1219
 4455TIP3    H134780   6.162   2.553   5.341  1.2632 -1.4485 -1.0051
 4455TIP3    H234781   6.195   2.636   5.219 -0.9376  0.0499 -0.6596
 4456TIP3   OH234782   3.807   0.207   6.314  0.5524  0.1185  0.4266
 4456TIP3    H134783   3.853   0.287   6.340  1.2308  0.0404 -0.5046
 4456TIP3    H234784   3.747   0.234   6.246  0.9641 -0.1981 -0.0719
 4457TIP3   OH234785   2.337   0.030   5.474  0.6075 -0.3417 -0.4826
 4457TIP3    H134786   2.351   0.009   5.567 -4.4408  0.0881  0.6591
 4457TIP3    H234787   2.349   0.124   5.469  0.6070 -0.3251 -0.1903
 4458TIP3   OH234788   3.019   1.351  15.013 -0.0686  0.1954  0.4075
 4458TIP3    H134789   3.074   1.428  15.000 -1.2298  1.1097  0.7956
 4458TIP3    H234790   3.018   1.308  14.927  0.5153  0.6561  0.1608
 4459TIP3   OH234791   5.737   4.477  14.405 -0.4956  0.2958 -0.7435
 4459TIP3    H134792   5.644   4.489  14.426 -0.3576  0.0174  0.0982
 4459TIP3    H234793   5.763   4.559  14.364 -0.9081  0.7041 -0.2074
 4460TIP3   OH234794   4.680   5.026  16.804  0.4153 -0.0071  0.0041
 4460TIP3    H134795   4.742   5.097  16.788 -1.4596  1.1381 -3.1328
 4460TIP3    H234796   4.726   4.948  16.773  0.6131  0.7145 -1.6626
 4461TIP3   OH234797   5.387   3.401  16.898 -0.4695 -0.4130  0.4434
 4461TIP3    H134798   5.341   3.470  16.947  0.1202  0.7166 -0.5148
 4461TIP3    H234799   5.318   3.357  16.848 -0.5404  1.7825 -1.5938
 4462TIP3   OH234800   2.692   4.372   2.385  0.1587  0.1321 -0.5719
 4462TIP3    H134801   2.706   4.455   2.431  0.2113 -0.3524  0.3085
 4462TIP3    H234802   2.735   4.307   2.440 -1.6606 -0.7753 -0.1610
 4463TIP3   OH234803   6.513   1.514   0.222 -0.4165 -0.0101 -0.1824
 4463TIP3    H134804   6.562   1.470   0.153  2.0045 -0.4951  1.6969
 4463TIP3    H234805   6.509   1.605   0.195 -0.7748 -0.4222 -1.5903
 4464TIP3   OH234806   5.450   1.741  15.039  0.5903  0.4284  0.1070
 4464TIP3    H134807   5.509   1.810  15.071 -0.2036  0.9625  0.4280
 4464TIP3    H234808   5.372   1.787  15.009  0.7321 -0.1870 -1.2874
 4465TIP3   OH234809   2.098   4.895  15.095  0.4189  0.0266  0.0341
 4465TIP3    H134810   2.183   4.855  15.116  0.5086 -0.1699 -0.6787
 4465TIP3    H234811   2.053   4.900  15.179 -0.0099 -2.5623  0.0442
 4466TIP3   OH234812   0.578   6.679   3.746 -0.3319 -0.4670  0.2993
 4466TIP3    H134813   0.505   6.702   3.687 -1.2178  0.9488  1.8611
 4466TIP3    H234814   0.536   6.667   3.831  1.1896 -0.2957  1.0921
 4467TIP3   OH234815   2.313   1.903   6.279  0.7664  0.1980  0.1144
 4467TIP3    H134816   2.347   1.967   6.216  1.5619  0.1328  0.4687
 4467TIP3    H234817   2.363   1.919   6.359 -0.4972  0.5340  0.8669
 4468TIP3   OH234818   4.486   0.355   4.208  0.1391  0.1565 -0.1302
 4468TIP3    H134819   4.566   0.328   4.253 -0.5902 -0.0209  1.1156
 4468TIP3    H234820   4.516   0.413   4.138  1.4099 -0.5193 -0.1852
 4469TIP3   OH234821   6.679   6.666  14.483 -0.4268  0.1077 -0.0124
 4469TIP3    H134822   6.636   6.583  14.505 -0.7307  0.0243 -0.8856
 4469TIP3    H234823   6.773   6.647  14.490 -0.4753  0.4849  2.6192
 4470TIP3   OH234824   2.158   0.993  11.260  0.0582 -0.4852 -0.2485
 4470TIP3    H134825   2.199   0.952  11.184  2.2295 -1.1662  1.2153
 4470TIP3    H234826   2.162   0.927  11.329  0.4492  0.9673  1.1730
 4471TIP3   OH234827   1.183   5.959   0.809 -0.1979 -0.2472  0.3501
 4471TIP3    H134828   1.263   5.908   0.814 -0.3919 -0.6781 -0.6998
 4471TIP3    H234829   1.129   5.913   0.745 -1.3717 -0.0742  1.1841
 4472TIP3   OH234830   0.676   0.219   6.064 -0.4878 -0.2718 -0.2162
 4472TIP3    H134831   0.746   0.179   6.012 -0.6480 -1.1016  0.1871
 4472TIP3    H234832   0.638   0.146   6.113 -0.5225  0.4407  0.8507
 4473TIP3   OH234833   0.575   5.007   5.135 -0.1240 -0.1252  0.1523
 4473TIP3    H134834   0.630   5.085   5.130 -0.6070  0.1763 -0.7409
 4473TIP3    H234835   0.612   4.948   5.069 -1.9712  0.8284 -1.8571
 4474TIP3   OH234836   5.586   6.698   0.064  0.1970 -0.1296  0.2145
 4474TIP3    H134837   5.630   6.782   0.074  0.1504 -0.2718  2.1684
 4474TIP3    H234838   5.558   6.676   0.153  1.0533 -2.6651 -0.0642
 4475TIP3   OH234839   5.815   1.081   0.570  0.2709  0.0527 -0.4600
 4475TIP3    H134840   5.793   1.065   0.662 -0.6998 -2.7286 -1.0549
 4475TIP3    H234841   5.891   1.024   0.554 -0.9175 -1.2242 -1.8502
 4476TIP3   OH234842   3.303   6.704  13.279  0.2693 -0.4941  0.1735
 4476TIP3    H134843   3.307   6.722  13.373 -0.5384 -1.6795  0.4632
 4476TIP3    H234844   3.217   6.734  13.252  0.3456 -0.5208 -0.1004
 4477TIP3   OH234845   5.580   4.456   5.541 -0.0974 -0.4535 -0.1554
 4477TIP3    H134846   5.613   4.396   5.608  0.2257  0.0543  0.1528
 4477TIP3    H234847   5.494   4.421   5.518 -0.4342 -0.3691  0.8882
 4478TIP3   OH234848   2.903   4.863  12.709 -0.0566 -0.1449  0.4969
 4478TIP3    H134849   2.887   4.939  12.653 -0.6040 -0.2491  0.5065
 4478TIP3    H234850   2.819   4.817  12.713  0.1730 -0.5539  0.7871
 4479TIP3   OH234851   2.923   2.243   2.907  0.9306  0.6723 -0.2351
 4479TIP3    H134852   2.880   2.166   2.944  1.3629  0.3591 -0.3838
 4479TIP3    H234853   3.017   2.228   2.922  1.1348  0.4301 -1.6763
 4480TIP3   OH234854   6.589   4.168   3.966  0.1090  0.4068  0.2046
 4480TIP3    H134855   6.608   4.075   3.969  0.2132  0.4592  1.8526
 4480TIP3    H234856   6.512   4.175   3.909  1.2093 -0.4448 -1.4854
 4481TIP3   OH234857   4.061   0.779  14.325  0.1112 -0.1001  0.4228
 4481TIP3    H134858   3.979   0.826  14.311 -0.4107 -0.9383  0.6231
 4481TIP3    H234859   4.128   0.848  14.327 -0.5761  0.5853  0.2231
 4482TIP3   OH234860   4.156   2.444   3.992 -0.1734  0.6196 -0.2592
 4482TIP3    H134861   4.088   2.379   4.013  0.4474 -0.1218 -0.4976
 4482TIP3    H234862   4.113   2.504   3.931 -0.4183 -0.2708 -0.9996
 4483TIP3   OH234863   3.491   4.346   1.713  0.5407  0.4835  0.0067
 4483TIP3    H134864   3.504   4.330   1.620  0.5026  0.9987 -0.0897
 4483TIP3    H234865   3.480   4.259   1.751 -0.2441  0.3146 -0.5901
 4484TIP3   OH234866   4.550   4.347   1.969 -0.6128  0.5081  0.1000
 4484TIP3    H134867   4.573   4.439   1.987 -0.3717  0.1654  1.6813
 4484TIP3    H234868   4.467   4.334   2.016 -0.0851 -0.3715  0.8262
 4485TIP3   OH234869   4.933   1.075  14.423 -0.1236  0.2957  0.2152
 4485TIP3    H134870   4.957   1.005  14.484  0.9780 -0.1717 -0.7046
 4485TIP3    H234871   4.871   1.034  14.363 -1.7372  0.9437  1.3886
 4486TIP3   OH234872   5.998   4.354   3.020  0.6544 -0.2325  0.2971
 4486TIP3    H134873   5.978   4.427   2.961  0.7407 -0.1199  0.4054
 4486TIP3    H234874   6.051   4.295   2.967 -0.5885 -0.9072 -0.2274
 4487TIP3   OH234875   3.650   3.957   0.085 -0.2816  0.0462 -0.0811
 4487TIP3    H134876   3.691   4.039   0.113  0.1497  0.3242 -1.4237
 4487TIP3    H234877   3.598   3.981   0.008  0.8925 -1.1114 -1.3100
 4488TIP3   OH234878   4.742   6.197   3.466  0.4339 -0.6530 -0.0785
 4488TIP3    H134879   4.832   6.216   3.441  0.4936  0.4818  0.9359
 4488TIP3    H234880   4.711   6.277   3.508 -1.4408 -0.6081 -1.4269
 4489TIP3   OH234881   0.482   2.993  12.554  0.7627 -0.1250 -0.4653
 4489TIP3    H134882   0.443   2.906  12.542  0.4055 -0.1722  0.8609
 4489TIP3    H234883   0.559   2.977  12.609  1.4167  0.2526 -1.2514
 4490TIP3   OH234884   6.472   0.252   2.643  0.0573  0.3204  0.2507
 4490TIP3    H134885   6.485   0.166   2.684  1.1991  0.1057 -0.5408
 4490TIP3    H234886   6.559   0.281   2.618 -0.2032  2.1537  1.3279
 4491TIP3   OH234887   0.652   3.091  13.419  0.0752  0.2617  0.6813
 4491TIP3    H134888   0.693   3.148  13.484  0.3871  1.0158 -0.1584
 4491TIP3    H234889   0.609   3.023  13.471  0.2366  0.8956  1.6787
 4492TIP3   OH234890   2.345   4.202  15.740  0.2836 -0.1818  0.3840
 4492TIP3    H134891   2.402   4.278  15.752 -0.5911  0.8227 -1.3124
 4492TIP3    H234892   2.265   4.239  15.703 -1.4669 -1.5532  2.5391
 4493TIP3   OH234893   1.724   6.235  14.327  0.2668  0.2480 -0.5629
 4493TIP3    H134894   1.744   6.148  14.292  1.1401  0.0898  0.3123
 4493TIP3    H234895   1.702   6.220  14.419  0.7269  0.9898 -0.3228
 4494TIP3   OH234896   6.022   6.294  15.329 -0.2000  0.2909 -0.0827
 4494TIP3    H134897   6.064   6.212  15.302 -0.2555  0.3816 -0.4501
 4494TIP3    H234898   5.933   6.287  15.296 -0.0412  0.7447 -0.6197
 4495TIP3   OH234899   1.731   3.231  11.432  0.0420 -0.1210  0.0421
 4495TIP3    H134900   1.779   3.303  11.473 -0.0104  0.6387 -1.2003
 4495TIP3    H234901   1.659   3.213  11.493  1.0130 -0.2858  1.1887
 4496TIP3   OH234902   0.051   1.056  12.561 -0.5590 -0.0865 -0.0676
 4496TIP3    H134903   0.107   0.990  12.603 -0.1077 -0.9701 -1.9849
 4496TIP3    H234904   0.012   1.103  12.635  0.0731 -1.6657  1.3571
 4497TIP3   OH234905   5.807   1.249  12.155 -0.1150 -0.0717 -0.1622
 4497TIP3    H134906   5.849   1.246  12.069 -0.1892 -2.0857 -0.1830
 4497TIP3    H234907   5.879   1.239  12.218 -0.0270  1.6750  0.0662
 4498TIP3   OH234908   2.151   5.862  12.857  0.2458  0.2491  0.6295
 4498TIP3    H134909   2.089   5.801  12.898 -0.3441  0.9206  0.7579
 4498TIP3    H234910   2.096   5.933  12.824  0.6441 -0.4432 -1.6768
 4499TIP3   OH234911   3.750   6.530   4.709  0.0407 -0.1502  0.0905
 4499TIP3    H134912   3.724   6.488   4.627 -0.7045  0.3816  0.0399
 4499TIP3    H234913   3.807   6.603   4.681  0.8069 -0.7152  0.1378
 4500TIP3   OH234914   4.239   6.273  13.255  0.1380  0.6585 -0.0116
 4500TIP3    H134915   4.289   6.223  13.319  2.1513  1.3312 -0.9990
 4500TIP3    H234916   4.235   6.362  13.290 -1.9862  0.2786  0.9119
 4501TIP3   OH234917   1.558   5.001   1.922  0.3913 -0.3326  0.4888
 4501TIP3    H134918   1.537   4.951   1.843  2.1217 -0.2568 -0.0558
 4501TIP3    H234919   1.489   5.068   1.926 -1.0949 -1.7741  0.4067
 4502TIP3   OH234920   0.701   0.605   2.932  0.4221  0.3994  0.1133
 4502TIP3    H134921   0.638   0.615   2.861  0.1434  0.3192  0.3476
 4502TIP3    H234922   0.745   0.690   2.937  0.3614  0.4433 -0.0758
 4503TIP3   OH234923   2.796   0.094  15.944 -0.0040 -0.2657 -0.2196
 4503TIP3    H134924   2.709   0.088  15.984 -0.5715 -0.3633 -1.4199
 4503TIP3    H234925   2.781   0.141  15.862  1.2175  0.4229 -0.0672
 4504TIP3   OH234926   3.462   3.102  13.943  0.4628 -0.3672 -0.2165
 4504TIP3    H134927   3.534   3.083  13.883 -0.0119  0.7074 -1.1713
 4504TIP3    H234928   3.421   3.017  13.959  1.5811 -0.9089 -0.1034
 4505TIP3   OH234929   4.548   6.501   1.784 -0.3696 -0.1958  0.1332
 4505TIP3    H134930   4.514   6.484   1.872 -0.6608  1.4376  0.3749
 4505TIP3    H234931   4.500   6.440   1.727 -2.1400  0.5243  0.7722
 4506TIP3   OH234932   1.832   3.533  14.523  0.6669  0.5604  0.1502
 4506TIP3    H134933   1.851   3.463  14.461  2.1207  0.5462  0.5833
 4506TIP3    H234934   1.739   3.521  14.545  0.9049 -1.3100  0.3032
 4507TIP3   OH234935   2.939   6.569   5.462  0.2958  0.1189 -0.4521
 4507TIP3    H134936   2.986   6.638   5.509  1.0672  1.1133 -2.5317
 4507TIP3    H234937   2.847   6.594   5.467  0.3386  0.0910  0.6576
 4508TIP3   OH234938   4.372   1.945   1.128  0.1805  0.0908 -0.1945
 4508TIP3    H134939   4.324   2.016   1.171  0.9898  1.2256 -1.0846
 4508TIP3    H234940   4.464   1.969   1.138  0.4118  0.7151 -2.9368
 4509TIP3   OH234941   1.060   6.697   3.365  0.2437 -0.1862 -0.5186
 4509TIP3    H134942   0.989   6.715   3.302 -1.4829  0.4387  1.4639
 4509TIP3    H234943   1.097   6.783   3.383  1.6637 -0.5294 -1.6470
 4510TIP3   OH234944   4.609   4.580  14.430  0.4005 -0.3144  0.3593
 4510TIP3    H134945   4.628   4.492  14.463 -1.2745 -0.8535 -0.0465
 4510TIP3    H234946   4.597   4.633  14.508 -0.9381 -1.0025  0.6492
 4511TIP3   OH234947   6.199   3.046   3.490  0.1296  0.4827  0.0281
 4511TIP3    H134948   6.131   3.001   3.539  1.3544 -0.5855  0.8420
 4511TIP3    H234949   6.280   2.999   3.512  1.0565  1.3327 -1.3334
 4512TIP3   OH234950   0.684   3.670  11.460  0.3210  0.1547  0.3631
 4512TIP3    H134951   0.639   3.592  11.429  2.0542 -0.9760  0.5313
 4512TIP3    H234952   0.720   3.710  11.381 -0.1414  0.5043  0.3285
 4513TIP3   OH234953   5.695   3.934  14.565  0.3740 -0.2567  0.2020
 4513TIP3    H134954   5.683   3.906  14.475 -1.9328  0.6912  0.1390
 4513TIP3    H234955   5.633   3.882  14.615  1.5236 -0.6714  1.2578
 4514TIP3   OH234956   6.365   4.880   1.100  0.0700 -0.1069 -0.2241
 4514TIP3    H134957   6.361   4.825   1.022  0.0711 -2.0490  1.0769
 4514TIP3    H234958   6.451   4.861   1.138 -0.0445  0.5803  0.4039
 4515TIP3   OH234959   0.212   6.497   1.644 -0.0823  0.0771  0.2998
 4515TIP3    H134960   0.190   6.469   1.556 -0.8642 -0.8422  0.7700
 4515TIP3    H234961   0.307   6.514   1.641 -0.2268  0.7798 -0.8816
 4516TIP3   OH234962   6.024   0.464  10.820 -0.4592 -0.6328  0.2317
 4516TIP3    H134963   6.098   0.409  10.792  0.1618 -0.3887  1.3228
 4516TIP3    H234964   5.992   0.503  10.739  3.5651  2.9620 -0.0007
 4517TIP3   OH234965   1.700   4.949   5.897 -0.4292 -0.3633  0.7700
 4517TIP3    H134966   1.679   4.903   5.979 -4.5174  0.6785  0.5430
 4517TIP3    H234967   1.664   4.894   5.828  0.9725 -0.1552 -0.1669
 4518TIP3   OH234968   1.727   1.802   5.584  0.6619  0.5311  0.2507
 4518TIP3    H134969   1.787   1.868   5.548  3.6079 -1.1595  1.7137
 4518TIP3    H234970   1.756   1.791   5.674 -1.0180 -1.3960  0.6096
 4519TIP3   OH234971   0.409   2.355   3.263  0.1207  0.0291  0.0204
 4519TIP3    H134972   0.377   2.283   3.209 -1.0039  0.8578 -0.4595
 4519TIP3    H234973   0.486   2.387   3.217 -0.5605  0.4311 -0.8752
 4520TIP3   OH234974   5.568   2.140  15.382  0.1408  0.0312  0.4516
 4520TIP3    H134975   5.575   2.113  15.290  2.7221  1.4943  0.1058
 4520TIP3    H234976   5.508   2.215  15.380 -0.3488 -0.3589  0.0878
 4521TIP3   OH234977   5.683   0.632   3.805 -0.3724  0.0817 -0.1780
 4521TIP3    H134978   5.664   0.698   3.872 -0.4779  1.0736 -1.1567
 4521TIP3    H234979   5.769   0.656   3.771 -0.1751 -0.6080 -0.1610
 4522TIP3   OH234980   5.174   6.201   4.019 -0.4665 -0.0336  0.3110
 4522TIP3    H134981   5.147   6.230   3.932 -0.0163 -0.8614 -0.1183
 4522TIP3    H234982   5.111   6.242   4.078 -0.9704  0.2881 -0.4274
 4523TIP3   OH234983   1.031   2.916  14.197 -0.4385  0.1646  0.0193
 4523TIP3    H134984   0.963   2.982  14.183 -0.6901 -0.2080 -0.5801
 4523TIP3    H234985   0.984   2.833  14.196 -0.2276  0.0067  1.5177
 4524TIP3   OH234986   1.775   6.476  16.639  0.2956 -0.5830 -0.4454
 4524TIP3    H134987   1.716   6.524  16.582  0.9561 -1.2583 -1.7526
 4524TIP3    H234988   1.718   6.435  16.704 -0.5055 -0.0253 -0.7853
 4525TIP3   OH234989   4.059   6.445   4.558 -0.6482  0.4683 -0.1271
 4525TIP3    H134990   4.077   6.531   4.598  0.6124  0.5892 -0.9065
 4525TIP3    H234991   4.108   6.383   4.612 -0.5434  0.3919 -0.3096
 4526TIP3   OH234992   1.595   4.350   2.423  0.2776 -0.0848  0.6882
 4526TIP3    H134993   1.518   4.309   2.385 -0.9880  0.2164  2.8234
 4526TIP3    H234994   1.612   4.426   2.367  0.0581 -1.0548 -0.7478
 4527TIP3   OH234995   2.050   2.855  16.298  0.5487 -0.5450  0.2450
 4527TIP3    H134996   2.019   2.944  16.311  0.8015 -0.3944 -0.1462
 4527TIP3    H234997   2.109   2.838  16.371 -0.2095 -0.7208  0.8211
 4528TIP3   OH234998   6.434   0.490  16.354 -0.3959 -0.2736  0.1224
 4528TIP3    H134999   6.474   0.575  16.371 -1.1522 -0.1795  1.5197
 4528TIP3    H235000   6.508   0.429  16.345  0.1949  0.6598 -1.8558
 4529TIP3   OH235001   0.929   2.926  15.441  0.0345  0.0754  0.2517
 4529TIP3    H135002   0.910   2.935  15.348 -1.6788 -0.9397  0.4498
 4529TIP3    H235003   1.016   2.965  15.453 -1.3432  3.9453 -1.0373
 4530TIP3   OH235004   5.027   5.487  15.951 -0.7359 -0.1451  1.1859
 4530TIP3    H135005   4.987   5.457  16.033 -0.5872 -2.6223  0.4429
 4530TIP3    H235006   5.022   5.582  15.955 -0.8717 -0.1906  3.9921
 4531TIP3   OH235007   2.649   5.726   4.911 -0.0386  0.0561 -0.0006
 4531TIP3    H135008   2.663   5.673   4.832  1.7337  0.2320  0.1499
 4531TIP3    H235009   2.711   5.798   4.903  2.3083 -1.4224  2.8269
 4532TIP3   OH235010   4.752   6.754  14.293  0.4671  0.5550 -0.0842
 4532TIP3    H135011   4.683   6.783  14.233 -0.2574  0.1074  0.5141
 4532TIP3    H235012   4.770   6.830  14.348 -0.7240  0.2236  0.8262
 4533TIP3   OH235013   2.304   1.394   3.925  0.2403  0.3815 -0.0243
 4533TIP3    H135014   2.233   1.447   3.888 -0.5174 -0.1184  0.6820
 4533TIP3    H235015   2.300   1.312   3.875  0.8776  0.6635 -0.5543
 4534TIP3   OH235016   2.557   0.217  10.866 -1.0482  0.4026 -0.2197
 4534TIP3    H135017   2.462   0.221  10.881 -0.6220  1.3581  3.1421
 4534TIP3    H235018   2.586   0.141  10.916 -0.1298 -0.7178 -2.3463
 4535TIP3   OH235019   0.219   5.934  13.561 -0.6740 -0.1113  0.4274
 4535TIP3    H135020   0.289   5.877  13.531 -0.3490  0.7146 -0.4322
 4535TIP3    H235021   0.168   5.954  13.482 -0.3593  1.3438  0.5589
 4536TIP3   OH235022   6.354   3.379  11.820  0.0649  0.3060 -0.3398
 4536TIP3    H135023   6.383   3.358  11.909 -0.5498  0.0496 -0.1954
 4536TIP3    H235024   6.415   3.446  11.790  1.0868 -0.5419 -0.2181
 4537TIP3   OH235025   2.751   5.078  16.456 -0.1697 -0.6699  0.3439
 4537TIP3    H135026   2.763   5.092  16.362 -2.4163  2.6575  0.4032
 4537TIP3    H235027   2.839   5.067  16.491  0.8154 -0.3906 -1.9270
 4538TIP3   OH235028   1.448   2.933  12.513  0.3463  0.6269 -0.2964
 4538TIP3    H135029   1.414   3.021  12.529  1.7641  1.1629 -0.1685
 4538TIP3    H235030   1.543   2.942  12.516  0.5255 -1.0992  0.7359
 4539TIP3   OH235031   4.209   3.988   4.217 -0.4478 -0.0796 -0.6184
 4539TIP3    H135032   4.282   3.950   4.169  0.7251 -0.4083  1.3309
 4539TIP3    H235033   4.152   3.913   4.237 -0.6555 -0.0260 -0.9948
 4540TIP3   OH235034   5.363   1.091   2.663 -0.4082  0.1468 -0.0815
 4540TIP3    H135035   5.358   1.059   2.753 -0.3968 -1.6766 -0.6809
 4540TIP3    H235036   5.374   1.012   2.610  0.4850  1.2390 -1.6248
 4541TIP3   OH235037   3.103   0.323  11.016  0.6004 -1.0588  0.1807
 4541TIP3    H135038   3.029   0.372  10.981  0.0877 -1.3652  0.8155
 4541TIP3    H235039   3.064   0.246  11.057  1.3229 -1.5405 -0.0092
 4542TIP3   OH235040   1.872   4.012  16.347  0.2256 -0.3305  0.1420
 4542TIP3    H135041   1.924   4.067  16.288 -0.3384  0.7711  0.6487
 4542TIP3    H235042   1.903   4.034  16.435  0.8357 -1.7300  0.3090
 4543TIP3   OH235043   1.005   1.020   3.470  0.1928 -0.4368 -0.2712
 4543TIP3    H135044   1.096   0.992   3.456  0.2657 -0.9469  1.0558
 4543TIP3    H235045   0.955   0.939   3.467  0.1190 -0.4873  1.4208
 4544TIP3   OH235046   5.505   0.337   1.724  0.5150  0.2767 -0.3735
 4544TIP3    H135047   5.453   0.417   1.728  0.6017  0.2958  0.3452
 4544TIP3    H235048   5.482   0.289   1.803 -0.4388 -0.9790 -1.3536
 4545TIP3   OH235049   3.522   5.810  14.511  0.1062  0.0476 -0.2349
 4545TIP3    H135050   3.605   5.772  14.485  0.2400 -0.9966  1.5746
 4545TIP3    H235051   3.525   5.899  14.476  0.8330 -0.7975 -2.4365
 4546TIP3   OH235052   2.964   5.553   5.129 -0.4572 -0.1445 -0.0900
 4546TIP3    H135053   3.012   5.566   5.048 -0.2327  2.8027  0.3867
 4546TIP3    H235054   2.877   5.524   5.101  0.2815 -1.3788 -1.2053
 4547TIP3   OH235055   1.169   5.548  16.518 -0.3196 -0.2155 -0.0941
 4547TIP3    H135056   1.164   5.638  16.550 -2.0444 -0.2169 -0.2513
 4547TIP3    H235057   1.216   5.555  16.435 -0.4005  0.5317 -0.0838
 4548TIP3   OH235058   4.188   0.838   0.766 -0.4701 -0.6440  0.0089
 4548TIP3    H135059   4.172   0.754   0.807 -1.6839 -1.1883 -1.5137
 4548TIP3    H235060   4.250   0.819   0.694  1.8287  0.3306  1.5946
 4549TIP3   OH235061   5.622   6.518   0.827 -0.8543 -0.0822  0.2539
 4549TIP3    H135062   5.667   6.548   0.748 -2.5117  2.1275  0.0606
 4549TIP3    H235063   5.660   6.432   0.844  0.7425  0.0766 -1.9812
 4550TIP3   OH235064   0.279   4.145  15.870 -0.1868 -0.4348  0.6922
 4550TIP3    H135065   0.353   4.201  15.890  0.5388  0.7016 -4.0911
 4550TIP3    H235066   0.308   4.057  15.895  2.0609  0.2106  0.5467
 4551TIP3   OH235067   5.785   6.557  13.021 -0.2437  0.2582 -0.1025
 4551TIP3    H135068   5.697   6.520  13.015  0.2602 -0.8408 -1.1987
 4551TIP3    H235069   5.834   6.495  13.076 -0.0165  0.5783  0.0616
 4552TIP3   OH235070   0.116   4.395  13.017 -0.1534  0.3551 -0.0601
 4552TIP3    H135071   0.134   4.483  13.050 -0.3689  1.0827 -1.7652
 4552TIP3    H235072   0.027   4.400  12.983  0.2051 -0.2105 -1.1343
 4553TIP3   OH235073   3.669   1.025  15.906 -0.2522  1.0575  0.1206
 4553TIP3    H135074   3.600   0.965  15.935  2.0568 -1.7224  0.2565
 4553TIP3    H235075   3.735   1.020  15.974  1.5199  1.0357 -1.5129
 4554TIP3   OH235076   5.060   4.943  15.722 -0.2421  0.3008 -0.0180
 4554TIP3    H135077   5.131   4.957  15.786 -1.4082 -0.2290  1.4522
 4554TIP3    H235078   5.069   4.851  15.698  1.1133  0.8511 -1.8257
 4555TIP3   OH235079   2.895   6.124   0.276 -0.3477 -0.0576 -0.0901
 4555TIP3    H135080   2.879   6.109   0.369 -0.3783 -2.4752 -0.4173
 4555TIP3    H235081   2.979   6.081   0.260 -0.6679 -0.2471 -1.3122
 4556TIP3   OH235082   6.685   2.209  12.594 -0.3657  0.2692  0.0114
 4556TIP3    H135083   6.773   2.233  12.624  0.4239  0.6450 -2.4110
 4556TIP3    H235084   6.636   2.291  12.596  0.4759  0.8759 -2.1899
 4557TIP3   OH235085   3.126   3.353  10.709  0.0895  0.1120  0.1068
 4557TIP3    H135086   3.055   3.289  10.715  0.7569 -0.7344 -0.8781
 4557TIP3    H235087   3.198   3.306  10.668  1.0399  1.1283  0.5583
 4558TIP3   OH235088   5.777   6.462  10.872 -0.0477  0.4841  0.3028
 4558TIP3    H135089   5.835   6.387  10.864  0.4104  0.6118  2.0395
 4558TIP3    H235090   5.760   6.490  10.782  1.4918 -0.3739 -0.2779
 4559TIP3   OH235091   4.521   6.624   3.977  0.1183 -0.0152  0.1528
 4559TIP3    H135092   4.572   6.641   3.898  1.1694 -1.7307  0.4227
 4559TIP3    H235093   4.524   6.530   3.989  0.9887  0.2629  2.9021
 4560TIP3   OH235094   1.486   3.454   2.090 -0.2542  0.4752 -0.1483
 4560TIP3    H135095   1.422   3.404   2.141 -1.9709  0.7724 -1.8623
 4560TIP3    H235096   1.433   3.518   2.042  1.1450 -0.0588 -2.5829
 4561TIP3   OH235097   0.325   3.536   0.818  0.4480 -0.1562 -0.1860
 4561TIP3    H135098   0.394   3.552   0.753  2.1391  1.6684  1.9114
 4561TIP3    H235099   0.309   3.622   0.857 -1.0014 -1.0730  1.3700
 4562TIP3   OH235100   3.915   4.169   1.790 -0.2531  0.0794 -0.2969
 4562TIP3    H135101   3.841   4.200   1.739  1.7918  0.8327 -3.0659
 4562TIP3    H235102   3.983   4.236   1.777  1.6111 -1.5877  0.3529
 4563TIP3   OH235103   2.254   5.084  12.399 -0.0000  0.8251 -0.4200
 4563TIP3    H135104   2.266   5.051  12.488 -1.0614 -0.3979 -0.7077
 4563TIP3    H235105   2.161   5.074  12.381  0.4607 -0.8748 -2.3654
 4564TIP3   OH235106   1.268   3.099  12.118 -0.0671  0.5417 -0.8312
 4564TIP3    H135107   1.316   3.066  12.194  3.4340  2.0521 -2.1869
 4564TIP3    H235108   1.280   3.032  12.050 -1.8982 -0.0955 -0.5879
 4565TIP3   OH235109   1.070   6.567  14.839 -0.9434 -0.3083 -0.0850
 4565TIP3    H135110   1.041   6.607  14.756  1.1215 -0.4717 -0.9585
 4565TIP3    H235111   1.096   6.642  14.893  2.5687 -0.2242 -1.5840
 4566TIP3   OH235112   3.526   2.197  13.654  0.1530  0.1770  0.4954
 4566TIP3    H135113   3.551   2.224  13.566  1.3917 -0.7398  0.5373
 4566TIP3    H235114   3.440   2.156  13.643  0.6816 -0.7229 -0.4523
 4567TIP3   OH235115   5.684   2.566   1.688 -0.1437 -0.1204  0.2187
 4567TIP3    H135116   5.687   2.573   1.593 -2.3144  0.8492  0.1583
 4567TIP3    H235117   5.693   2.473   1.706 -2.3079 -0.6692 -1.1489
 4568TIP3   OH235118   2.352   3.041  16.194 -0.0901 -0.2198 -0.2601
 4568TIP3    H135119   2.423   3.099  16.165  0.0420 -0.8833 -1.3201
 4568TIP3    H235120   2.396   2.969  16.238  0.2640 -2.3382 -3.7368
 4569TIP3   OH235121   2.110   2.313  13.913  0.6547  0.5486 -0.0900
 4569TIP3    H135122   2.050   2.371  13.865  1.3837 -0.8204 -2.9090
 4569TIP3    H235123   2.053   2.259  13.967 -0.5397  0.4175 -1.4081
 4570TIP3   OH235124   6.418   4.431   2.888  0.6931  0.2790  0.3526
 4570TIP3    H135125   6.398   4.382   2.969  1.4744 -0.4791  0.0980
 4570TIP3    H235126   6.346   4.408   2.829 -0.3051  1.4477  1.0687
 4571TIP3   OH235127   6.156   3.166  10.415 -0.1000  0.1878 -0.5132
 4571TIP3    H135128   6.171   3.221  10.493  0.1332 -0.4738 -0.0862
 4571TIP3    H235129   6.243   3.141  10.387 -0.2460 -1.0982  0.1180
 4572TIP3   OH235130   2.070   2.713   3.877  0.2055 -0.3355  0.5524
 4572TIP3    H135131   2.085   2.806   3.866 -0.6169 -0.2030  0.5011
 4572TIP3    H235132   2.152   2.680   3.914  1.5438 -0.1030 -1.9721
 4573TIP3   OH235133   4.296   2.355   3.498 -0.4857  0.3287 -0.3191
 4573TIP3    H135134   4.373   2.321   3.542 -1.1915 -0.8849  0.0229
 4573TIP3    H235135   4.331   2.417   3.433  0.6971  0.4844  0.4361
 4574TIP3   OH235136   0.443   6.123  14.419 -0.0251  0.2184 -0.0558
 4574TIP3    H135137   0.497   6.148  14.344 -1.3645 -1.4619 -1.6722
 4574TIP3    H235138   0.436   6.028  14.414 -1.0952  0.1645  1.5548
 4575TIP3   OH235139   1.464   5.384   3.477 -0.4960  0.3109 -0.1407
 4575TIP3    H135140   1.379   5.350   3.506  0.2934 -1.3565  0.2918
 4575TIP3    H235141   1.481   5.338   3.395 -0.0454  0.7238 -0.2812
 4576TIP3   OH235142   4.188   6.239   2.357  0.3631 -0.8939  0.4246
 4576TIP3    H135143   4.239   6.320   2.361  0.3510 -0.9212  1.3565
 4576TIP3    H235144   4.097   6.268   2.347  0.4335 -0.8167 -0.0197
 4577TIP3   OH235145   1.470   4.654  12.752  0.7863  0.7347  0.4983
 4577TIP3    H135146   1.536   4.614  12.808  0.1946 -0.1612  0.5898
 4577TIP3    H235147   1.406   4.691  12.812 -1.1706 -2.4008  0.5696
 4578TIP3   OH235148   6.727   2.293   4.727 -0.1470  0.4959 -1.0866
 4578TIP3    H135149   6.798   2.323   4.783 -0.9019  0.5362 -0.1089
 4578TIP3    H235150   6.765   2.221   4.676  0.6572  0.6873 -0.7668
 4579TIP3   OH235151   1.479   6.458   2.407  0.6564 -0.2703 -0.0475
 4579TIP3    H135152   1.412   6.513   2.447 -1.2245 -2.8833  0.7170
 4579TIP3    H235153   1.558   6.511   2.408 -0.7437  1.9651  1.6209
 4580TIP3   OH235154   5.161   6.769   6.356 -0.4747 -0.1348 -0.1496
 4580TIP3    H135155   5.166   6.864   6.369 -0.2364 -0.3119  1.1241
 4580TIP3    H235156   5.241   6.747   6.309 -0.5447  0.2902 -0.4799
 4581TIP3   OH235157   5.822   5.967   2.220  0.2072 -0.3550 -0.0663
 4581TIP3    H135158   5.866   5.882   2.223 -0.0359 -0.4707  1.8474
 4581TIP3    H235159   5.890   6.029   2.196  0.7607 -0.9005  0.0728
 4582TIP3   OH235160   3.714   1.890  16.534 -1.2074 -0.6811 -0.0213
 4582TIP3    H135161   3.712   1.811  16.588 -3.0705 -1.1050 -0.6388
 4582TIP3    H235162   3.661   1.868  16.458 -0.3949  0.6306 -1.0049
 4583TIP3   OH235163   0.158   4.566  16.803 -0.4420  0.5816  0.3322
 4583TIP3    H135164   0.109   4.506  16.747  0.0868  0.8532 -0.4294
 4583TIP3    H235165   0.167   4.646  16.751  0.3679  0.7124  0.6588
 4584TIP3   OH235166   2.342   4.678  13.390  0.0313 -0.1493  0.1743
 4584TIP3    H135167   2.288   4.673  13.311 -2.2590 -1.7164  1.7187
 4584TIP3    H235168   2.348   4.588  13.421  1.8074  0.2776  1.2580
 4585TIP3   OH235169   5.738   5.235   1.818  0.3655 -0.3131 -0.4021
 4585TIP3    H135170   5.672   5.178   1.777  1.1376 -1.0184 -0.6946
 4585TIP3    H235171   5.806   5.244   1.751  1.1298 -0.5727  0.3305
 4586TIP3   OH235172   6.394   2.333  15.862  0.3176 -0.5962  0.7688
 4586TIP3    H135173   6.318   2.281  15.835  1.4635 -3.0726  2.0503
 4586TIP3    H235174   6.464   2.304  15.804  0.9546 -0.3569  1.4124
 4587TIP3   OH235175   1.497   4.395   3.285  0.0801  0.0615  0.5094
 4587TIP3    H135176   1.524   4.326   3.346  2.1985 -0.3181 -0.7459
 4587TIP3    H235177   1.402   4.401   3.297  0.3194 -0.3635  3.3978
 4588TIP3   OH235178   4.121   4.191   6.600 -0.2010  0.0883  0.6871
 4588TIP3    H135179   4.031   4.165   6.619 -0.2079 -0.6075 -0.2464
 4588TIP3    H235180   4.174   4.143   6.664 -0.4799  0.4773  1.2214
 4589TIP3   OH235181   1.330   5.112   1.248  0.1801  0.3787 -0.1203
 4589TIP3    H135182   1.306   5.059   1.172 -0.5337  1.6318 -0.8124
 4589TIP3    H235183   1.252   5.111   1.304  0.6588 -0.4347  0.5551
 4590TIP3   OH235184   2.706   5.401  14.342  0.5469  0.2164 -0.0133
 4590TIP3    H135185   2.671   5.313  14.332 -3.0504  1.2687  1.6396
 4590TIP3    H235186   2.671   5.450  14.267  0.5800  0.7496  0.3134
 4591TIP3   OH235187   2.392   5.889   0.151 -0.2663  0.5669 -0.0045
 4591TIP3    H135188   2.374   5.831   0.224  0.8265 -0.4564 -0.5262
 4591TIP3    H235189   2.451   5.955   0.187  0.6475 -0.2036 -0.0617
 4592TIP3   OH235190   4.160   0.246   5.828  0.6233  0.2848  0.1972
 4592TIP3    H135191   4.185   0.176   5.888  1.3453 -1.2659 -1.7903
 4592TIP3    H235192   4.226   0.314   5.841  1.4437 -0.5279  0.3644
 4593TIP3   OH235193   3.373   5.107  15.410  0.4722  0.2254 -0.0054
 4593TIP3    H135194   3.421   5.090  15.329  0.6345  0.1402  0.1054
 4593TIP3    H235195   3.359   5.202  15.411  1.9893  0.4857  0.6815
 4594TIP3   OH235196   0.960   3.997   5.661  0.6823  0.0334  0.1021
 4594TIP3    H135197   0.868   4.021   5.649  0.9377  0.8810 -0.2013
 4594TIP3    H235198   0.960   3.944   5.741  0.1790  1.5733  1.1722
 4595TIP3   OH235199   1.880   0.611   1.337 -0.3914  0.0336  0.3596
 4595TIP3    H135200   1.970   0.631   1.361 -0.7041 -0.0551  1.6901
 4595TIP3    H235201   1.832   0.617   1.419 -1.3028 -1.6073 -0.0237
 4596TIP3   OH235202   5.242   4.534  16.754 -1.0080  0.1201 -0.2889
 4596TIP3    H135203   5.264   4.588  16.829  0.0559  0.1743 -0.6329
 4596TIP3    H235204   5.226   4.596  16.682 -1.0144  0.0313 -0.3644
 4597TIP3   OH235205   6.412   2.548   1.758  0.4266  0.1803 -0.6247
 4597TIP3    H135206   6.382   2.458   1.751  1.6620 -0.3447  0.4243
 4597TIP3    H235207   6.381   2.577   1.844 -2.0094  1.5989 -1.8779
 4598TIP3   OH235208   4.993   4.421   5.378 -0.5750  0.2377 -0.1588
 4598TIP3    H135209   4.929   4.423   5.307 -0.6029  1.6591 -0.1069
 4598TIP3    H235210   5.059   4.486   5.354 -0.1464  0.1456  0.7144
 4599TIP3   OH235211   4.288   4.903  12.435  0.0569 -0.0275 -0.6653
 4599TIP3    H135212   4.374   4.908  12.477  0.3512 -0.1210 -1.2433
 4599TIP3    H235213   4.227   4.889  12.507  0.7083 -1.6652 -0.3939
 4600TIP3   OH235214   2.059   4.073   1.298 -0.2247 -0.0990 -0.7264
 4600TIP3    H135215   2.120   4.140   1.269 -0.7139  0.4713 -0.4475
 4600TIP3    H235216   1.998   4.063   1.225 -1.0090  0.8004 -0.2125
 4601TIP3   OH235217   3.562   2.999  14.294 -0.0225 -0.0266  0.0044
 4601TIP3    H135218   3.619   3.075  14.309 -1.2476  0.7865  0.7076
 4601TIP3    H235219   3.494   3.007  14.361 -1.0095 -0.9316 -0.8643
 4602TIP3   OH235220   1.423   4.321   4.296 -0.4090 -0.0960 -0.4687
 4602TIP3    H135221   1.420   4.346   4.388  1.7787 -0.9696 -0.1115
 4602TIP3    H235222   1.427   4.404   4.248 -1.3891  0.3535  0.2190
 4603TIP3   OH235223   3.713   3.145  13.775 -0.1883  0.4844 -0.6304
 4603TIP3    H135224   3.767   3.068  13.794  0.1595  0.4642 -1.6828
 4603TIP3    H235225   3.757   3.188  13.703  0.0062  2.0706  0.3890
 4604TIP3   OH235226   3.687   2.636  12.397  0.3202  0.3958  0.3984
 4604TIP3    H135227   3.633   2.570  12.439  0.0047  0.7596  0.5632
 4604TIP3    H235228   3.744   2.668  12.466 -0.8328  1.6632  0.8019
 4605TIP3   OH235229   4.063   2.794  14.563 -0.1359 -0.0480 -0.0254
 4605TIP3    H135230   4.039   2.815  14.473 -0.2293  0.8957  0.2125
 4605TIP3    H235231   4.115   2.714  14.556 -0.4316 -0.1711 -0.8798
 4606TIP3   OH235232   2.292   0.164  14.587 -0.1658  0.0252  0.2329
 4606TIP3    H135233   2.383   0.166  14.615 -0.4609 -2.6230  1.5985
 4606TIP3    H235234   2.248   0.227  14.644  0.4921  0.0060  0.7734
 4607TIP3   OH235235   3.496   1.197   3.820 -0.3254  0.0193 -0.0833
 4607TIP3    H135236   3.459   1.110   3.829  0.0624 -0.2780 -1.2036
 4607TIP3    H235237   3.432   1.245   3.768 -0.3980  0.3266  0.2813
 4608TIP3   OH235238   6.146   2.685   0.236 -0.0574  0.2681  0.0582
 4608TIP3    H135239   6.230   2.639   0.224  0.1316  0.7254 -0.4094
 4608TIP3    H235240   6.170   2.777   0.236 -0.4468  0.3700  0.9303
 4609TIP3   OH235241   6.502   6.515  12.451 -0.0298  0.0297  0.0994
 4609TIP3    H135242   6.578   6.505  12.509  0.1582 -1.0255 -0.3041
 4609TIP3    H235243   6.458   6.594  12.483  2.0066  1.5027 -0.5371
 4610TIP3   OH235244   3.299   0.665   6.980  0.2843 -0.6008 -0.3976
 4610TIP3    H135245   3.206   0.680   6.996  0.1379 -0.9365 -0.9355
 4610TIP3    H235246   3.311   0.682   6.887  1.2825  2.1078  0.1336
 4611TIP3   OH235247   1.252   6.639   5.282  0.1356  0.5241 -0.4919
 4611TIP3    H135248   1.166   6.651   5.240  0.1407 -2.5817 -1.7008
 4611TIP3    H235249   1.288   6.561   5.239  2.4812  0.2606  1.7381
 4612TIP3   OH235250   1.027   1.472  16.000  0.5810 -0.0589 -0.1773
 4612TIP3    H135251   1.077   1.398  15.966 -0.0847 -0.9391  0.7145
 4612TIP3    H235252   0.938   1.439  16.010  0.2039  0.9469 -0.0136
 4613TIP3   OH235253   2.510   1.498  13.736 -0.6316  0.3843  0.0897
 4613TIP3    H135254   2.520   1.431  13.669  0.6059 -0.6066  1.2096
 4613TIP3    H235255   2.574   1.566  13.713 -0.3870  0.1661  0.1247
 4614TIP3   OH235256   3.781   0.747  12.954  0.9094  0.0887  0.4581
 4614TIP3    H135257   3.806   0.750  13.046  1.4903 -0.3419  0.3150
 4614TIP3    H235258   3.842   0.685  12.914  3.1007  2.8776 -0.9442
 4615TIP3   OH235259   4.527   1.734   4.183  0.3064  0.3280  0.3716
 4615TIP3    H135260   4.514   1.640   4.189  0.9983  0.2530  0.7848
 4615TIP3    H235261   4.545   1.762   4.273  1.0532  0.6981  0.1207
 4616TIP3   OH235262   2.855   5.163   2.458 -0.3730  0.4915 -0.3593
 4616TIP3    H135263   2.948   5.144   2.444 -0.5982 -0.7324 -0.3045
 4616TIP3    H235264   2.853   5.212   2.540  0.1835  0.0085 -0.0434
 4617TIP3   OH235265   1.036   5.388   2.235  0.1221  0.1971 -0.3457
 4617TIP3    H135266   0.988   5.386   2.318 -0.7309 -0.5002 -0.8382
 4617TIP3    H235267   1.127   5.370   2.260  0.0437  0.9080  0.5298
 4618TIP3   OH235268   1.710   3.182   2.166 -0.3201 -0.4022 -0.6819
 4618TIP3    H135269   1.784   3.241   2.179 -0.3611  0.2368 -2.8589
 4618TIP3    H235270   1.642   3.215   2.225 -0.1109  1.3411 -1.3573
 4619TIP3   OH235271   5.123   2.706   5.572  0.0824  0.5818 -0.4120
 4619TIP3    H135272   5.166   2.674   5.494  1.2179 -1.3884  0.9559
 4619TIP3    H235273   5.154   2.796   5.582  1.7296  0.0981 -0.9782
 4620TIP3   OH235274   4.898   5.904  17.010 -0.5408 -0.3226  0.0175
 4620TIP3    H135275   4.919   5.814  16.983  0.2271  0.0224 -0.5489
 4620TIP3    H235276   4.965   5.925  17.075 -2.0829 -0.9725  1.9086
 4621TIP3   OH235277   3.249   5.168   3.546  0.3173  0.5003 -0.3119
 4621TIP3    H135278   3.325   5.170   3.489  0.1882 -1.9111 -0.6545
 4621TIP3    H235279   3.269   5.102   3.612 -0.0057  2.4112  1.8345
 4622TIP3   OH235280   4.514   6.327  16.136  0.1591 -0.3392  0.1342
 4622TIP3    H135281   4.594   6.360  16.095  0.4893 -2.9635 -1.5955
 4622TIP3    H235282   4.453   6.315  16.062 -0.9817 -0.6522  1.1000
 4623TIP3   OH235283   5.478   4.385   0.925  0.4719 -0.4522  0.1395
 4623TIP3    H135284   5.402   4.403   0.869  1.1285  0.6732 -0.4303
 4623TIP3    H235285   5.534   4.461   0.914  2.7102 -2.1376 -1.1647
 4624TIP3   OH235286   3.490   3.418   0.983  0.6743  0.5165  0.4650
 4624TIP3    H135287   3.438   3.371   0.919 -0.2969  0.5814  1.1731
 4624TIP3    H235288   3.560   3.358   1.006  1.8172  0.9814 -1.5815
 4625TIP3   OH235289   4.712   3.922  16.252 -0.3591  0.5240 -0.0365
 4625TIP3    H135290   4.738   4.009  16.221  0.3261 -0.5750 -2.8616
 4625TIP3    H235291   4.712   3.868  16.173  0.1439 -2.2752  1.7623
 4626TIP3   OH235292   0.198   3.882   4.455  0.3847 -0.5040  0.4029
 4626TIP3    H135293   0.176   3.801   4.409  0.4445 -0.4100  0.2096
 4626TIP3    H235294   0.172   3.865   4.546 -0.1047 -0.5487  0.2610
 4627TIP3   OH235295   5.573   5.652   4.083 -0.2083  0.0612  0.4557
 4627TIP3    H135296   5.556   5.744   4.103 -0.5774  0.4171 -1.3390
 4627TIP3    H235297   5.519   5.604   4.146 -2.9955  1.1242 -0.9474
 4628TIP3   OH235298   1.712   1.453  14.222 -0.0626 -0.1998 -0.8725
 4628TIP3    H135299   1.763   1.398  14.164 -0.6973 -1.3292 -0.3996
 4628TIP3    H235300   1.776   1.490  14.283  0.2118 -1.6114 -0.2710
 4629TIP3   OH235301   4.642   2.704  11.949 -0.3829  0.0451  0.0490
 4629TIP3    H135302   4.731   2.689  11.917 -0.0288 -0.4529  1.2119
 4629TIP3    H235303   4.641   2.663  12.036 -1.4395  0.9374  0.4712
 4630TIP3   OH235304   3.734   0.182  14.914  0.0079 -0.2039  0.7845
 4630TIP3    H135305   3.809   0.235  14.941  0.2670 -0.4440  0.5451
 4630TIP3    H235306   3.657   0.235  14.936  0.1823 -0.5764  2.4327
 4631TIP3   OH235307   4.976   1.282   0.352 -0.1203 -0.2064  0.0006
 4631TIP3    H135308   5.056   1.235   0.376  0.4475  0.6165 -0.2225
 4631TIP3    H235309   4.986   1.369   0.392 -0.3439  0.3070 -1.0146
 4632TIP3   OH235310   0.146   2.500  14.944 -0.0143 -0.0516  0.2076
 4632TIP3    H135311   0.134   2.595  14.948  0.2150 -0.0567  1.3165
 4632TIP3    H235312   0.173   2.483  14.854  0.1091  0.9557  0.0430
 4633TIP3   OH235313   6.693   6.336   2.509  0.5086 -0.2363  0.2593
 4633TIP3    H135314   6.718   6.422   2.474  0.1956 -0.4827 -0.5908
 4633TIP3    H235315   6.752   6.322   2.583 -0.1347  1.1822  1.0872
 4634TIP3   OH235316   2.384   2.836  14.377  0.2266 -0.1062 -0.7942
 4634TIP3    H135317   2.455   2.856  14.438  1.4695  1.5326 -2.6403
 4634TIP3    H235318   2.420   2.765  14.322  0.0758  0.0684 -1.1214
 4635TIP3   OH235319   4.459   2.879   3.302 -0.6893  0.0678  0.0172
 4635TIP3    H135320   4.373   2.918   3.291  0.0910  1.2855 -2.4602
 4635TIP3    H235321   4.504   2.936   3.364 -0.3402  1.8667 -1.8109
 4636TIP3   OH235322   5.284   5.802  16.848  0.0203 -0.2386 -0.1182
 4636TIP3    H135323   5.356   5.767  16.900  1.2082 -0.4917 -1.8530
 4636TIP3    H235324   5.324   5.827  16.765 -1.5609  1.3882 -0.4537
 4637TIP3   OH235325   2.096   3.193   5.457  0.4316  0.6818  0.1552
 4637TIP3    H135326   2.068   3.233   5.375  0.0848  0.3712  0.1176
 4637TIP3    H235327   2.059   3.250   5.525 -1.1659 -0.2521  0.1239
 4638TIP3   OH235328   0.531   1.990  14.053 -0.1021 -0.1027  0.8037
 4638TIP3    H135329   0.508   1.988  13.960  1.5414 -0.6129  0.3632
 4638TIP3    H235330   0.493   2.072  14.086  1.3108  1.3160 -0.9066
 4639TIP3   OH235331   6.293   0.595   1.775  1.0080  0.0259  0.2619
 4639TIP3    H135332   6.353   0.578   1.702 -0.9441  1.0491 -1.7100
 4639TIP3    H235333   6.284   0.690   1.778  0.3021 -0.0490  1.2196
 4640TIP3   OH235334   0.588   6.290  10.841  0.0916  0.0465  0.5145
 4640TIP3    H135335   0.513   6.263  10.788 -0.2853  0.3677  0.8763
 4640TIP3    H235336   0.664   6.254  10.795 -0.4375 -2.8246  1.7084
 4641TIP3   OH235337   5.798   0.272  14.527  0.0049 -0.0551 -0.6918
 4641TIP3    H135338   5.770   0.305  14.612 -1.0595 -0.5463 -0.8441
 4641TIP3    H235339   5.863   0.204  14.548 -1.6378 -1.5256 -0.1681
 4642TIP3   OH235340   2.907   4.481  11.453 -0.2922 -0.2733  0.3736
 4642TIP3    H135341   2.894   4.544  11.524  0.3196  1.4795 -1.0004
 4642TIP3    H235342   3.001   4.482  11.437  0.0273 -3.0136  1.5457
 4643TIP3   OH235343   3.437   5.950  15.465  0.0058 -0.3990  0.2088
 4643TIP3    H135344   3.459   5.994  15.547 -0.0458  0.2836 -0.1278
 4643TIP3    H235345   3.500   5.985  15.402 -0.2463 -0.5647 -0.1387
 4644TIP3   OH235346   6.467   6.066   2.363  0.1888 -0.0888  0.1568
 4644TIP3    H135347   6.378   6.048   2.394  0.6326  0.1314  1.6182
 4644TIP3    H235348   6.457   6.139   2.302 -0.9182 -1.5758 -1.5575
 4645TIP3   OH235349   3.452   0.387   0.118 -0.1040  0.1941 -0.2923
 4645TIP3    H135350   3.388   0.456   0.135 -0.2988  0.0595 -0.4779
 4645TIP3    H235351   3.500   0.378   0.201 -0.4587  0.1534 -0.0899
 4646TIP3   OH235352   2.142   1.731  13.161 -0.0934 -0.6744 -0.2227
 4646TIP3    H135353   2.119   1.744  13.069 -0.8459 -0.7409 -0.0527
 4646TIP3    H235354   2.093   1.799  13.208 -1.3233 -1.8877  0.3214
 4647TIP3   OH235355   6.008   6.620  15.498  0.0547  0.5116 -0.3023
 4647TIP3    H135356   6.026   6.664  15.581 -1.7651  3.0760 -1.1007
 4647TIP3    H235357   5.951   6.547  15.522 -1.1495  1.7027  0.7316
 4648TIP3   OH235358   1.773   3.855   1.724 -0.3189  0.0480 -0.1543
 4648TIP3    H135359   1.801   3.947   1.724 -1.1228  0.2959 -0.4030
 4648TIP3    H235360   1.703   3.851   1.660  0.3499 -0.9526 -0.8499
 4649TIP3   OH235361   6.234   4.955  12.905 -0.2075  0.9787  0.5199
 4649TIP3    H135362   6.200   4.926  12.820  1.5283  2.3118 -0.7165
 4649TIP3    H235363   6.206   4.887  12.967 -0.6901 -0.5526 -1.2869
 4650TIP3   OH235364   3.405   0.434  14.631 -0.4407 -0.5508 -0.0381
 4650TIP3    H135365   3.372   0.512  14.676 -0.0458 -0.0519 -0.5943
 4650TIP3    H235366   3.499   0.435  14.645 -0.2563 -0.1514 -1.2106
 4651TIP3   OH235367   0.696   4.675  16.758 -0.0218  0.4245 -0.3943
 4651TIP3    H135368   0.676   4.721  16.839  1.1919  0.6374 -0.1961
 4651TIP3    H235369   0.635   4.602  16.756  1.2981 -0.8620  1.8147
 4652TIP3   OH235370   4.265   4.565   2.433 -0.8379 -0.0066  0.5319
 4652TIP3    H135371   4.284   4.518   2.514 -0.5568  0.7586  0.9254
 4652TIP3    H235372   4.327   4.639   2.433  1.1267 -1.5136 -1.7683
 4653TIP3   OH235373   5.362   3.049   0.921 -0.0183 -0.6671 -0.3992
 4653TIP3    H135374   5.288   2.989   0.928 -1.2480  0.5829 -1.9743
 4653TIP3    H235375   5.426   3.002   0.867 -1.6784  0.0018 -3.0978
 4654TIP3   OH235376   4.380   5.411  13.217 -0.1979 -0.0316  0.1952
 4654TIP3    H135377   4.373   5.332  13.271  0.0022  1.3572  2.3776
 4654TIP3    H235378   4.318   5.398  13.146  0.7262 -2.6612 -0.2260
 4655TIP3   OH235379   5.919   3.924  11.501  0.1853 -0.2487  0.1725
 4655TIP3    H135380   5.954   3.881  11.423 -1.0247 -1.6815  0.3822
 4655TIP3    H235381   5.892   3.852  11.559  1.5289  0.7659  2.1693
 4656TIP3   OH235382   5.343   5.699  13.429  0.4893 -0.4425 -0.5739
 4656TIP3    H135383   5.366   5.740  13.512  1.4116 -0.7037 -0.6943
 4656TIP3    H235384   5.247   5.696  13.430  0.4758 -0.0867  0.2989
 4657TIP3   OH235385   1.622   4.563   5.611  0.0369  0.3631  0.0941
 4657TIP3    H135386   1.663   4.549   5.697  0.2775  1.1652  0.1172
 4657TIP3    H235387   1.580   4.479   5.591  0.3777  0.0154  0.7787
 4658TIP3   OH235388   3.557   5.977   2.478  0.1302 -0.5448  0.0435
 4658TIP3    H135389   3.595   5.894   2.506  0.7338 -0.1722  0.3637
 4658TIP3    H235390   3.542   5.966   2.384  2.4053 -0.2251 -0.4135
 4659TIP3   OH235391   3.715   4.815  14.165 -0.0467 -0.1979  0.1680
 4659TIP3    H135392   3.660   4.801  14.242  0.9961 -0.6633  0.8392
 4659TIP3    H235393   3.717   4.911  14.155 -1.0034 -0.1743  0.1033
 4660TIP3   OH235394   4.724   3.460  17.017  0.8946 -0.6292  0.0446
 4660TIP3    H135395   4.762   3.508  16.944  0.2809  2.2104  1.4566
 4660TIP3    H235396   4.634   3.442  16.990  1.1391 -1.0573 -0.5068
 4661TIP3   OH235397   3.707   2.928   2.730 -0.0575  0.0263 -0.0265
 4661TIP3    H135398   3.630   2.892   2.685 -1.8976  2.5301  0.8980
 4661TIP3    H235399   3.742   2.854   2.779 -1.7226 -1.2778 -0.6914
 4662TIP3   OH235400   5.356   3.765   1.810  0.0327  0.3691 -0.4832
 4662TIP3    H135401   5.366   3.860   1.821  0.9556  0.1568  0.8506
 4662TIP3    H235402   5.391   3.728   1.892 -1.3195 -1.0816 -0.5187
 4663TIP3   OH235403   3.825   1.102   3.965  0.0427  0.4380 -1.2419
 4663TIP3    H135404   3.855   1.180   3.917  2.2841 -0.0666 -0.7722
 4663TIP3    H235405   3.898   1.080   4.022 -1.9866  0.1470  1.3913
 4664TIP3   OH235406   1.616   0.558   2.929 -0.1962  0.2413  0.3082
 4664TIP3    H135407   1.643   0.505   2.854 -1.0059  1.4849 -0.8880
 4664TIP3    H235408   1.684   0.625   2.936  0.3246 -0.3550  1.2385
 4665TIP3   OH235409   5.466   0.879  13.695  0.4897 -0.7345  0.0598
 4665TIP3    H135410   5.386   0.848  13.653  0.4522  0.1633 -0.5531
 4665TIP3    H235411   5.496   0.805  13.748 -0.2958 -1.3563 -0.3539
 4666TIP3   OH235412   1.438   0.312   4.472 -0.0779 -0.0108 -0.1211
 4666TIP3    H135413   1.402   0.355   4.395  0.5665  0.1237 -0.3539
 4666TIP3    H235414   1.431   0.378   4.541 -2.1763 -0.6840  0.3750
 4667TIP3   OH235415   0.389   5.608  16.182 -0.0304  0.2943  0.0392
 4667TIP3    H135416   0.466   5.665  16.180 -0.6183  1.0847 -0.2581
 4667TIP3    H235417   0.413   5.534  16.126  1.1498 -0.3200  1.2986
 4668TIP3   OH235418   4.895   5.638  16.359  0.1865  0.2772 -0.1042
 4668TIP3    H135419   4.978   5.680  16.336 -0.4041  1.3366 -0.3808
 4668TIP3    H235420   4.828   5.688  16.311 -0.7343  0.2910  1.1274
 4669TIP3   OH235421   5.125   4.532  13.398  0.2704 -0.2785  0.2882
 4669TIP3    H135422   5.116   4.523  13.303  1.8281  0.4653  0.0292
 4669TIP3    H235423   5.036   4.538  13.431 -0.3159 -1.2331 -1.0563
 4670TIP3   OH235424   2.364   5.137  13.452  0.5793  0.2524 -0.4398
 4670TIP3    H135425   2.420   5.213  13.470  0.6293  0.5054 -1.5903
 4670TIP3    H235426   2.423   5.074  13.411  0.7209 -0.7476  1.2188
 4671TIP3   OH235427   2.545   1.325   4.200 -0.1052  0.4685  0.1316
 4671TIP3    H135428   2.453   1.346   4.180 -0.3771  0.0724  0.9182
 4671TIP3    H235429   2.544   1.233   4.224  0.5178  0.4397  0.0629
 4672TIP3   OH235430   6.639   5.045  12.834  0.2620  0.3955  0.0232
 4672TIP3    H135431   6.730   5.039  12.802  0.4108  0.9754  0.3331
 4672TIP3    H235432   6.619   5.138  12.831 -0.2679  0.2841  0.1273
 4673TIP3   OH235433   3.557   1.389  15.974 -0.1887 -0.4499 -0.0991
 4673TIP3    H135434   3.644   1.365  16.006  0.1409 -0.6730 -1.1193
 4673TIP3    H235435   3.507   1.410  16.053  0.5960 -0.9596  0.5454
 4674TIP3   OH235436   6.247   2.776  13.752  0.1415 -0.5748 -0.0681
 4674TIP3    H135437   6.239   2.686  13.722 -1.1498 -0.4495 -0.1569
 4674TIP3    H235438   6.157   2.810  13.752  0.3620  0.1121  1.8083
 4675TIP3   OH235439   2.124   1.216   2.860 -0.1749  0.1599  0.4301
 4675TIP3    H135440   2.202   1.270   2.847 -0.1577  0.5072  1.8180
 4675TIP3    H235441   2.070   1.233   2.783 -0.3547  2.4931  0.9867
 4676TIP3   OH235442   1.846   6.734  14.523 -0.3267 -0.1590 -0.4676
 4676TIP3    H135443   1.759   6.771  14.540  0.9301  2.5283  0.6059
 4676TIP3    H235444   1.857   6.668  14.591 -1.0189  0.4155  0.2222
 4677TIP3   OH235445   0.664   6.231   0.156 -0.4023 -0.2999  0.0834
 4677TIP3    H135446   0.598   6.289   0.195  1.7662  1.1839  1.8323
 4677TIP3    H235447   0.618   6.186   0.086 -3.4188  0.1897  1.5759
 4678TIP3   OH235448   2.203   4.616  15.377  0.0473  0.2846  0.4075
 4678TIP3    H135449   2.188   4.688  15.316  0.1616 -0.4477 -0.5061
 4678TIP3    H235450   2.297   4.619  15.396  0.1793 -0.0287 -0.1674
 4679TIP3   OH235451   4.376   3.078  11.882 -0.5901  0.4296 -0.2825
 4679TIP3    H135452   4.288   3.043  11.870 -0.7927 -0.2065  2.4076
 4679TIP3    H235453   4.362   3.163  11.925  0.0899  0.1634  0.4887
 4680TIP3   OH235454   3.137   4.795   1.341 -0.2753  0.5149 -0.5762
 4680TIP3    H135455   3.192   4.864   1.302  0.4924 -0.9334 -2.1653
 4680TIP3    H235456   3.157   4.717   1.290 -1.4327 -0.8157  0.9220
 4681TIP3   OH235457   1.877   2.248  14.919  0.4498  0.0262  0.6748
 4681TIP3    H135458   1.968   2.273  14.907  0.7863 -1.4489 -0.0456
 4681TIP3    H235459   1.868   2.236  15.014  1.4479 -1.3368  0.6196
 4682TIP3   OH235460   3.402   2.597  13.485  0.0578  0.0232 -0.1561
 4682TIP3    H135461   3.457   2.530  13.444  0.2460 -0.2840  0.5682
 4682TIP3    H235462   3.457   2.674  13.490  0.6707 -0.4564  1.1152
 4683TIP3   OH235463   4.490   6.601   5.762 -0.0182 -0.1567  0.2889
 4683TIP3    H135464   4.570   6.570   5.720 -0.2470  1.1064 -1.1431
 4683TIP3    H235465   4.420   6.550   5.722 -0.1852  0.6757 -0.4994
 4684TIP3   OH235466   2.666   4.672   4.230 -0.8166 -0.3595 -0.5809
 4684TIP3    H135467   2.725   4.680   4.155 -0.2954  0.7900 -0.0762
 4684TIP3    H235468   2.580   4.658   4.191 -0.3293 -1.3619 -1.3459
 4685TIP3   OH235469   4.956   1.779   4.186  0.5870 -0.3253 -0.8114
 4685TIP3    H135470   5.013   1.708   4.216 -0.0546 -0.6748 -0.3782
 4685TIP3    H235471   5.008   1.827   4.122  2.4566  1.1131  1.6052
 4686TIP3   OH235472   3.680   2.303   2.232 -0.1452 -0.1203  0.2949
 4686TIP3    H135473   3.706   2.219   2.269  0.8498  0.0576  0.0221
 4686TIP3    H235474   3.761   2.342   2.200 -0.6511  0.7669  0.0450
 4687TIP3   OH235475   2.027   0.842  11.805  0.2741 -0.0892  0.1861
 4687TIP3    H135476   2.024   0.924  11.855 -1.7093 -0.0085  0.0265
 4687TIP3    H235477   2.074   0.865  11.725  0.9915  0.5161  0.7715
 4688TIP3   OH235478   6.761   0.536  15.015  0.3984 -0.1470  0.0464
 4688TIP3    H135479   6.828   0.498  14.959  0.9840 -1.5532  1.6280
 4688TIP3    H235480   6.758   0.629  14.990  3.1390  0.0200  0.1174
 4689TIP3   OH235481   5.230   2.764   2.234  0.2124 -0.2444 -0.2398
 4689TIP3    H135482   5.206   2.673   2.253 -0.2961  0.3253  2.2447
 4689TIP3    H235483   5.282   2.791   2.309  0.3778  1.5202 -0.9508
 4690TIP3   OH235484   6.332   3.279   5.683 -0.4590  0.7815  0.0043
 4690TIP3    H135485   6.240   3.275   5.706 -0.3817  1.7454  0.5705
 4690TIP3    H235486   6.354   3.373   5.688  0.7649  0.4826  0.8218
 4691TIP3   OH235487   6.405   6.121   3.468  0.0390 -0.2535 -0.0413
 4691TIP3    H135488   6.469   6.106   3.398  1.2105 -2.5667  1.3935
 4691TIP3    H235489   6.323   6.141   3.422  0.7908 -1.5277 -2.0890
 4692TIP3   OH235490   4.985   5.374  14.846  0.8207 -0.2999 -0.6034
 4692TIP3    H135491   4.929   5.320  14.901 -0.4259  0.6606 -0.8896
 4692TIP3    H235492   5.021   5.440  14.906  1.8145 -1.0137 -0.3861
 4693TIP3   OH235493   5.452   2.336  14.097  0.3629 -0.1294 -0.3569
 4693TIP3    H135494   5.383   2.270  14.104 -0.2329  0.5197  0.0898
 4693TIP3    H235495   5.443   2.388  14.177  1.1679  0.1654 -0.4457
 4694TIP3   OH235496   0.023   3.654  16.683  1.0028 -0.3141  0.1302
 4694TIP3    H135497   0.082   3.601  16.629  3.1562  0.7551  1.2843
 4694TIP3    H235498   0.032   3.743  16.647  0.4744 -0.0438  0.6529
 4695TIP3   OH235499   2.119   5.439  13.493  0.3232  0.4815  0.6556
 4695TIP3    H135500   2.067   5.360  13.509  0.5366  0.0672 -0.5401
 4695TIP3    H235501   2.156   5.462  13.578  0.1012 -0.6044  1.0565
 4696TIP3   OH235502   4.483   3.675  16.545 -0.0396  0.3850  0.2834
 4696TIP3    H135503   4.476   3.638  16.633  1.0820  1.1924  0.7346
 4696TIP3    H235504   4.564   3.638  16.509 -0.2467  0.4205 -0.2381
 4697TIP3   OH235505   5.525   1.308   2.679 -0.2985  0.0868 -0.1176
 4697TIP3    H135506   5.562   1.289   2.765 -0.4825 -0.9216 -0.2491
 4697TIP3    H235507   5.447   1.253   2.674 -1.7322  2.0030  0.0737
 4698TIP3   OH235508   2.019   5.673   0.179  0.0504  0.2765  0.2293
 4698TIP3    H135509   2.103   5.706   0.213  1.2198 -1.9108 -0.3050
 4698TIP3    H235510   1.968   5.653   0.258  1.6911 -2.1947  0.8033
 4699TIP3   OH235511   5.929   3.502  11.924 -0.0793  0.4453  0.1662
 4699TIP3    H135512   5.869   3.544  11.862  0.6293  1.0700 -0.1071
 4699TIP3    H235513   5.952   3.572  11.986 -0.6601 -0.1307  1.0610
 4700TIP3   OH235514   2.830   3.783  11.982  1.2529  0.6685 -0.3767
 4700TIP3    H135515   2.809   3.855  12.040  0.2869  0.3887 -0.3525
 4700TIP3    H235516   2.914   3.806  11.943  0.2747  2.5727 -1.5597
 4701TIP3   OH235517   6.472   3.836   6.297  0.9437  1.0174  0.1743
 4701TIP3    H135518   6.423   3.892   6.237  0.7765  1.4896  0.7431
 4701TIP3    H235519   6.558   3.877   6.303  0.6016  1.6369  1.1403
 4702TIP3   OH235520   4.902   1.819   5.346 -0.0509 -0.0761  0.8562
 4702TIP3    H135521   4.973   1.821   5.282 -0.3063 -0.2769  0.5585
 4702TIP3    H235522   4.927   1.883   5.412  1.0762 -1.1164  1.4788
 4703TIP3   OH235523   1.177   6.613  11.581 -0.2468 -0.4431 -0.5043
 4703TIP3    H135524   1.151   6.641  11.493 -0.7312 -2.1385 -0.9309
 4703TIP3    H235525   1.108   6.645  11.638 -0.3407 -0.0336 -0.8374
 4704TIP3   OH235526   1.227   3.828  14.554 -0.0751  0.0779  0.2333
 4704TIP3    H135527   1.218   3.905  14.610 -1.5907  1.1623 -1.3820
 4704TIP3    H235528   1.309   3.787  14.582 -0.6983  0.6056  3.1111
 4705TIP3   OH235529   1.362   3.107   5.420 -0.3177  0.0709  0.1632
 4705TIP3    H135530   1.309   3.064   5.487 -0.9188 -0.9763 -0.9410
 4705TIP3    H235531   1.448   3.119   5.461 -0.5617 -0.8902  1.0030
 4706TIP3   OH235532   1.448   4.941   3.972 -0.1056 -0.1702 -0.2427
 4706TIP3    H135533   1.453   5.007   3.903 -0.5948  0.8916  0.7144
 4706TIP3    H235534   1.484   4.862   3.932  2.1779  1.1042 -0.8690
 4707TIP3   OH235535   1.986   6.366  14.453 -0.6172  0.3388  0.8963
 4707TIP3    H135536   1.914   6.313  14.420  0.4142 -0.5855  0.0788
 4707TIP3    H235537   1.993   6.343  14.546 -0.7764 -0.2429  0.7634
 4708TIP3   OH235538   2.506   5.631   0.655 -0.1303 -0.6365 -0.5627
 4708TIP3    H135539   2.581   5.574   0.667  0.3364 -0.2661 -1.5821
 4708TIP3    H235540   2.541   5.719   0.666 -0.3674 -0.4521 -1.2652
 4709TIP3   OH235541   6.676   4.268   3.193 -0.4535  0.1359  0.6327
 4709TIP3    H135542   6.586   4.280   3.165 -0.7292 -0.2986  1.3112
 4709TIP3    H235543   6.692   4.174   3.183  0.2499  0.3448 -0.4171
 4710TIP3   OH235544   5.653   0.413   5.325  0.0385 -0.1771  0.0772
 4710TIP3    H135545   5.656   0.368   5.409  0.1283  1.2297  0.8582
 4710TIP3    H235546   5.639   0.343   5.261  2.5022 -1.6170  0.9606
 4711TIP3   OH235547   4.945   4.311  15.469  0.0432 -0.2383 -0.1818
 4711TIP3    H135548   5.023   4.282  15.421  0.2152 -0.3286  0.1443
 4711TIP3    H235549   4.949   4.262  15.552  2.0631  2.9025  1.7947
 4712TIP3   OH235550   2.481   1.257  16.731 -0.3809 -0.5297 -0.4936
 4712TIP3    H135551   2.392   1.284  16.752 -0.0661 -0.3824  0.7245
 4712TIP3    H235552   2.534   1.336  16.748  0.3678 -1.4314  1.7533
 4713TIP3   OH235553   5.888   5.303   2.866 -0.4791  0.6060 -0.4388
 4713TIP3    H135554   5.891   5.231   2.804 -1.9674  0.2158 -0.0891
 4713TIP3    H235555   5.848   5.376   2.818 -3.2234 -0.1932  0.4537
 4714TIP3   OH235556   3.539   3.816   4.640  0.0512  0.1994 -0.6898
 4714TIP3    H135557   3.492   3.742   4.602 -0.9260  0.9407 -0.9475
 4714TIP3    H235558   3.486   3.842   4.715  0.6179  0.3765 -0.3447
 4715TIP3   OH235559   1.834   2.406   3.264 -0.2869 -0.2095 -0.0657
 4715TIP3    H135560   1.793   2.363   3.339  0.0864 -0.2873  0.0959
 4715TIP3    H235561   1.907   2.349   3.241  0.5668  0.6232  0.5160
 4716TIP3   OH235562   5.418   1.462  15.472  0.3539  0.1022  0.5168
 4716TIP3    H135563   5.361   1.438  15.546 -1.4702 -1.5470 -1.2962
 4716TIP3    H235564   5.370   1.532  15.427  0.0270 -0.8479 -0.6591
 4717TIP3   OH235565   6.284   2.541  15.965 -0.1802  0.1593 -0.1953
 4717TIP3    H135566   6.367   2.578  15.994 -0.5221  1.5295 -0.8593
 4717TIP3    H235567   6.307   2.454  15.932  0.7852  0.0489  0.7243
 4718TIP3   OH235568   0.061   5.579   3.124 -0.3361 -0.2680 -0.1325
 4718TIP3    H135569   0.119   5.598   3.051  0.5395  0.2960  0.6925
 4718TIP3    H235570  -0.014   5.535   3.084  0.3596 -0.4323 -1.2929
 4719TIP3   OH235571   0.677   2.734   6.174 -0.1367  0.4663  0.2453
 4719TIP3    H135572   0.751   2.691   6.133 -0.9742 -0.0640 -0.7403
 4719TIP3    H235573   0.716   2.789   6.242  1.0139 -1.2639  1.0515
 4720TIP3   OH235574   5.321   3.252  10.642 -0.0561  0.1751  0.2146
 4720TIP3    H135575   5.278   3.183  10.692  1.4563 -0.3733  0.8096
 4720TIP3    H235576   5.406   3.264  10.684  1.0306  0.1409 -1.8079
 4721TIP3   OH235577   2.834   4.481  14.205 -0.1620  0.2588  0.4575
 4721TIP3    H135578   2.770   4.409  14.210 -0.6998  0.5442 -1.5397
 4721TIP3    H235579   2.781   4.560  14.203  0.1848  0.4897 -1.5277
 4722TIP3   OH235580   0.876   4.323   5.877 -0.3122 -0.2881 -0.1089
 4722TIP3    H135581   0.946   4.377   5.914  0.9644 -1.9509  0.0596
 4722TIP3    H235582   0.897   4.234   5.907 -0.3523 -1.4353 -3.1434
 4723TIP3   OH235583   6.691   0.612   0.499 -0.0975  0.1779 -0.0380
 4723TIP3    H135584   6.684   0.519   0.478 -1.9987  0.5387 -1.2541
 4723TIP3    H235585   6.727   0.614   0.587 -2.1498 -1.8144  0.9450
 4724TIP3   OH235586   0.314   2.383  15.289 -0.2809  0.2742 -0.1598
 4724TIP3    H135587   0.382   2.363  15.225  1.7631  2.8493  1.0517
 4724TIP3    H235588   0.309   2.478  15.291 -3.5727  0.2217  0.2706
 4725TIP3   OH235589   4.120   2.022   5.606 -0.6208  0.2058  1.5499
 4725TIP3    H135590   4.070   1.957   5.655 -0.4114  0.1579  1.7048
 4725TIP3    H235591   4.192   2.045   5.665  0.2334 -0.6112  0.8675
 4726TIP3   OH235592   2.550   1.798  15.780  0.2734 -0.3305 -0.2422
 4726TIP3    H135593   2.575   1.816  15.690 -1.1685 -0.6484 -0.7384
 4726TIP3    H235594   2.463   1.837  15.789 -0.3945 -1.8532  0.4252
 4727TIP3   OH235595   5.256   0.001  12.865  0.2701  0.1237 -0.3832
 4727TIP3    H135596   5.240  -0.084  12.823  1.5082  0.0621 -0.7877
 4727TIP3    H235597   5.216  -0.006  12.951  0.6415 -1.0106 -0.2883
 4728TIP3   OH235598   0.412   1.646  14.645  0.1611  0.0754 -0.2647
 4728TIP3    H135599   0.391   1.649  14.738  1.9576  0.7617  0.1624
 4728TIP3    H235600   0.469   1.722  14.631  0.0761 -0.1257 -1.8848
 4729TIP3   OH235601   1.758   0.038   4.277  0.5556  0.0353 -0.1239
 4729TIP3    H135602   1.686   0.009   4.334  0.1139 -1.9650 -1.5910
 4729TIP3    H235603   1.739   0.131   4.260 -1.5854 -0.3747 -0.2902
 4730TIP3   OH235604   3.925   6.087  13.940  0.0322 -0.2142 -0.6297
 4730TIP3    H135605   3.899   6.098  14.031 -0.5363 -0.2810 -0.7841
 4730TIP3    H235606   4.012   6.127  13.935  1.7825 -3.4932  0.7946
 4731TIP3   OH235607   3.180   3.316   0.291  0.2961 -0.2480 -0.4907
 4731TIP3    H135608   3.223   3.333   0.375 -1.3387 -2.1889  0.8367
 4731TIP3    H235609   3.112   3.383   0.285  1.8028  1.2925 -1.4236
 4732TIP3   OH235610   0.451   6.363  11.486 -0.4735 -0.8706 -0.4109
 4732TIP3    H135611   0.414   6.340  11.401 -3.0248 -1.0252  0.6597
 4732TIP3    H235612   0.460   6.279  11.532 -0.2912 -0.6667 -0.0700
 4733TIP3   OH235613   3.453   5.137   3.908 -0.2671 -0.4215  0.1929
 4733TIP3    H135614   3.413   5.124   3.994  0.1596 -0.7604  0.3458
 4733TIP3    H235615   3.429   5.226   3.883 -0.3831 -0.3175  0.6688
 4734TIP3   OH235616   6.092   0.413   1.718 -0.0618 -0.1511  0.1637
 4734TIP3    H135617   6.175   0.437   1.760 -1.5554 -0.1668  3.4119
 4734TIP3    H235618   6.093   0.459   1.635  3.3855 -0.5336 -0.1516
 4735TIP3   OH235619   0.211   2.257  10.566 -0.7466 -0.2944  0.3350
 4735TIP3    H135620   0.186   2.216  10.484 -2.5052 -2.0003  1.6431
 4735TIP3    H235621   0.297   2.219  10.586 -0.7061 -0.5359 -0.2728
 4736TIP3   OH235622   4.916   6.605  12.866  0.4064 -0.1102 -0.1990
 4736TIP3    H135623   5.003   6.584  12.831  0.8213 -0.6750  1.1026
 4736TIP3    H235624   4.861   6.617  12.788  1.5052 -0.3466 -1.0384
 4737TIP3   OH235625   4.647   2.762   1.893 -0.2089  0.0044 -0.1276
 4737TIP3    H135626   4.579   2.770   1.960  0.5165 -1.4176  0.8357
 4737TIP3    H235627   4.705   2.836   1.908 -0.2103 -0.1440  0.6280
 4738TIP3   OH235628   5.096   6.425   0.744 -0.2773 -0.7997 -0.1023
 4738TIP3    H135629   5.109   6.333   0.721  0.4944  0.1695 -4.3874
 4738TIP3    H235630   5.181   6.455   0.776 -0.2709 -1.2795  0.3572
 4739TIP3   OH235631   3.037   5.740  16.213  0.0971 -0.3484 -0.2798
 4739TIP3    H135632   3.021   5.662  16.265  0.1659  0.5544  1.1711
 4739TIP3    H235633   3.054   5.708  16.124  2.1670 -2.1288  0.6622
 4740TIP3   OH235634   2.758   4.628   4.626 -0.2220 -0.3122 -0.2420
 4740TIP3    H135635   2.813   4.553   4.607 -1.7856 -1.7219  0.5787
 4740TIP3    H235636   2.706   4.603   4.702 -0.3204  1.8645  0.4855
 4741TIP3   OH235637   0.097   3.062   0.762  0.1473  0.5553 -0.8575
 4741TIP3    H135638   0.192   3.063   0.763  0.1591  2.0882 -0.4538
 4741TIP3    H235639   0.074   2.972   0.738  1.6582 -0.6384  1.7878
 4742TIP3   OH235640   3.508   4.247  10.331 -0.2138  0.9956 -0.9485
 4742TIP3    H135641   3.555   4.165  10.312  1.5616  1.8100 -0.2894
 4742TIP3    H235642   3.441   4.252  10.263 -0.5949 -1.1486 -0.8271
 4743TIP3   OH235643   0.692   3.837  12.736 -0.5475  0.2729 -0.1446
 4743TIP3    H135644   0.726   3.877  12.656  0.7664 -0.3906  0.0631
 4743TIP3    H235645   0.718   3.897  12.806  1.4393 -0.8614  0.1694
 4744TIP3   OH235646   1.235   3.233   3.507  0.5243  0.4859  0.2436
 4744TIP3    H135647   1.212   3.210   3.417  0.3406  0.3415  0.3277
 4744TIP3    H235648   1.255   3.326   3.503  1.2319  0.3257 -0.0889
 4745TIP3   OH235649   2.517   4.141  14.861 -0.3338  0.0642  0.2434
 4745TIP3    H135650   2.519   4.047  14.880  1.0058 -0.0862 -0.4992
 4745TIP3    H235651   2.579   4.152  14.789 -0.1179  1.5790  0.6268
 4746TIP3   OH235652   1.168   2.326  12.883 -0.5376  0.1572 -0.1194
 4746TIP3    H135653   1.128   2.296  12.964  1.1593  2.9356  1.9312
 4746TIP3    H235654   1.262   2.325  12.900 -0.1505  1.2428 -1.8733
 4747TIP3   OH235655   5.611   4.700   2.504 -0.6363  0.0819  0.3640
 4747TIP3    H135656   5.577   4.784   2.473 -1.2388 -0.6949 -1.1838
 4747TIP3    H235657   5.558   4.681   2.582 -2.6317 -0.2446 -0.9784
 4748TIP3   OH235658   0.610   3.276  15.790  0.5618 -0.6305  0.2407
 4748TIP3    H135659   0.576   3.315  15.709  1.8612  0.1118  0.0198
 4748TIP3    H235660   0.554   3.310  15.859  0.1930 -0.2876 -0.2217
 4749TIP3   OH235661   4.550   6.541  14.239 -0.5165  0.1313 -0.1808
 4749TIP3    H135662   4.464   6.582  14.231  0.0273  0.9793 -2.2994
 4749TIP3    H235663   4.612   6.614  14.236  0.3570 -0.6101 -0.6899
 4750TIP3   OH235664   1.041   0.350  13.910 -0.1153 -1.0920  0.3670
 4750TIP3    H135665   1.101   0.301  13.854  3.6519  1.0982  2.1485
 4750TIP3    H235666   1.028   0.434  13.865  2.1054  0.2708  2.0954
 4751TIP3   OH235667   2.365   4.619   3.500 -0.1936  0.2599  0.3236
 4751TIP3    H135668   2.364   4.524   3.495 -0.4426  0.0300  3.0375
 4751TIP3    H235669   2.341   4.649   3.412 -0.3051 -2.1561 -0.5235
 4752TIP3   OH235670   6.175   3.283  11.181 -0.3477 -0.1058 -0.5747
 4752TIP3    H135671   6.146   3.217  11.245 -1.3976 -0.6660 -1.6020
 4752TIP3    H235672   6.115   3.357  11.193  2.1663  1.7456  2.1474
 4753TIP3   OH235673   2.672   0.381  11.127  0.3883  0.6387  0.1445
 4753TIP3    H135674   2.578   0.372  11.111  0.6991 -0.0596 -1.5929
 4753TIP3    H235675   2.705   0.291  11.124  1.1003  0.8684  0.8550
 4754TIP3   OH235676   4.670   4.238   6.431 -0.3302 -0.1184  0.5490
 4754TIP3    H135677   4.690   4.144   6.432  1.7987  0.1964 -1.7109
 4754TIP3    H235678   4.754   4.280   6.449 -0.3819  1.3393 -2.1484
 4755TIP3   OH235679   2.725   3.699  12.238 -0.2520  0.0900  0.2946
 4755TIP3    H135680   2.647   3.647  12.253  0.5464 -0.5535  2.6408
 4755TIP3    H235681   2.757   3.671  12.152 -1.3383 -1.2875  0.3154
 4756TIP3   OH235682   4.345   3.773  13.439 -0.8792  0.2705  0.4710
 4756TIP3    H135683   4.253   3.782  13.467 -0.6670 -0.2101  1.3766
 4756TIP3    H235684   4.357   3.842  13.374 -1.6908  0.8160  0.8718
 4757TIP3   OH235685   5.578   4.121   1.359  0.2726 -0.1243 -0.3041
 4757TIP3    H135686   5.559   4.141   1.267 -0.5371  0.7237  0.0343
 4757TIP3    H235687   5.492   4.124   1.402  0.6159 -0.7415  0.4434
 4758TIP3   OH235688   2.987   3.310   1.469 -0.0955  0.1945  0.1024
 4758TIP3    H135689   3.078   3.303   1.499  0.1175  0.7204 -0.3859
 4758TIP3    H235690   2.995   3.338   1.377 -0.7454 -0.3151 -0.1148
 4759TIP3   OH235691   3.571   1.143   5.043  0.0579 -0.1040  0.2149
 4759TIP3    H135692   3.586   1.156   5.137  3.3320 -0.1082 -0.1951
 4759TIP3    H235693   3.558   1.231   5.008 -1.0212 -0.0902  0.6045
 4760TIP3   OH235694   0.199   4.250   4.090  0.3217 -0.1937  0.1406
 4760TIP3    H135695   0.249   4.316   4.043 -2.1871  2.1547  0.5365
 4760TIP3    H235696   0.108   4.281   4.087 -0.6154 -2.3261  2.5333
 4761TIP3   OH235697   0.522   3.954  11.455  0.7304  0.5538 -0.1382
 4761TIP3    H135698   0.572   3.877  11.481 -2.5263 -1.5994  0.2980
 4761TIP3    H235699   0.494   3.993  11.538 -0.4825  0.1742 -0.3628
 4762TIP3   OH235700   2.150   0.104  14.151  0.8249  0.6053 -0.2137
 4762TIP3    H135701   2.077   0.069  14.100  0.8469  1.6487 -0.9922
 4762TIP3    H235702   2.206   0.148  14.087  0.4945  2.5632  0.7600
 4763TIP3   OH235703   0.137   4.392  16.095 -0.1677 -0.4589  0.3701
 4763TIP3    H135704   0.159   4.380  16.003  1.8259 -0.2257  0.7739
 4763TIP3    H235705   0.103   4.481  16.101  1.1166  0.0670  0.0799
 4764TIP3   OH235706   4.491   6.247   5.741 -0.2498 -0.0682 -0.1239
 4764TIP3    H135707   4.416   6.190   5.759  1.4097 -2.9368 -1.6158
 4764TIP3    H235708   4.465   6.296   5.663 -0.9844 -0.1676  0.0462
 4765TIP3   OH235709   6.002   4.873  14.093  0.3751  0.4396 -0.0903
 4765TIP3    H135710   6.066   4.893  14.025 -0.5312  0.6469 -0.9139
 4765TIP3    H235711   6.054   4.843  14.167  1.3658 -0.3060 -1.0498
 4766TIP3   OH235712   1.557   4.364   0.899 -0.0231 -0.1195  1.2240
 4766TIP3    H135713   1.556   4.426   0.971 -2.1945  0.7472  0.5298
 4766TIP3    H235714   1.630   4.305   0.919  0.6011  1.2074  3.1261
 4767TIP3   OH235715   1.827   2.398   1.065 -0.3624 -0.0191  0.3016
 4767TIP3    H135716   1.847   2.482   1.024 -0.3017  0.2690  0.9062
 4767TIP3    H235717   1.908   2.348   1.057 -0.8278 -0.5704 -1.3353
 4768TIP3   OH235718   4.993   3.626   5.571  0.6402  0.0649  0.1593
 4768TIP3    H135719   5.025   3.669   5.492 -0.2485  2.1866  0.8859
 4768TIP3    H235720   5.063   3.639   5.636 -0.2694  1.9099  0.8339
 4769TIP3   OH235721   0.606   3.682  12.239 -0.0905  0.0892  0.2933
 4769TIP3    H135722   0.664   3.753  12.266  0.2134 -0.8087  2.1395
 4769TIP3    H235723   0.520   3.722  12.235  0.4314  1.1503 -1.2824
 4770TIP3   OH235724   0.271   2.440  11.236 -0.7156  1.3991 -0.1783
 4770TIP3    H135725   0.334   2.410  11.171  1.5652  1.8704  1.6377
 4770TIP3    H235726   0.203   2.373  11.237 -0.9773  1.5014 -3.1194
 4771TIP3   OH235727   4.820   0.193   4.540 -0.1963 -0.1177  0.6592
 4771TIP3    H135728   4.899   0.193   4.486 -1.4362 -3.1079 -1.4601
 4771TIP3    H235729   4.843   0.246   4.616  3.6025 -0.3342 -0.1225
 4772TIP3   OH235730   6.197   0.346   1.030  0.5300 -0.1192  0.0789
 4772TIP3    H135731   6.217   0.284   1.100  1.1621 -1.8263 -1.5380
 4772TIP3    H235732   6.130   0.403   1.067  0.0467 -1.6550  1.6979
 4773TIP3   OH235733   1.978   2.557  13.891 -0.5624 -0.1622  0.1586
 4773TIP3    H135734   2.006   2.624  13.829  0.0057 -1.0652 -0.5849
 4773TIP3    H235735   2.035   2.568  13.966  0.2480 -0.4864 -0.3964
 4774TIP3   OH235736   5.713   2.178   0.840 -0.5240  0.5279 -0.3523
 4774TIP3    H135737   5.688   2.120   0.767 -0.2686 -0.0777  0.0340
 4774TIP3    H235738   5.668   2.142   0.916  0.7664 -0.0359  0.1749
 4775TIP3   OH235739   1.755   2.625  13.236  0.2825 -0.9534 -0.3980
 4775TIP3    H135740   1.717   2.614  13.149 -0.7758  1.6013 -0.3327
 4775TIP3    H235741   1.681   2.621  13.296  0.5133  0.7200  0.0442
 4776TIP3   OH235742   3.955   1.006   2.461  0.4092 -0.2382  0.2797
 4776TIP3    H135743   3.917   0.942   2.401 -0.5763  0.5656  0.0146
 4776TIP3    H235744   3.894   1.080   2.459  1.6104  0.8042  0.4211
 4777TIP3   OH235745   2.618   5.848   5.532 -0.4730 -0.5066 -0.3844
 4777TIP3    H135746   2.622   5.753   5.527  0.6814 -0.4252 -2.3029
 4777TIP3    H235747   2.531   5.871   5.501 -2.1561 -0.9683  3.4245
 4778TIP3   OH235748   1.126   5.512  11.744  0.9067  0.2466  0.0780
 4778TIP3    H135749   1.208   5.465  11.753  0.5459 -0.2378  0.9197
 4778TIP3    H235750   1.060   5.443  11.732  0.8332  0.6817 -2.5015
 4779TIP3   OH235751   5.324   6.123  14.050 -0.1833  0.0167  0.1795
 4779TIP3    H135752   5.406   6.106  14.003 -1.0143 -0.1520 -1.2463
 4779TIP3    H235753   5.351   6.133  14.141  1.7181  1.9871 -0.4973
 4780TIP3   OH235754   0.934   2.703  15.047 -0.0219  0.0779 -0.2398
 4780TIP3    H135755   0.841   2.685  15.062 -0.0640  0.7605  0.3455
 4780TIP3    H235756   0.956   2.650  14.970 -0.9522  0.1011 -0.5363
 4781TIP3   OH235757   3.493   2.536   0.418 -0.5815  0.0759 -0.5507
 4781TIP3    H135758   3.472   2.443   0.426 -1.8048  0.5008  2.3050
 4781TIP3    H235759   3.431   2.570   0.354  0.3932 -1.1359 -2.2383
 4782TIP3   OH235760   2.988   3.748  12.886  0.6063 -0.0126 -0.2133
 4782TIP3    H135761   3.051   3.750  12.813  0.9284 -0.7279  0.0369
 4782TIP3    H235762   2.918   3.808  12.859  0.1865 -1.0821 -1.5983
 4783TIP3   OH235763   4.529   6.053  16.252  0.9170  0.9992 -0.0262
 4783TIP3    H135764   4.458   6.064  16.314  0.0229  1.2708 -1.0634
 4783TIP3    H235765   4.502   6.102  16.175  0.8227 -1.2968 -1.5658
 4784TIP3   OH235766   3.789   5.884   5.357  0.3227  0.1595 -0.0788
 4784TIP3    H135767   3.759   5.824   5.289 -0.3347 -0.0242  0.3648
 4784TIP3    H235768   3.784   5.833   5.438 -0.5082  0.8836  0.3395
 4785TIP3   OH235769   6.017   0.266  12.414 -0.2208  0.3032  0.6522
 4785TIP3    H135770   5.980   0.347  12.378  1.7913  0.5092 -1.2019
 4785TIP3    H235771   6.015   0.279  12.508  0.1284  2.6221  0.4120
 4786TIP3   OH235772   4.455   1.713  11.208 -0.7993 -0.4697 -0.3978
 4786TIP3    H135773   4.361   1.697  11.216 -1.2047  1.5968 -0.5924
 4786TIP3    H235774   4.479   1.759  11.288  0.4775 -2.5562  0.5060
 4787TIP3   OH235775   2.765   0.161  12.843 -0.2466  0.2415 -0.6708
 4787TIP3    H135776   2.821   0.084  12.857  1.0425  1.1398 -0.7245
 4787TIP3    H235777   2.702   0.133  12.777  0.7177 -0.5198 -1.2858
 4788TIP3   OH235778   2.672   0.635  15.140 -0.5336  0.1563  0.3368
 4788TIP3    H135779   2.699   0.603  15.054  0.0942  0.7007  0.3217
 4788TIP3    H235780   2.709   0.572  15.202 -1.9734 -0.8933  0.1701
 4789TIP3   OH235781   3.362   0.711   4.327  0.0634  0.8154  0.0623
 4789TIP3    H135782   3.434   0.653   4.299  2.8237  3.9635  0.0089
 4789TIP3    H235783   3.397   0.755   4.404 -2.7626  0.9528  1.3546
 4790TIP3   OH235784   6.400   4.950  16.766  0.1834 -0.1748  0.8141
 4790TIP3    H135785   6.445   4.976  16.845  0.1946  1.5908  0.2715
 4790TIP3    H235786   6.457   4.885  16.725  0.7344 -0.2181  1.6367
 4791TIP3   OH235787   0.274   4.746  15.653 -0.3071  0.3366  0.3359
 4791TIP3    H135788   0.228   4.699  15.722  0.1216 -0.3832  0.1372
 4791TIP3    H235789   0.217   4.741  15.577  0.6005 -1.6391 -0.2823
 4792TIP3   OH235790   2.621   0.496   2.908 -0.1179  0.1025 -0.4568
 4792TIP3    H135791   2.668   0.486   2.826 -0.5993 -1.3355 -0.5923
 4792TIP3    H235792   2.541   0.444   2.896  0.0072 -0.4930  1.0626
 4793TIP3   OH235793   1.282   6.520  10.699 -0.1255  0.9992 -0.1791
 4793TIP3    H135794   1.312   6.546  10.786 -0.4210 -1.7619  0.8756
 4793TIP3    H235795   1.191   6.551  10.695 -0.2704  0.7407  0.7393
 4794TIP3   OH235796   5.739   1.826   5.218  0.1496  0.0872  0.4244
 4794TIP3    H135797   5.792   1.877   5.156 -0.4078 -0.9792 -0.9707
 4794TIP3    H235798   5.656   1.873   5.223  0.5238  0.6984  1.1274
 4795TIP3   OH235799   1.689   3.910  16.709 -0.2225  0.1154 -0.2852
 4795TIP3    H135800   1.624   3.941  16.646  0.0006  0.1477 -0.4983
 4795TIP3    H235801   1.740   3.987  16.732 -0.3759  0.1255  0.0206
 4796TIP3   OH235802   0.068   1.127   1.436  0.0313 -0.3046  0.3260
 4796TIP3    H135803   0.036   1.067   1.369 -1.9381  1.2268 -0.2017
 4796TIP3    H235804   0.001   1.194   1.442  2.5573  2.4423  0.1624
 4797TIP3   OH235805   2.176   1.837   3.419  0.8472  0.0515  0.4678
 4797TIP3    H135806   2.222   1.834   3.335  0.5478 -1.3356  0.3303
 4797TIP3    H235807   2.246   1.836   3.484  1.1033  1.7150  0.2595
 4798TIP3   OH235808   2.784   3.145  13.628 -0.0415 -0.0337 -0.4919
 4798TIP3    H135809   2.728   3.161  13.552 -0.6932  0.4872  0.0925
 4798TIP3    H235810   2.809   3.232  13.658  1.0681 -0.2601 -0.7211
 4799TIP3   OH235811   3.553   5.073  13.198  0.4663  0.4021 -0.3460
 4799TIP3    H135812   3.519   5.033  13.118  1.8004 -0.0992 -0.6916
 4799TIP3    H235813   3.615   5.139  13.167  0.2924  0.8618  0.2720
 4800TIP3   OH235814   4.227   6.649   3.765  0.4590  0.6548 -0.1042
 4800TIP3    H135815   4.224   6.678   3.856  0.0528  0.3495 -0.0158
 4800TIP3    H235816   4.181   6.717   3.716 -2.6117 -0.8705  0.4006
 4801TIP3   OH235817   5.981   3.959  16.514 -0.0766  0.0144 -0.0348
 4801TIP3    H135818   5.920   3.910  16.570  0.6503 -0.1949  0.5868
 4801TIP3    H235819   5.991   4.043  16.559 -1.5504  0.8920 -1.2501
 4802TIP3   OH235820   3.376   0.509   4.629 -0.1711 -0.1008 -0.3206
 4802TIP3    H135821   3.305   0.545   4.575 -0.6350  0.6833  0.7616
 4802TIP3    H235822   3.394   0.578   4.693  0.1804 -1.0911  0.6809
 4803TIP3   OH235823   6.339   0.840   2.924  0.0660  0.0302  0.1489
 4803TIP3    H135824   6.284   0.825   2.847  0.9591 -0.1398 -0.4712
 4803TIP3    H235825   6.309   0.775   2.988 -0.7376  0.2260 -0.0092
 4804TIP3   OH235826   5.019   0.921  15.786 -0.4164 -0.1071  0.2541
 4804TIP3    H135827   5.050   0.876  15.864 -0.5796 -1.2150 -0.2961
 4804TIP3    H235828   4.924   0.914  15.791 -0.4115 -0.7564 -0.3488
 4805TIP3   OH235829   1.903   2.476   2.031 -0.0748 -0.0842 -0.1869
 4805TIP3    H135830   1.977   2.537   2.022 -0.7766  0.6991 -0.8635
 4805TIP3    H235831   1.904   2.451   2.123  1.5928 -0.8231 -0.3789
 4806TIP3   OH235832   3.407   3.503  12.573  0.0962 -0.2972  0.3707
 4806TIP3    H135833   3.381   3.502  12.665 -0.7101  1.2394  0.1875
 4806TIP3    H235834   3.325   3.496  12.525  0.2448  1.5583 -0.2131
 4807TIP3   OH235835   5.359   0.668   4.982 -0.1193  0.1009 -0.5944
 4807TIP3    H135836   5.319   0.749   4.952 -0.2712 -0.3884 -1.7469
 4807TIP3    H235837   5.292   0.601   4.968  0.2702 -0.3524 -0.3539
 4808TIP3   OH235838   5.283   0.890  16.998  0.2642  0.6112 -0.0679
 4808TIP3    H135839   5.297   0.976  17.037 -0.1047  0.5179  0.2678
 4808TIP3    H235840   5.249   0.909  16.910 -2.8944  0.8194  1.1072
 4809TIP3   OH235841   5.790   4.498   0.399 -0.6403  0.0385 -0.2789
 4809TIP3    H135842   5.796   4.589   0.371  3.2128  0.5571  1.5736
 4809TIP3    H235843   5.773   4.502   0.493 -1.7176 -1.2446 -0.3847
 4810TIP3   OH235844   1.396   0.123  13.970  0.0868 -0.3404 -0.3355
 4810TIP3    H135845   1.373   0.193  13.908  0.4731 -0.0506 -0.1607
 4810TIP3    H235846   1.405   0.168  14.054  0.5323 -0.5653 -0.2599
 4811TIP3   OH235847   1.004   1.429   0.975 -0.4634 -0.0315 -0.3116
 4811TIP3    H135848   1.011   1.489   0.901  0.2114 -1.4578 -1.4663
 4811TIP3    H235849   0.912   1.430   0.999 -0.7508  0.2059 -1.3870
 4812TIP3   OH235850   0.255   4.989   2.310 -0.0323 -0.2181  0.1711
 4812TIP3    H135851   0.246   4.900   2.344 -0.0324  0.1798  1.2223
 4812TIP3    H235852   0.255   5.045   2.387 -0.6202  0.7530 -0.5133
 4813TIP3   OH235853   0.811   2.735  12.552  0.4050 -0.6063  0.1031
 4813TIP3    H135854   0.793   2.786  12.473  1.1426 -2.0404 -1.0372
 4813TIP3    H235855   0.897   2.696  12.537  0.6590 -0.7586  1.7151
 4814TIP3   OH235856   1.441   0.254   1.681  0.0499 -0.1028  0.0588
 4814TIP3    H135857   1.424   0.190   1.750 -0.9685  0.4160  0.3036
 4814TIP3    H235858   1.466   0.334   1.728  0.0493  0.0502 -0.1970
 4815TIP3   OH235859   4.687   1.947  16.829  0.4709 -0.0942  0.3182
 4815TIP3    H135860   4.616   1.935  16.891 -0.3725 -1.7368 -0.8755
 4815TIP3    H235861   4.645   1.985  16.752  0.6595 -1.8591 -0.7140
 4816TIP3   OH235862   2.459   4.353  16.815 -0.1097  0.4603 -0.7072
 4816TIP3    H135863   2.535   4.333  16.869 -1.0644 -0.3419  0.3781
 4816TIP3    H235864   2.469   4.446  16.793  0.0489  0.9718  1.3182
 4817TIP3   OH235865   2.911   2.530   2.322 -0.0144 -0.4645  0.2107
 4817TIP3    H135866   3.002   2.512   2.344  0.4161 -0.2173 -1.2449
 4817TIP3    H235867   2.887   2.605   2.378  0.3232 -1.1835  1.3514
 4818TIP3   OH235868   3.767   1.444   5.324  0.0128  0.4003 -0.3493
 4818TIP3    H135869   3.855   1.452   5.289  1.3587 -1.3227  2.2923
 4818TIP3    H235870   3.762   1.512   5.391  0.2359 -0.9038  1.0486
 4819TIP3   OH235871   1.610   1.430  13.617  0.3380  0.2797 -0.0156
 4819TIP3    H135872   1.612   1.366  13.546 -0.4919  0.7782 -0.5010
 4819TIP3    H235873   1.632   1.513  13.575  0.7002  0.4380  0.4771
 4820TIP3   OH235874   1.813   4.734  14.753  0.1549 -0.0956 -0.0381
 4820TIP3    H135875   1.878   4.800  14.780  0.0522  0.4564 -1.0747
 4820TIP3    H235876   1.731   4.782  14.749  0.1259 -0.2124 -1.0636
 4821TIP3   OH235877   2.335   4.829   3.287  0.4194  0.3487 -0.3478
 4821TIP3    H135878   2.422   4.859   3.314  0.3733 -0.8360  1.3009
 4821TIP3    H235879   2.276   4.863   3.354  0.0945 -1.5696  0.4112
 4822TIP3   OH235880   4.024   1.647   5.517 -0.3596  0.0951 -0.4764
 4822TIP3    H135881   4.070   1.562   5.522  1.8719  1.2718  0.7817
 4822TIP3    H235882   4.081   1.707   5.565 -2.0192  2.2724 -1.0980
 4823TIP3   OH235883   6.751   4.829  11.485  0.7920  0.1677  0.0693
 4823TIP3    H135884   6.705   4.815  11.568  0.5726  0.8880  0.0809
 4823TIP3    H235885   6.815   4.897  11.505  1.8705 -0.8286  0.0499
 4824TIP3   OH235886   0.393   5.588  15.837 -0.3800  0.3261 -0.4188
 4824TIP3    H135887   0.430   5.537  15.909  0.7597 -0.1274 -1.3004
 4824TIP3    H235888   0.469   5.610  15.782 -1.1153  1.3581 -1.0562
 4825TIP3   OH235889   5.035   5.994  13.061 -0.8604 -0.0567  0.0338
 4825TIP3    H135890   5.061   5.922  13.004 -0.6698 -0.1649  0.2601
 4825TIP3    H235891   4.952   6.024  13.025  1.0765  2.5030 -2.8125
 4826TIP3   OH235892   1.922   1.294   3.864  0.3798 -0.0811  0.0831
 4826TIP3    H135893   1.934   1.385   3.892 -0.8511  1.5042 -3.7962
 4826TIP3    H235894   1.984   1.283   3.792 -0.5684 -1.7828 -0.5254
 4827TIP3   OH235895   5.711   0.658  13.764  0.0892  0.3801  0.4116
 4827TIP3    H135896   5.701   0.563  13.756  0.4954  0.5255 -3.8173
 4827TIP3    H235897   5.801   0.669  13.795 -0.1141 -0.5455  1.4358
 4828TIP3   OH235898   5.298   0.361  14.814 -0.3304 -0.6094 -0.3922
 4828TIP3    H135899   5.282   0.436  14.757  0.9273 -0.9268 -1.2098
 4828TIP3    H235900   5.229   0.299  14.792 -0.8355 -0.0529 -0.3778
 4829TIP3   OH235901   0.606   0.845  12.787 -0.3514 -0.1012  0.0939
 4829TIP3    H135902   0.547   0.788  12.738 -1.0135 -1.9196  2.7978
 4829TIP3    H235903   0.584   0.934  12.758 -1.4229 -0.9823 -2.0188
 4830TIP3   OH235904   4.534   3.664   2.165 -0.2125 -0.5459 -0.9007
 4830TIP3    H135905   4.453   3.686   2.210 -0.2103 -1.1468 -0.5936
 4830TIP3    H235906   4.547   3.736   2.103  0.0139  0.5251  0.3396
 4831TIP3   OH235907   4.564   4.233   1.249 -0.1137 -0.2710 -0.4351
 4831TIP3    H135908   4.495   4.298   1.234  1.7816  2.0396  0.2283
 4831TIP3    H235909   4.605   4.260   1.331  1.6925 -1.4453 -0.8929
 4832TIP3   OH235910   6.625   4.282  16.794  0.3436 -0.0944 -0.3118
 4832TIP3    H135911   6.696   4.306  16.733 -0.5983 -0.0055 -1.4197
 4832TIP3    H235912   6.587   4.202  16.756  1.0559 -1.2428  1.3161
 4833TIP3   OH235913   5.304   3.268   2.296  0.4385  0.0874  0.2618
 4833TIP3    H135914   5.273   3.183   2.325  1.9027 -0.6520 -0.2326
 4833TIP3    H235915   5.280   3.272   2.203 -0.0363  0.4269  0.3930
 4834TIP3   OH235916   3.793   6.516  11.051  0.2621  0.2059  0.2619
 4834TIP3    H135917   3.854   6.450  11.085 -1.2663 -1.2513  0.3136
 4834TIP3    H235918   3.759   6.479  10.970  0.1387  1.4321 -0.2775
 4835TIP3   OH235919   2.493   5.759  13.675  0.5290 -0.2162 -0.2383
 4835TIP3    H135920   2.417   5.792  13.626 -0.0738 -0.9439  0.1800
 4835TIP3    H235921   2.538   5.838  13.704 -0.1676  0.2389 -0.3507
 4836TIP3   OH235922   6.478   2.663   4.962 -0.4041  0.3749  0.0665
 4836TIP3    H135923   6.473   2.614   4.880 -0.9492  3.4161 -1.8875
 4836TIP3    H235924   6.553   2.722   4.950 -0.7475  1.1722  1.5965
 4837TIP3   OH235925   5.892   6.637   1.409 -0.0394  0.0821  0.9250
 4837TIP3    H135926   5.821   6.597   1.459 -0.0924  0.3538  1.0742
 4837TIP3    H235927   5.940   6.689   1.474 -0.7484  1.3015  0.4999
 4838TIP3   OH235928   1.632   2.148   1.084 -0.1814 -0.0216  0.0004
 4838TIP3    H135929   1.602   2.172   1.171 -0.6808  0.2551 -0.2401
 4838TIP3    H235930   1.626   2.229   1.033  0.7863 -0.0041 -0.1149
 4839TIP3   OH235931   5.532   0.082   1.856  0.2487 -0.0615  0.0926
 4839TIP3    H135932   5.468   0.010   1.855 -1.3786  1.3257 -1.0602
 4839TIP3    H235933   5.617   0.038   1.862 -0.7724 -1.9520  3.0676
 4840TIP3   OH235934   3.091   4.617  12.323 -0.1655 -0.1027 -0.7777
 4840TIP3    H135935   3.108   4.662  12.240 -1.2676 -0.0223 -0.9658
 4840TIP3    H235936   3.172   4.629  12.373  1.0087 -1.2122 -2.2945
 4841TIP3   OH235937   4.777   5.616   4.870 -0.6970  1.0790 -0.1722
 4841TIP3    H135938   4.772   5.550   4.800 -1.0966  1.2875 -0.3429
 4841TIP3    H235939   4.738   5.573   4.946  1.3571  0.1941  0.4506
 4842TIP3   OH235940   1.525   3.032  16.138  0.3795 -0.4374  0.9169
 4842TIP3    H135941   1.583   3.074  16.202  3.6967 -0.5972 -1.6880
 4842TIP3    H235942   1.583   2.973  16.090 -2.3369 -1.6859 -1.0234
 4843TIP3   OH235943   3.513   3.670   2.681 -0.5111 -0.4185  0.4207
 4843TIP3    H135944   3.601   3.637   2.701  0.0779  0.7650 -0.1243
 4843TIP3    H235945   3.527   3.760   2.651 -1.9879  0.0566  1.0630
 4844TIP3   OH235946   4.929   5.721   4.056  0.1417 -0.6479 -0.2440
 4844TIP3    H135947   5.007   5.768   4.028  0.9059 -1.6648  0.1125
 4844TIP3    H235948   4.863   5.742   3.990  1.0463 -0.6845 -1.1757
 4845TIP3   OH235949   5.879   1.312   3.296 -0.1471  0.7588  0.3479
 4845TIP3    H135950   5.819   1.237   3.295  1.4621 -0.6623 -2.3613
 4845TIP3    H235951   5.950   1.286   3.355 -0.4355  0.9409  0.7841
 4846TIP3   OH235952   5.316   5.193  11.485 -1.0093  0.4422  0.0324
 4846TIP3    H135953   5.382   5.137  11.527 -0.0603  1.2507 -0.3367
 4846TIP3    H235954   5.245   5.134  11.463  0.4353 -0.8561 -1.3580
 4847TIP3   OH235955   6.496   5.051   4.346 -0.5169  0.4040  0.5779
 4847TIP3    H135956   6.426   5.073   4.407 -1.9761  3.9301 -2.0153
 4847TIP3    H235957   6.458   4.985   4.289 -1.8440  2.2179 -0.7497
 4848TIP3   OH235958   6.701   3.336  12.790  0.4428  0.0983  0.6696
 4848TIP3    H135959   6.635   3.336  12.721  0.2224  0.9512  0.8773
 4848TIP3    H235960   6.779   3.300  12.748 -0.2373 -1.2565  0.5216
 4849TIP3   OH235961   3.958   2.887  15.544 -0.2772 -0.3208  0.0458
 4849TIP3    H135962   4.036   2.925  15.585 -0.0288  0.3633 -1.0093
 4849TIP3    H235963   3.929   2.820  15.605  0.4385  0.2328  1.0319
 4850TIP3   OH235964   4.996   6.408  13.382 -0.6572  0.2220 -0.2576
 4850TIP3    H135965   4.988   6.485  13.325 -0.4222 -0.1105 -0.7448
 4850TIP3    H235966   5.077   6.424  13.431 -1.1552  0.7741  0.3948
 4851TIP3   OH235967   3.942   5.085  16.930  0.3304 -0.0230 -0.2950
 4851TIP3    H135968   3.966   5.045  17.014  2.9164 -0.3602 -1.1088
 4851TIP3    H235969   3.996   5.164  16.925 -0.3420  0.3947 -1.3446
 4852TIP3   OH235970   6.600   0.688  16.050 -0.2544  0.1885  0.3648
 4852TIP3    H135971   6.524   0.705  16.106  0.0184 -0.9185  1.0991
 4852TIP3    H235972   6.661   0.640  16.106  0.0990 -0.8085 -0.8159
 4853TIP3   OH235973   3.079   5.361  12.526  0.0618 -0.2715 -0.6217
 4853TIP3    H135974   3.173   5.373  12.542 -0.3898  2.7737  0.5031
 4853TIP3    H235975   3.039   5.368  12.613 -1.4180  2.5356 -1.4008
 4854TIP3   OH235976   0.026   0.568  14.535 -0.1534  0.4011  0.2139
 4854TIP3    H135977   0.086   0.527  14.473 -1.5448  0.9482 -1.5605
 4854TIP3    H235978  -0.053   0.513  14.533  0.3184 -0.5212  2.7860
 4855TIP3   OH235979   3.065   3.307  14.544  0.0333 -0.5084  0.1398
 4855TIP3    H135980   3.109   3.255  14.612  1.1998 -0.1085 -0.2919
 4855TIP3    H235981   3.064   3.250  14.467  2.8964  0.6412 -0.8723
 4856TIP3   OH235982   6.654   6.231   1.163 -0.2345 -0.1383  0.0356
 4856TIP3    H135983   6.687   6.141   1.171  2.1688  0.6136 -0.6339
 4856TIP3    H235984   6.565   6.227   1.197 -0.1247 -2.7317  0.1997
 4857TIP3   OH235985   6.514   1.877   1.684 -0.2625 -0.2776  0.4113
 4857TIP3    H135986   6.577   1.948   1.697 -0.7553  0.0301  1.1963
 4857TIP3    H235987   6.498   1.843   1.773 -2.7134  0.9803  0.5342
 4858TIP3   OH235988   6.165   2.524  14.045  0.6059  0.0531  0.3907
 4858TIP3    H135989   6.140   2.455  14.106  1.4992  0.4502  1.2374
 4858TIP3    H235990   6.225   2.481  13.983  2.5385  0.3948  1.9342
 4859TIP3   OH235991   2.186   1.476  15.094  0.3788 -0.4440  0.4237
 4859TIP3    H135992   2.105   1.473  15.144  0.7907 -0.5075  1.0940
 4859TIP3    H235993   2.183   1.397  15.039 -1.6183  1.2579 -2.1469
 4860TIP3   OH235994   3.031   3.359  14.980 -0.2405  0.5762 -0.0703
 4860TIP3    H135995   2.982   3.424  14.929  0.0611  2.0763  1.4717
 4860TIP3    H235996   2.990   3.276  14.957 -2.4480  1.5839 -0.0965
 4861TIP3   OH235997   2.189   3.559   5.053 -0.4020  0.1079 -0.2878
 4861TIP3    H135998   2.148   3.644   5.037 -0.1310 -0.1094 -2.4769
 4861TIP3    H235999   2.212   3.527   4.966  0.0647 -1.9476  0.5324
 4862TIP3   OH236000   1.152   6.721  13.949  0.0280  0.2522 -0.7412
 4862TIP3    H136001   1.151   6.769  13.866 -0.4704  1.0224 -0.3055
 4862TIP3    H236002   1.085   6.765  14.003 -0.3240 -0.8375 -0.2702
 4863TIP3   OH236003   2.711   0.197  16.576 -0.3842 -0.5697  0.1618
 4863TIP3    H136004   2.651   0.123  16.574 -0.0266 -0.8498 -0.7446
 4863TIP3    H236005   2.672   0.261  16.515 -0.3727 -0.2694  0.4676
 4864TIP3   OH236006   0.889   5.240  12.453 -0.1536 -0.0730 -0.2191
 4864TIP3    H136007   0.980   5.264  12.469 -0.0471 -0.0786 -0.7737
 4864TIP3    H236008   0.844   5.324  12.445 -0.1999 -0.0708  0.0895
 4865TIP3   OH236009   0.965   0.509   3.536  0.1783  0.1225 -0.2960
 4865TIP3    H136010   0.903   0.453   3.583 -1.3224  1.6257 -0.4112
 4865TIP3    H236011   0.999   0.453   3.466 -0.5323 -0.9369  0.1714
 4866TIP3   OH236012   1.661   4.662  16.847 -0.3045 -0.8644  0.5087
 4866TIP3    H136013   1.742   4.643  16.799 -1.3743 -0.6676 -1.4859
 4866TIP3    H236014   1.650   4.587  16.906  1.7974 -0.4327  1.5563
 4867TIP3   OH236015   1.579   3.926   5.063 -1.0845  0.8107  0.3447
 4867TIP3    H136016   1.600   4.015   5.090 -0.7509  0.6510  0.6103
 4867TIP3    H236017   1.560   3.880   5.145  0.6656  0.1246  0.4056
 4868TIP3   OH236018   1.285   4.626   4.533 -0.4898 -0.5865 -0.0198
 4868TIP3    H136019   1.203   4.605   4.578 -1.2552 -1.9618 -1.9051
 4868TIP3    H236020   1.261   4.697   4.472  0.5913  1.4516  1.7952
 4869TIP3   OH236021   1.206   3.395   1.368 -0.4983  0.0446 -0.0668
 4869TIP3    H136022   1.285   3.369   1.320 -0.8530  2.6933 -2.2617
 4869TIP3    H236023   1.185   3.318   1.421  1.8393 -1.8316 -1.6421
 4870TIP3   OH236024   3.640   0.247   5.734 -0.1734 -0.6144  0.4123
 4870TIP3    H136025   3.701   0.182   5.769  1.9557  0.2318 -1.4361
 4870TIP3    H236026   3.688   0.330   5.741 -2.6326  0.7863  2.3106
 4871TIP3   OH236027   3.839   1.331   0.217 -0.2957 -0.2447 -0.0790
 4871TIP3    H136028   3.778   1.278   0.166 -0.6785  1.8222 -1.8624
 4871TIP3    H236029   3.783   1.387   0.271 -0.0024  1.1488 -1.1885
 4872TIP3   OH236030   5.116   5.153  16.545  0.2182 -0.0549  0.7192
 4872TIP3    H136031   5.157   5.121  16.464 -2.7929 -1.3820 -0.4515
 4872TIP3    H236032   5.166   5.112  16.615  1.9956 -0.0794 -0.5098
 4873TIP3   OH236033   0.727   0.066   0.813  0.0935 -0.2867  0.3511
 4873TIP3    H136034   0.674   0.123   0.757 -0.0223 -1.7699 -1.1474
 4873TIP3    H236035   0.813   0.108   0.814  0.3592 -0.6802 -1.7583
 4874TIP3   OH236036   4.514   1.706  16.000  0.0690 -0.4115 -0.0247
 4874TIP3    H136037   4.522   1.773  16.068  1.0529  0.5060 -1.0165
 4874TIP3    H236038   4.590   1.649  16.014 -1.0253 -1.6648  1.1269
 4875TIP3   OH236039   3.762   4.025   2.456  0.2825 -0.7092 -0.1157
 4875TIP3    H136040   3.766   3.966   2.381 -0.8980 -0.8011 -0.1177
 4875TIP3    H236041   3.759   4.113   2.418  1.8767 -0.6216 -0.1153
 4876TIP3   OH236042   6.769   5.124  14.678  0.2723 -0.4563  0.5224
 4876TIP3    H136043   6.738   5.040  14.713  1.5187 -1.7879 -1.3994
 4876TIP3    H236044   6.700   5.153  14.619  1.1967 -1.8313 -1.3221
 4877TIP3   OH236045   2.968   5.224  15.980 -0.3587 -0.1643  0.3263
 4877TIP3    H136046   3.019   5.176  16.045 -1.3544 -1.6838  0.0388
 4877TIP3    H236047   3.032   5.250  15.914  0.4559  0.3303  1.2813
 4878TIP3   OH236048   0.494   5.387  16.410  0.0006 -0.1934 -0.2840
 4878TIP3    H136049   0.443   5.467  16.400  0.5860  0.2140 -0.0810
 4878TIP3    H236050   0.431   5.320  16.436 -0.7227 -0.1095 -1.7441
 4879TIP3   OH236051   1.748   5.515  17.003 -0.5360 -0.2328 -0.2899
 4879TIP3    H136052   1.736   5.567  16.924 -0.1269 -0.5472 -0.5622
 4879TIP3    H236053   1.802   5.571  17.060 -0.4469 -0.1898 -0.4144
 4880TIP3   OH236054   3.589   0.977  14.711 -0.1811 -0.0295  0.0291
 4880TIP3    H136055   3.593   1.023  14.628 -0.0252  3.3084  1.7175
 4880TIP3    H236056   3.497   0.954  14.722 -0.0384 -1.4890 -1.4830
 4881TIP3   OH236057   0.612   4.471  12.634  0.3908 -0.2694  0.0772
 4881TIP3    H136058   0.554   4.425  12.573  0.8777 -0.2955 -0.3737
 4881TIP3    H236059   0.650   4.401  12.688  0.2779 -0.2869  0.1349
 4882TIP3   OH236060   1.779   5.759  16.507  0.0768 -0.0749 -0.5112
 4882TIP3    H136061   1.798   5.850  16.485  0.0402  0.5863  1.8375
 4882TIP3    H236062   1.751   5.719  16.425  0.4959  1.9201 -1.6854
 4883TIP3   OH236063   0.982   2.274  14.308 -0.3914  0.4645 -0.3741
 4883TIP3    H136064   0.951   2.227  14.385  0.8436  0.1965 -0.0215
 4883TIP3    H236065   1.037   2.211  14.262 -1.9860  0.2362 -2.1108
 4884TIP3   OH236066   1.192   1.506   3.639  0.5180 -0.1944  0.1024
 4884TIP3    H136067   1.214   1.581   3.695  0.0042 -0.5541  0.7989
 4884TIP3    H236068   1.256   1.511   3.567  2.6957 -1.0036  1.8557
 4885TIP3   OH236069   0.970   3.930  11.984  0.0793 -0.0645  0.3405
 4885TIP3    H136070   1.023   3.884  12.049  1.1595 -2.0164 -1.7631
 4885TIP3    H236071   0.895   3.872  11.970 -0.3833  0.5681  0.1718
 4886TIP3   OH236072   1.100   4.667  15.593 -0.4456  0.1629 -0.1587
 4886TIP3    H136073   1.018   4.621  15.576 -0.9133  1.3347 -1.2460
 4886TIP3    H236074   1.086   4.755  15.559  1.0217  0.6087  0.2956
 4887TIP3   OH236075   4.846   2.352   3.987 -0.3993  0.1750 -0.9421
 4887TIP3    H136076   4.867   2.435   4.029  2.3338  0.0424 -1.8267
 4887TIP3    H236077   4.751   2.344   3.994 -0.5687  2.6093  0.5205
 4888TIP3   OH236078   3.472   4.859   5.420 -0.4877 -0.4400  0.0744
 4888TIP3    H136079   3.534   4.827   5.486 -0.1868 -0.2663 -0.1240
 4888TIP3    H236080   3.473   4.954   5.431 -0.0300 -0.3687 -0.5423
 4889TIP3   OH236081   3.425   1.913  14.357 -0.0795  0.0883 -0.1928
 4889TIP3    H136082   3.387   1.978  14.416  0.5565 -1.3488  1.9284
 4889TIP3    H236083   3.349   1.864  14.324 -0.3884  0.2276  0.2966
 4890TIP3   OH236084   5.864   2.840   4.833 -0.0756  1.0732 -0.1710
 4890TIP3    H136085   5.800   2.806   4.896  0.2496 -2.4019 -1.5039
 4890TIP3    H236086   5.943   2.854   4.885 -0.0367 -0.9885  0.4217
 4891TIP3   OH236087   2.021   1.496   2.587  0.0251  0.4865  0.1724
 4891TIP3    H136088   2.100   1.482   2.534  0.1894  2.7097 -0.2792
 4891TIP3    H236089   2.002   1.589   2.577 -1.9009  0.2771  1.3643
 4892TIP3   OH236090   0.379   1.702  13.493 -0.2828  0.8286 -0.1735
 4892TIP3    H136091   0.365   1.698  13.588  0.5195 -1.1121 -0.0857
 4892TIP3    H236092   0.474   1.696  13.483 -0.4417 -0.5022 -1.1172
 4893TIP3   OH236093   0.571   5.994   4.094 -0.0575 -0.2537 -0.1995
 4893TIP3    H136094   0.635   6.016   4.162  0.9138 -2.5494 -0.2739
 4893TIP3    H236095   0.617   6.008   4.012  0.8837 -3.0005 -0.2483
 4894TIP3   OH236096   6.605   5.890  12.406  0.1904  0.1270 -0.3192
 4894TIP3    H136097   6.677   5.829  12.423 -1.5542 -1.6085  1.3624
 4894TIP3    H236098   6.539   5.868  12.471 -1.0031  3.1488 -0.3340
 4895TIP3   OH236099   0.003   1.095   0.358 -0.9638 -0.4395  0.1244
 4895TIP3    H136100  -0.003   1.002   0.335 -0.0874 -0.8119  1.2989
 4895TIP3    H236101  -0.088   1.125   0.360 -1.3338 -1.5348  0.6798
 4896TIP3   OH236102   5.952   1.208   2.011 -0.1995 -0.4125  0.1897
 4896TIP3    H136103   5.947   1.207   2.107 -1.1146  1.3162  0.2006
 4896TIP3    H236104   6.044   1.221   1.992  0.3449 -2.9032  0.7448
 4897TIP3   OH236105   2.866   1.397   4.920 -0.4938 -0.4522  0.2733
 4897TIP3    H136106   2.926   1.389   4.995 -0.1940 -1.4271 -0.0541
 4897TIP3    H236107   2.907   1.464   4.865 -0.9275  0.5688  1.1589
 4898TIP3   OH236108   2.939   3.151   4.491 -0.2941 -0.3071  0.2243
 4898TIP3    H136109   2.914   3.094   4.419  0.1533 -0.4094  0.1457
 4898TIP3    H236110   2.856   3.179   4.530 -0.6141  1.2825 -1.4954
 4899TIP3   OH236111   6.215   6.069  15.496  0.2632 -0.0624  0.1660
 4899TIP3    H136112   6.154   6.006  15.456  1.0048 -0.2149 -0.7524
 4899TIP3    H236113   6.187   6.075  15.587  0.8543 -2.5890  0.5848
 4900TIP3   OH236114   3.977   5.703  11.271 -0.2682  0.1655 -0.0255
 4900TIP3    H136115   4.015   5.712  11.359 -2.3740 -0.0493  0.9676
 4900TIP3    H236116   3.890   5.667  11.287 -0.1083 -1.4452 -2.3508
 4901TIP3   OH236117   0.190   3.480  15.862  0.3301  0.0645 -0.3408
 4901TIP3    H136118   0.118   3.542  15.875 -0.6305 -0.9291 -0.8549
 4901TIP3    H236119   0.258   3.532  15.820  1.9756  2.3945  4.3696
 4902TIP3   OH236120   0.641   5.395   1.744 -0.4762 -0.6033  0.0562
 4902TIP3    H136121   0.647   5.432   1.832  1.9137  1.0308 -0.6797
 4902TIP3    H236122   0.603   5.466   1.691  1.5559 -0.1216 -0.8592
 4903TIP3   OH236123   0.615   3.462   0.366 -0.0827 -0.4881  0.7320
 4903TIP3    H136124   0.704   3.465   0.402 -0.3200 -1.2581  1.4355
 4903TIP3    H236125   0.627   3.452   0.272  0.5760 -0.5900  0.8229
 4904TIP3   OH236126   5.830   6.524   5.726  0.3855 -0.0940 -0.2813
 4904TIP3    H136127   5.791   6.463   5.789  0.7133 -0.5791 -0.5343
 4904TIP3    H236128   5.757   6.576   5.694  0.2837  0.5359  0.8961
 4905TIP3   OH236129   5.309   1.062  16.265  0.9597  0.1752  0.1733
 4905TIP3    H136130   5.254   1.117  16.321  2.6568  0.8195  1.2919
 4905TIP3    H236131   5.371   1.020  16.325  2.2602  0.1701 -1.1085
 4906TIP3   OH236132   4.969   4.065   4.107  0.0379  0.2464  0.1116
 4906TIP3    H136133   4.988   3.986   4.056  0.2799  0.9187 -0.8637
 4906TIP3    H236134   4.874   4.064   4.117  0.1804 -1.2005  1.8470
 4907TIP3   OH236135   1.013   5.394   3.343  0.1545 -0.3484 -0.0566
 4907TIP3    H136136   0.957   5.449   3.288  2.9371  1.3766 -1.3881
 4907TIP3    H236137   1.061   5.456   3.398  1.5884 -1.6264  0.2020
 4908TIP3   OH236138   1.663   0.519   3.199 -0.0419  0.3921 -0.5237
 4908TIP3    H136139   1.655   0.526   3.104 -2.4786 -0.5425 -0.4424
 4908TIP3    H236140   1.621   0.436   3.221 -1.7348  1.7099  1.6029
 4909TIP3   OH236141   4.082   4.200   3.757 -0.3445  0.0637 -0.3418
 4909TIP3    H136142   4.040   4.130   3.807 -1.2974  0.6016 -0.3627
 4909TIP3    H236143   4.152   4.157   3.709 -1.9818 -1.2090 -1.6900
 4910TIP3   OH236144   5.157   2.295  14.425 -0.1568  0.5228 -0.6951
 4910TIP3    H136145   5.177   2.327  14.513 -0.3417 -2.0867  0.3756
 4910TIP3    H236146   5.240   2.261  14.392 -0.4403 -0.0277 -0.8531
 4911TIP3   OH236147   0.742   4.829   1.435  0.0235 -0.0098 -0.2018
 4911TIP3    H136148   0.749   4.734   1.424  0.6949  0.0568 -0.3799
 4911TIP3    H236149   0.764   4.843   1.527  0.4789  0.0289 -0.3173
 4912TIP3   OH236150   5.317   4.306   3.932 -0.4132  0.3290 -0.8292
 4912TIP3    H136151   5.301   4.334   3.842  2.4017  1.1542 -1.1582
 4912TIP3    H236152   5.407   4.273   3.931 -1.7869 -4.2131  0.6838
 4913TIP3   OH236153   5.983   5.222   1.687 -0.0938 -0.1678  0.3251
 4913TIP3    H136154   6.016   5.270   1.763 -0.8982  0.0012  0.5764
 4913TIP3    H236155   6.057   5.170   1.657  0.5608  0.6176  0.5418
 4914TIP3   OH236156   3.567   5.431   1.776 -0.1658 -0.1894 -0.6684
 4914TIP3    H136157   3.639   5.484   1.812 -1.7149  1.7867 -0.3111
 4914TIP3    H236158   3.496   5.439   1.840 -0.4105 -3.0412 -0.4459
 4915TIP3   OH236159   4.806   2.319   4.426  0.1620  0.2896 -0.4983
 4915TIP3    H136160   4.886   2.291   4.382  0.8102  0.3942  0.5814
 4915TIP3    H236161   4.760   2.371   4.360  1.4967  1.1260 -0.8168
 4916TIP3   OH236162   5.603   2.172   3.991  0.5173 -0.3131 -0.5419
 4916TIP3    H136163   5.524   2.226   3.992 -0.1041 -1.2092 -0.1701
 4916TIP3    H236164   5.571   2.082   3.992  1.5415 -0.6987 -0.8166
 4917TIP3   OH236165   5.598   3.123  16.109  0.1528 -0.2440  0.3619
 4917TIP3    H136166   5.594   3.213  16.077  0.6981 -0.2938  0.1375
 4917TIP3    H236167   5.612   3.070  16.030  1.0822 -0.4050  0.6289
 4918TIP3   OH236168   3.804   3.158  15.103  0.3246  0.0451  0.0004
 4918TIP3    H136169   3.837   3.068  15.093 -2.1187 -0.7634 -1.4525
 4918TIP3    H236170   3.737   3.167  15.036 -0.0405  2.7386  0.6203
 4919TIP3   OH236171   5.216   5.463  16.562  0.0745 -0.0339  0.1233
 4919TIP3    H136172   5.306   5.442  16.589  0.7497  1.2007 -1.0564
 4919TIP3    H236173   5.226   5.512  16.481 -1.7755 -1.3333 -0.9479
 4920TIP3   OH236174   0.601   5.074  14.428 -0.2864  0.9551  0.1626
 4920TIP3    H136175   0.576   4.998  14.375  2.4318 -1.1979  1.6768
 4920TIP3    H236176   0.674   5.113  14.381  0.8823  0.1818  1.2531
 4921TIP3   OH236177   5.004   4.436  14.709  0.3600 -0.1190 -0.6138
 4921TIP3    H136178   5.030   4.369  14.772  1.6182  1.1158  0.2485
 4921TIP3    H236179   4.953   4.499  14.760  1.0800  0.7069 -0.8734
 4922TIP3   OH236180   6.677   2.657   2.806 -0.3460  0.2584  0.5790
 4922TIP3    H136181   6.694   2.609   2.725 -1.3008  1.3526 -0.2914
 4922TIP3    H236182   6.686   2.591   2.875  1.2314 -0.5316 -0.3268
 4923TIP3   OH236183   0.636   6.196  15.913 -0.8646 -0.4097  0.4384
 4923TIP3    H136184   0.621   6.267  15.851  0.0556 -1.1250 -0.6348
 4923TIP3    H236185   0.553   6.148  15.915 -0.7600 -0.6480 -0.5995
 4924TIP3   OH236186   6.766   0.218  10.648  0.3980  0.2209 -0.5452
 4924TIP3    H136187   6.740   0.292  10.593 -0.7628 -0.8646 -1.5207
 4924TIP3    H236188   6.711   0.225  10.725 -1.5248 -0.9644 -1.7332
 4925TIP3   OH236189   0.304   6.398  14.387  0.5302 -0.7904 -0.4472
 4925TIP3    H136190   0.353   6.320  14.413  0.1497 -0.8381  0.1559
 4925TIP3    H236191   0.371   6.465  14.373  0.7404 -0.3549  2.0567
 4926TIP3   OH236192   1.039   4.420  11.839 -0.3303 -0.0132  0.2639
 4926TIP3    H136193   1.004   4.423  11.928 -0.7989 -0.8879  0.1197
 4926TIP3    H236194   1.013   4.335  11.805  0.5744 -0.0404 -0.4228
 4927TIP3   OH236195   0.460   2.008   1.548  0.0335  0.0504  0.2312
 4927TIP3    H136196   0.482   2.078   1.609  1.2306 -1.3258  1.4589
 4927TIP3    H236197   0.415   1.942   1.602 -1.6551  0.0983 -1.0183
 4928TIP3   OH236198   1.177   3.921  12.445  0.3389 -0.1868 -0.0358
 4928TIP3    H136199   1.230   3.929  12.366  0.3343 -0.5138 -0.0752
 4928TIP3    H236200   1.106   3.862  12.419 -0.2738  0.5724 -0.1042
 4929TIP3   OH236201   1.833   5.262   5.412 -0.0656 -0.8880  0.1676
 4929TIP3    H136202   1.925   5.241   5.396 -0.0549 -0.1167 -0.9406
 4929TIP3    H236203   1.834   5.318   5.489  0.5118 -0.0559 -0.4289
 4930TIP3   OH236204   1.964   1.174   1.288  0.4148  0.1770  0.1462
 4930TIP3    H136205   1.891   1.112   1.293 -0.6399  1.2648 -1.0003
 4930TIP3    H236206   2.016   1.145   1.214 -2.2609  2.7472 -3.0531
 4931TIP3   OH236207   5.325   2.264   4.901 -0.1681 -0.3201  0.4284
 4931TIP3    H136208   5.272   2.344   4.895 -0.8653 -0.7820  0.3348
 4931TIP3    H236209   5.295   2.222   4.982  2.2533  0.9514  2.1125
 4932TIP3   OH236210   3.104   6.204  15.403 -0.1050  0.1227  0.2098
 4932TIP3    H136211   3.093   6.281  15.459 -2.9531  0.0558 -0.1042
 4932TIP3    H236212   3.034   6.211  15.338  2.2408 -0.4976 -2.6090
 4933TIP3   OH236213   5.406   5.783  16.323  0.2512  0.0479  0.0488
 4933TIP3    H136214   5.427   5.705  16.375  0.1237 -0.9008 -1.2752
 4933TIP3    H236215   5.487   5.801  16.275  0.0289  0.2570 -0.2457
 4934TIP3   OH236216   6.164   1.838  12.560  0.4932 -0.3411 -0.2908
 4934TIP3    H136217   6.160   1.933  12.575 -1.0875 -0.1716 -1.5709
 4934TIP3    H236218   6.256   1.822  12.538  0.5908  1.0677 -1.0473
 4935TIP3   OH236219   6.614   5.992   5.290  0.5530  0.0039  0.2071
 4935TIP3    H136220   6.542   5.991   5.353  1.4054 -1.1701  1.2160
 4935TIP3    H236221   6.615   5.904   5.253  0.8471  0.3074 -0.5182
 4936TIP3   OH236222   1.571   0.809   3.623  0.2120  0.2737 -0.2509
 4936TIP3    H136223   1.542   0.785   3.535 -1.0543  2.1693 -0.3981
 4936TIP3    H236224   1.612   0.894   3.613 -1.2103  1.1780  1.1753
 4937TIP3   OH236225   1.477   0.344  16.797  0.1491  0.3044 -0.0213
 4937TIP3    H136226   1.487   0.292  16.877 -1.6106  1.1427  0.7918
 4937TIP3    H236227   1.449   0.430  16.827 -3.0494 -0.0398 -1.5591
 4938TIP3   OH236228   1.281   3.254   5.149  0.0739 -0.0848 -0.0675
 4938TIP3    H136229   1.206   3.245   5.090 -1.6762 -1.2186  2.1631
 4938TIP3    H236230   1.306   3.164   5.169  1.2015  0.2847  0.2502
 4939TIP3   OH236231   6.003   6.274  16.879 -0.3132 -0.3055 -0.2277
 4939TIP3    H136232   6.037   6.186  16.890  1.0143  0.1416 -0.6023
 4939TIP3    H236233   6.079   6.327  16.855 -1.4569  0.5231 -2.2399
 4940TIP3   OH236234   2.686   4.553  15.643  0.0721 -0.0184  1.0647
 4940TIP3    H136235   2.625   4.532  15.572 -2.2210  0.8496  2.6807
 4940TIP3    H236236   2.691   4.648  15.643  1.0675 -0.0548  1.2924
 4941TIP3   OH236237   4.445   1.964  11.410  0.5871  0.0013 -0.2517
 4941TIP3    H136238   4.491   1.893  11.455 -1.0132 -1.6848 -1.1483
 4941TIP3    H236239   4.490   1.972  11.326 -0.5655 -1.5689 -1.0805
 4942TIP3   OH236240   1.725   1.834   3.818 -0.2620 -0.0913  0.0618
 4942TIP3    H136241   1.770   1.779   3.754  2.3184  0.3784  1.3162
 4942TIP3    H236242   1.638   1.795   3.827  1.6773 -4.7760  1.6587
 4943TIP3   OH236243   0.789   4.448   2.804 -0.0596 -0.5405 -0.2471
 4943TIP3    H136244   0.724   4.420   2.740 -1.3869 -0.0907  0.8605
 4943TIP3    H236245   0.762   4.408   2.886  1.5425 -1.0086  0.0906
 4944TIP3   OH236246   3.680   5.431   5.478 -0.1042 -0.2698 -0.0292
 4944TIP3    H136247   3.601   5.377   5.480  0.1724 -0.7263 -0.8395
 4944TIP3    H236248   3.683   5.466   5.389  0.6454 -0.3260 -0.0305
 4945TIP3   OH236249   0.896   4.888  14.645  0.8920  0.0547 -0.2931
 4945TIP3    H136250   0.935   4.808  14.682  0.1425  0.9600  2.7909
 4945TIP3    H236251   0.965   4.954  14.654  0.4987  0.4232  0.0801
 4946TIP3   OH236252   0.997   0.867   3.179  0.5331 -0.2778 -0.8630
 4946TIP3    H136253   1.014   0.775   3.197 -0.6112 -0.3612 -0.1222
 4946TIP3    H236254   0.962   0.869   3.091  1.0964 -0.4798 -1.0961
 4947TIP3   OH236255   3.320   2.484   1.409  0.2316  0.1296  0.0822
 4947TIP3    H136256   3.255   2.546   1.441  0.1545  0.2049 -0.2148
 4947TIP3    H236257   3.374   2.535   1.348 -1.0957 -0.5619 -1.7689
 4948TIP3   OH236258   6.261   3.746  11.705  0.1668  0.2247 -0.3983
 4948TIP3    H136259   6.180   3.699  11.687 -1.3326  1.8710  1.5890
 4948TIP3    H236260   6.255   3.827  11.655  0.3311  0.5790  0.1407
 4949TIP3   OH236261   5.386   4.960   3.669  0.0631  0.1140  0.3488
 4949TIP3    H136262   5.297   4.974   3.636  0.2964 -0.0504 -0.3758
 4949TIP3    H236263   5.438   5.031   3.631  0.1872  0.3752  1.0013
 4950TIP3   OH236264   6.659   6.165   0.825  0.3225 -0.2812 -0.6120
 4950TIP3    H136265   6.648   6.089   0.767  0.8604 -0.5401 -0.3880
 4950TIP3    H236266   6.754   6.169   0.840  0.6116  1.7166 -2.3584
 4951TIP3   OH236267   3.521   0.782  13.731 -0.3021  0.2028  0.4587
 4951TIP3    H136268   3.597   0.724  13.722 -0.4907  0.1276 -0.8417
 4951TIP3    H236269   3.479   0.779  13.646 -2.2939 -0.4487  1.4066
 4952TIP3   OH236270   4.020   5.171  10.641 -0.2799 -0.1285  0.1452
 4952TIP3    H136271   3.926   5.165  10.623 -0.1650  1.3776 -1.1487
 4952TIP3    H236272   4.042   5.263  10.626  1.4678 -0.5301  0.0365
 4953TIP3   OH236273   4.348   5.004   4.734 -0.2430  0.9291  0.1835
 4953TIP3    H136274   4.362   4.971   4.646 -0.5566  1.6406 -0.1373
 4953TIP3    H236275   4.303   5.088   4.722  0.3688  1.3885  0.9802
 4954TIP3   OH236276   2.240   3.546   3.001  0.1927  0.5480  0.0030
 4954TIP3    H136277   2.292   3.507   2.930  2.6649 -0.1456  2.0406
 4954TIP3    H236278   2.302   3.554   3.074 -2.3719  0.6816  2.3038
 4955TIP3   OH236279   5.672   2.779  10.334 -0.3186 -0.6598 -0.0306
 4955TIP3    H136280   5.649   2.697  10.289 -1.6027  0.7632 -2.1171
 4955TIP3    H236281   5.731   2.823  10.274  0.6211 -0.1612  1.2235
 4956TIP3   OH236282   0.483   4.466  10.910 -0.3934 -0.2784  0.8650
 4956TIP3    H136283   0.547   4.461  10.981  3.3118  1.6503 -1.9607
 4956TIP3    H236284   0.451   4.556  10.913  0.3843  0.0625 -0.2529
 4957TIP3   OH236285   5.534   2.415  11.046  0.2035 -0.4009  0.3723
 4957TIP3    H136286   5.532   2.388  11.137 -0.9538 -0.3081  0.3858
 4957TIP3    H236287   5.627   2.430  11.027  0.3590  0.5398  1.8017
 4958TIP3   OH236288   5.497   2.806   3.946  0.1238  0.1968  0.1728
 4958TIP3    H136289   5.434   2.860   3.897 -0.1261  0.4963  0.8225
 4958TIP3    H236290   5.565   2.785   3.881  0.5755  1.8475  0.0627
 4959TIP3   OH236291   1.317   5.660  10.805  0.1045 -0.0273 -0.2496
 4959TIP3    H136292   1.351   5.591  10.749  0.9976 -0.8403  1.2457
 4959TIP3    H236293   1.241   5.622  10.848 -0.8112  0.7205 -1.1517
 4960TIP3   OH236294   2.296   5.471  15.911  0.5118  0.6830  0.1971
 4960TIP3    H136295   2.252   5.460  15.996  1.4149 -0.3614  0.5561
 4960TIP3    H236296   2.258   5.550  15.874 -0.2731  0.8668  1.3529
 4961TIP3   OH236297   4.263   5.655  13.094  0.6525  0.0110  0.0129
 4961TIP3    H136298   4.209   5.620  13.166  0.9214  0.3083  0.3652
 4961TIP3    H236299   4.351   5.659  13.131  0.6354  0.9963 -0.0404
 4962TIP3   OH236300   3.653   5.147   1.614  0.1899 -0.0399 -0.2716
 4962TIP3    H136301   3.566   5.108   1.615  0.3099 -0.3016  0.3367
 4962TIP3    H236302   3.637   5.242   1.617 -0.0847 -0.0607 -0.9384
 4963TIP3   OH236303   2.825   1.973   2.670 -0.6449 -0.0498 -0.0806
 4963TIP3    H136304   2.777   1.983   2.752 -3.9029  2.6896 -2.0747
 4963TIP3    H236305   2.885   2.048   2.669  1.9421 -1.9140  1.1018
 4964TIP3   OH236306   5.574   3.219  17.016  0.7696  0.1183  0.1279
 4964TIP3    H136307   5.626   3.209  16.936  1.1306  1.6900  0.1383
 4964TIP3    H236308   5.493   3.260  16.987  1.1367  1.2387  0.6078
 4965TIP3   OH236309   0.011   5.177   2.645  0.6806 -0.6836  0.1859
 4965TIP3    H136310   0.026   5.271   2.656 -0.0567  0.0043 -3.4698
 4965TIP3    H236311   0.098   5.139   2.641  1.0095 -0.0103  0.7181
 4966TIP3   OH236312   5.257   5.441  11.146  0.0139 -0.6070 -0.2369
 4966TIP3    H136313   5.303   5.482  11.220 -0.1145 -0.9136  0.0180
 4966TIP3    H236314   5.313   5.458  11.070  2.4070 -3.8817  0.5630
 4967TIP3   OH236315   4.743   4.255  11.192 -0.5022  0.7398 -0.6679
 4967TIP3    H136316   4.813   4.287  11.134  0.1130 -0.4537 -0.6172
 4967TIP3    H236317   4.756   4.302  11.274  0.4688  0.2957 -0.5510
 4968TIP3   OH236318   6.333   5.581  14.800 -0.4525 -1.1980  0.3938
 4968TIP3    H136319   6.336   5.605  14.708  0.3121 -0.0112  0.7068
 4968TIP3    H236320   6.319   5.486  14.800 -1.5597 -1.0518 -0.9157
 4969TIP3   OH236321   5.989   2.448   2.897 -0.4557 -0.3153  0.7481
 4969TIP3    H136322   6.083   2.446   2.877 -0.7049 -2.6621 -0.5409
 4969TIP3    H236323   5.984   2.425   2.990  0.2849  1.8225  1.3792
 4970TIP3   OH236324   0.704   2.312  16.689  0.3479  0.0885 -0.2025
 4970TIP3    H136325   0.681   2.357  16.607  0.9215 -0.9151 -0.9327
 4970TIP3    H236326   0.725   2.383  16.749 -0.0837  0.8497 -0.9168
 4971TIP3   OH236327   1.383   3.964   0.625  0.2235  0.1681 -0.5291
 4971TIP3    H136328   1.316   3.906   0.661 -0.3585  1.1482  0.0172
 4971TIP3    H236329   1.463   3.911   0.624 -0.8209 -1.4639 -2.4875
 4972TIP3   OH236330   5.852   5.684   5.240  0.0272  0.2793 -0.5258
 4972TIP3    H136331   5.837   5.622   5.169  0.4196 -1.6713  1.0219
 4972TIP3    H236332   5.765   5.720   5.259 -0.4220 -0.7118 -0.6380
 4973TIP3   OH236333   1.473   5.996  15.005  0.2301  0.1873 -0.1961
 4973TIP3    H136334   1.412   6.027  14.938 -0.4620 -0.0436  0.3054
 4973TIP3    H236335   1.553   5.975  14.958 -0.0752  0.5122 -0.8729
 4974TIP3   OH236336   4.176   0.984  15.120 -0.0382 -0.1049  0.0140
 4974TIP3    H136337   4.230   1.050  15.165 -0.5754  0.3303  0.0226
 4974TIP3    H236338   4.230   0.905  15.122  0.7859  0.4321 -0.3504
 4975TIP3   OH236339   3.532   2.977   4.826 -0.3471  0.2012  0.6194
 4975TIP3    H136340   3.561   2.914   4.760  0.7971  0.2935  1.0068
 4975TIP3    H236341   3.593   3.050   4.817  0.4070 -0.1658  2.3702
 4976TIP3   OH236342   6.575   4.337  17.070  0.2082  0.1924  0.2294
 4976TIP3    H136343   6.607   4.323  16.981 -2.0206 -0.5158 -0.5300
 4976TIP3    H236344   6.547   4.428  17.071  1.2566  0.5286  0.5937
 4977TIP3   OH236345   5.095   6.587   3.031  0.0378 -0.3251  0.0095
 4977TIP3    H136346   5.101   6.521   2.963 -0.2077  0.3224 -0.6512
 4977TIP3    H236347   5.049   6.543   3.103  1.1598 -1.3129  0.1592
 4978TIP3   OH236348   3.492   3.958  15.068 -0.1927 -0.0827 -0.1611
 4978TIP3    H136349   3.463   3.996  15.151  2.8083  0.0805  0.9131
 4978TIP3    H236350   3.442   3.877  15.059  0.1495 -0.6442  2.3782
 4979TIP3   OH236351   4.759   0.232  16.775  0.5839  0.2713  0.0349
 4979TIP3    H136352   4.671   0.258  16.748  0.1434  1.8279  2.6259
 4979TIP3    H236353   4.817   0.272  16.710 -0.5487 -0.5514 -1.5547
 4980TIP3   OH236354   4.661   6.217  12.327  0.1528  0.4169  0.6651
 4980TIP3    H136355   4.694   6.181  12.409 -0.2310 -1.7952 -0.0861
 4980TIP3    H236356   4.643   6.141  12.272 -0.8615  1.7684 -1.0047
 4981TIP3   OH236357   0.328   6.190  14.092  0.9486  0.0803 -0.9781
 4981TIP3    H136358   0.422   6.205  14.081  1.0996 -0.5802 -0.6053
 4981TIP3    H236359   0.319   6.096  14.103  0.4783  0.3073  1.1128
 4982TIP3   OH236360   6.784   4.487   3.321 -0.7821  0.2768  0.4142
 4982TIP3    H136361   6.783   4.401   3.278  0.2693 -0.4256  1.7142
 4982TIP3    H236362   6.756   4.468   3.411  0.7231  1.0714  1.0728
 4983TIP3   OH236363   1.404   5.191  11.334 -0.3571 -0.3770 -0.1332
 4983TIP3    H136364   1.311   5.200  11.313 -0.5925 -0.5294  0.7946
 4983TIP3    H236365   1.445   5.268  11.294 -1.1756  0.7377  1.0595
 4984TIP3   OH236366   3.522   1.786   2.735  0.2603  0.0984 -0.1905
 4984TIP3    H136367   3.560   1.754   2.654  1.0471  3.3333 -1.2604
 4984TIP3    H236368   3.583   1.758   2.803  0.5960 -1.0300 -0.9289
 4985TIP3   OH236369   5.302   5.836   4.458  0.4169  0.4600  0.2529
 4985TIP3    H136370   5.315   5.900   4.387  0.2869 -0.1638 -0.3450
 4985TIP3    H236371   5.321   5.885   4.538  3.9622  0.3140 -0.3329
 4986TIP3   OH236372   1.182   4.565  16.393  0.3034  0.1740 -0.5241
 4986TIP3    H136373   1.089   4.569  16.373 -0.3034 -0.6318  1.8275
 4986TIP3    H236374   1.217   4.648  16.360 -0.6048 -0.6534 -4.0003
 4987TIP3   OH236375   3.549   6.245  13.706  0.2776  0.3633 -0.0996
 4987TIP3    H136376   3.502   6.176  13.753  0.2654  0.5984  0.2355
 4987TIP3    H236377   3.487   6.317  13.702 -0.5770 -0.4114 -2.4680
 4988TIP3   OH236378   0.560   1.069   2.878 -0.3494  0.1129  0.4387
 4988TIP3    H136379   0.631   1.023   2.833 -0.8944  1.2743 -1.7595
 4988TIP3    H236380   0.596   1.090   2.964  0.9032 -1.8465  0.4568
 4989TIP3   OH236381   5.419   5.495  10.917  0.9355  0.5771  0.1915
 4989TIP3    H136382   5.440   5.588  10.905  1.0578  0.4057 -1.0583
 4989TIP3    H236383   5.472   5.450  10.852 -0.8417 -0.1559 -0.8236
 4990TIP3   OH236384   3.057   1.935   6.547 -0.3308  0.5159  0.1472
 4990TIP3    H136385   3.000   1.956   6.473 -0.1888 -0.3567 -0.2292
 4990TIP3    H236386   3.117   2.010   6.554  1.1790 -0.3510 -2.1353
 4991TIP3   OH236387   2.107   4.227  13.113 -0.8916  0.3666  0.0588
 4991TIP3    H136388   2.200   4.211  13.126 -0.8975  0.2487 -0.0493
 4991TIP3    H236389   2.093   4.315  13.149 -0.4046  1.0928 -1.4439
 4992TIP3   OH236390   1.111   1.870  12.087  0.0616  0.1657 -0.3266
 4992TIP3    H136391   1.037   1.820  12.121  0.5510 -0.2676  0.1372
 4992TIP3    H236392   1.134   1.826  12.005  0.5573 -0.4618  0.1314
 4993TIP3   OH236393   5.655   0.012  13.724  0.5056  0.1979 -0.4309
 4993TIP3    H136394   5.646  -0.082  13.737 -0.0297  0.0177 -1.9622
 4993TIP3    H236395   5.651   0.049  13.813 -2.1082 -0.9961  0.0484
 4994TIP3   OH236396   4.197   6.044  16.109  0.1138 -0.2289  0.1940
 4994TIP3    H136397   4.229   5.999  16.031  1.4110 -0.5390  0.8630
 4994TIP3    H236398   4.107   6.067  16.089 -0.1529 -1.8998 -0.7200
 4995TIP3   OH236399   1.740   2.633  14.915  0.9004 -0.1845 -0.0532
 4995TIP3    H136400   1.823   2.588  14.902  0.1224 -1.3908 -1.0457
 4995TIP3    H236401   1.711   2.606  15.002  0.5631 -1.4341 -0.5374
 4996TIP3   OH236402   3.673   0.653  15.283 -0.0690  0.2213 -0.0144
 4996TIP3    H136403   3.583   0.625  15.271 -0.3770  0.0994  2.1873
 4996TIP3    H236404   3.674   0.695  15.368  2.0550 -0.1884  0.2170
 4997TIP3   OH236405   6.542   0.691   3.511  0.6834 -0.2794  1.0594
 4997TIP3    H136406   6.609   0.731   3.454  1.3783 -0.6316  1.6164
 4997TIP3    H236407   6.584   0.687   3.597  0.5631 -2.0338  1.0606
 4998TIP3   OH236408   1.423   0.439   3.763 -0.0025  0.2902  0.4002
 4998TIP3    H136409   1.461   0.391   3.689  0.6930  0.3686  0.7030
 4998TIP3    H236410   1.477   0.517   3.772 -2.8125  2.7513 -1.9300
 4999TIP3   OH236411   3.456   1.516  16.585 -0.1851  0.1486 -0.8135
 4999TIP3    H136412   3.494   1.448  16.531 -0.6010  0.2038 -1.1819
 4999TIP3    H236413   3.429   1.471  16.665  1.1809  0.2163 -0.2822
 5000TIP3   OH236414   0.746   6.280  12.884  0.0703 -0.0073 -0.6240
 5000TIP3    H136415   0.786   6.330  12.955  0.3035 -0.9717 -0.0718
 5000TIP3    H236416   0.799   6.301  12.807 -0.0887  0.9135 -0.4915
 5001TIP3   OH236417   4.916   6.371  17.021 -0.1716 -0.3602  0.4298
 5001TIP3    H136418   4.836   6.421  17.040  1.2335  2.7028 -1.1140
 5001TIP3    H236419   4.896   6.323  16.941 -1.0311 -1.1171  1.0730
 5002TIP3   OH236420   2.850   4.236   4.353  0.3234  0.5598  0.2494
 5002TIP3    H136421   2.940   4.206   4.361  0.3521  0.9254  1.5015
 5002TIP3    H236422   2.797   4.161   4.381  0.0592 -0.5902 -2.9145
 5003TIP3   OH236423   1.152   2.069  14.487  0.4792 -0.2146 -0.3073
 5003TIP3    H136424   1.227   2.029  14.442 -0.1205  0.6000 -2.1314
 5003TIP3    H236425   1.077   2.014  14.462 -0.0538  0.9389 -1.3497
 5004TIP3   OH236426   3.960   6.664   3.324  0.7486  0.0266 -0.0602
 5004TIP3    H136427   3.968   6.585   3.269  1.0167  0.4163 -0.5966
 5004TIP3    H236428   3.866   6.680   3.330  0.6949 -0.3159  0.0241
 5005TIP3   OH236429   5.282   5.171  17.032  0.0035  0.0441  0.2600
 5005TIP3    H136430   5.300   5.254  17.074 -0.0247  0.3942 -0.4083
 5005TIP3    H236431   5.361   5.151  16.981 -1.3262  1.5324 -2.5845
 5006TIP3   OH236432   6.281   0.140  13.950 -0.6546  0.0601  0.2523
 5006TIP3    H136433   6.309   0.175  13.865 -1.7510 -0.0233 -0.1626
 5006TIP3    H236434   6.234   0.060  13.928  2.3057 -2.1404  1.2064
 5007TIP3   OH236435   3.513   5.861  12.908  0.3097 -0.9147  0.3222
 5007TIP3    H136436   3.438   5.809  12.935 -0.3831  0.0350  0.2836
 5007TIP3    H236437   3.547   5.817  12.830 -0.6215 -0.9860 -0.0572
 5008TIP3   OH236438   1.701   1.464   3.784 -0.0826  0.5677 -0.2690
 5008TIP3    H136439   1.747   1.380   3.785 -0.5461  0.2755  1.9454
 5008TIP3    H236440   1.753   1.519   3.725  1.5395 -0.5544  0.0329
 5009TIP3   OH236441   2.252   1.428  16.644 -0.1065 -0.3223  0.6337
 5009TIP3    H136442   2.163   1.412  16.612  0.3063 -2.7579  0.4979
 5009TIP3    H236443   2.305   1.432  16.564 -0.2160  2.7599  0.5988
 5010TIP3   OH236444   5.116   6.515  15.870  0.3409 -0.6992  0.3302
 5010TIP3    H136445   5.171   6.457  15.817 -0.2965  0.2865 -1.4679
 5010TIP3    H236446   5.038   6.531  15.817  0.5396  1.8988  0.6814
 5011TIP3   OH236447   3.067   5.930  11.118 -0.1996  0.0013 -0.9069
 5011TIP3    H136448   3.051   6.024  11.128  1.0599  0.2636 -1.2281
 5011TIP3    H236449   3.137   5.924  11.053  0.3075 -1.1211 -0.2864
 5012TIP3   OH236450   6.122   4.976   3.535  0.4652  0.2759 -0.0663
 5012TIP3    H136451   6.154   5.065   3.524  0.9983  0.5461  2.7844
 5012TIP3    H236452   6.181   4.937   3.601 -0.4021 -1.8273 -0.4381
 5013TIP3   OH236453   1.360   3.985  12.243 -0.5008  0.3079  0.2247
 5013TIP3    H136454   1.388   4.063  12.196 -0.2018 -0.7163 -1.3536
 5013TIP3    H236455   1.297   3.942  12.185 -0.0715 -1.0394  0.7075
 5014TIP3   OH236456   1.054   0.571  15.557  0.5766 -0.4927 -0.3531
 5014TIP3    H136457   1.026   0.636  15.493 -2.2574 -0.6746  0.5350
 5014TIP3    H236458   1.016   0.489  15.524  0.1560 -0.8072  0.8898
 5015TIP3   OH236459   3.495   1.077  11.882 -0.4380  0.1397 -0.3984
 5015TIP3    H136460   3.552   1.021  11.830  0.2581 -0.3579  0.8673
 5015TIP3    H236461   3.537   1.163  11.879 -0.2337  0.0399 -0.3956
 5016TIP3   OH236462   6.400   4.024  14.783 -0.2243 -0.0748 -0.6299
 5016TIP3    H136463   6.387   4.056  14.872 -0.6230 -0.6167 -0.4853
 5016TIP3    H236464   6.475   3.965  14.789 -0.7903 -0.7915 -0.4707
 5017TIP3   OH236465   0.634   2.512  11.531  0.0795  0.1095 -0.6951
 5017TIP3    H136466   0.690   2.458  11.588 -0.4066 -0.9823 -1.2289
 5017TIP3    H236467   0.696   2.572  11.489  0.6069  0.1330  0.0858
 5018TIP3   OH236468   5.291   6.681  14.030 -0.0892  0.1744  0.3311
 5018TIP3    H136469   5.303   6.758  13.974 -0.1888 -1.2837 -1.7658
 5018TIP3    H236470   5.207   6.698  14.074  0.8006  2.1167  1.4049
 5019TIP3   OH236471   5.734   3.842   2.033  0.5913 -0.1514  0.2125
 5019TIP3    H136472   5.708   3.802   1.951 -0.2269  2.6905 -1.0448
 5019TIP3    H236473   5.652   3.871   2.074  1.0988 -0.0346  1.1875
 5020TIP3   OH236474   3.876   0.150   4.279 -0.1733 -0.4944 -0.3216
 5020TIP3    H136475   3.886   0.102   4.360 -0.1231  0.4077  0.2246
 5020TIP3    H236476   3.846   0.237   4.306  0.8702  0.1559 -1.1774
 5021TIP3   OH236477   5.107   5.616  14.593  0.3342 -0.0109  0.3099
 5021TIP3    H136478   5.039   5.549  14.598  0.1195  0.2677  1.2259
 5021TIP3    H236479   5.137   5.627  14.683 -0.2459  1.7307  0.3350
 5022TIP3   OH236480   5.769   5.898  15.587 -0.0539 -0.3230  0.3294
 5022TIP3    H136481   5.844   5.878  15.643  0.1692 -0.2598  0.0530
 5022TIP3    H236482   5.717   5.817  15.587 -0.5027 -0.0531  1.3149
 5023TIP3   OH236483   2.169   2.827   4.351 -0.0492 -0.1169 -0.2148
 5023TIP3    H136484   2.120   2.860   4.276  0.2006 -1.2662 -0.9043
 5023TIP3    H236485   2.122   2.749   4.379  0.5745 -0.4225  0.0093
 5024TIP3   OH236486   3.629   2.620   5.187  0.5313  0.2311  0.4725
 5024TIP3    H136487   3.559   2.571   5.145  1.3517 -0.8953  0.3843
 5024TIP3    H236488   3.598   2.635   5.276  0.3772 -0.6980  0.5815
 5025TIP3   OH236489   5.500   5.614   0.399  0.2345 -0.2972  0.2080
 5025TIP3    H136490   5.446   5.598   0.477  0.6376 -1.5204  0.2617
 5025TIP3    H236491   5.496   5.708   0.386  0.2597 -0.0454  1.8017
 5026TIP3   OH236492   1.041   3.974  15.016  0.9857  0.0401 -0.2013
 5026TIP3    H136493   1.114   3.914  15.031  1.6786  0.3664 -2.0611
 5026TIP3    H236494   1.030   4.020  15.099  2.8263 -0.0964  0.1494
 5027TIP3   OH236495   2.093   4.347  14.580  0.2216  0.4307  0.0274
 5027TIP3    H136496   2.090   4.427  14.633  0.7781  0.3786  0.1439
 5027TIP3    H236497   2.180   4.311  14.596 -1.6661 -3.1687  4.3713
 5028TIP3   OH236498   2.285   6.727  11.692  0.0630  0.3935  0.6659
 5028TIP3    H136499   2.236   6.794  11.644  0.1114  0.2025  0.3476
 5028TIP3    H236500   2.376   6.750  11.678  0.1359 -0.6784 -0.8314
 5029TIP3   OH236501   1.898   1.656   1.468  0.0046  0.1576 -0.2512
 5029TIP3    H136502   1.890   1.563   1.449 -1.3022 -0.0318  1.0920
 5029TIP3    H236503   1.992   1.669   1.481  0.0952 -1.2504  0.7894
 5030TIP3   OH236504   0.699   5.177  11.593 -0.2287 -0.2590 -0.3177
 5030TIP3    H136505   0.710   5.091  11.552 -1.7096 -0.5602 -0.1560
 5030TIP3    H236506   0.770   5.183  11.656  0.2623 -1.0996 -0.7676
 5031TIP3   OH236507   0.345   1.473  11.607 -0.1032 -0.1989  0.4715
 5031TIP3    H136508   0.285   1.515  11.545  1.1850  0.3252 -0.4733
 5031TIP3    H236509   0.305   1.486  11.693 -1.1134  0.5102 -0.0898
 5032TIP3   OH236510   6.534   5.283   2.203  0.3788 -0.0102  0.1153
 5032TIP3    H136511   6.568   5.201   2.238 -0.7836  0.7456  3.4254
 5032TIP3    H236512   6.609   5.343   2.207  0.9651 -0.5954 -1.3731
 5033TIP3   OH236513   6.476   1.772   3.815  0.2526  0.3021  0.0412
 5033TIP3    H136514   6.558   1.820   3.801  0.4564 -0.2862 -0.9232
 5033TIP3    H236515   6.452   1.791   3.905  0.8298  1.4378 -0.0194
 5034TIP3   OH236516   6.431   2.035   3.700  0.6882 -0.7069 -0.0444
 5034TIP3    H136517   6.378   1.957   3.717  0.6012 -0.7102 -0.3199
 5034TIP3    H236518   6.461   2.063   3.787 -0.1723 -0.4210  0.1723
 5035TIP3   OH236519   5.063   0.717  17.024  0.4333 -0.2061 -0.1845
 5035TIP3    H136520   5.137   0.778  17.015  0.1689  0.3110  1.0035
 5035TIP3    H236521   5.075   0.679  17.111 -1.4309  0.8923  0.6042
 5036TIP3   OH236522   0.954   5.238  12.107  0.1825  0.2393  0.1625
 5036TIP3    H136523   0.972   5.150  12.075 -2.5695  0.4131 -2.3435
 5036TIP3    H236524   0.877   5.229  12.164  1.7615  0.7004  2.5012
 5037TIP3   OH236525   3.442   0.323  14.228 -0.0998  0.1808  0.2941
 5037TIP3    H136526   3.455   0.410  14.189 -0.9283  0.4870  0.6608
 5037TIP3    H236527   3.373   0.337  14.294 -3.1779 -1.4671 -2.3086
 5038TIP3   OH236528   3.517   2.216  11.375 -0.1812  0.1083  0.0999
 5038TIP3    H136529   3.459   2.227  11.301 -0.4394  1.5684  0.4980
 5038TIP3    H236530   3.546   2.304  11.397  0.0261 -0.3022  1.6184
 5039TIP3   OH236531   6.272   4.010  16.408  0.4113 -0.1842  0.8392
 5039TIP3    H136532   6.225   3.928  16.419 -0.2197 -0.1089 -0.9048
 5039TIP3    H236533   6.210   4.066  16.361  2.1850 -0.0667 -1.5336
 5040TIP3   OH236534   1.642   0.664  15.087  0.1463  0.4317 -0.6970
 5040TIP3    H136535   1.586   0.719  15.032 -0.3443 -1.7195 -2.5093
 5040TIP3    H236536   1.593   0.583  15.097  1.9003 -0.6129 -0.2561
 5041TIP3   OH236537   4.510   1.407   1.945 -0.6400  0.2191  0.5558
 5041TIP3    H136538   4.454   1.344   1.990 -0.8102  0.5654  0.8418
 5041TIP3    H236539   4.467   1.422   1.861  0.9177 -2.2126 -0.7630
 5042TIP3   OH236540   2.715   0.687  14.663  0.1021  0.2298 -0.1044
 5042TIP3    H136541   2.689   0.595  14.666  0.3616  0.1653  0.3683
 5042TIP3    H236542   2.633   0.735  14.662 -0.1079  0.0627  2.5560
 5043TIP3   OH236543   5.428   5.597  16.992 -0.1213  0.3892 -0.1091
 5043TIP3    H136544   5.336   5.572  17.003 -0.0375 -0.5005 -1.2638
 5043TIP3    H236545   5.466   5.529  16.937  1.1481  0.9460  0.0255
 5044TIP3   OH236546   2.030   0.640  17.137 -0.4094  0.5040 -0.3392
 5044TIP3    H136547   2.030   0.736  17.135 -0.0449  0.6007  1.8751
 5044TIP3    H236548   1.958   0.618  17.197 -0.0738 -0.5827 -0.3264
 5045TIP3   OH236549   6.395   1.176   2.818  0.0287 -0.3605  0.0143
 5045TIP3    H136550   6.386   1.256   2.869 -0.4600 -0.7362  0.5300
 5045TIP3    H236551   6.481   1.141   2.842 -0.2539 -0.6070  0.7046
 5046TIP3   OH236552   2.525   2.181   5.728  0.3439  0.3298 -0.4819
 5046TIP3    H136553   2.591   2.115   5.706 -1.1549 -1.1271 -0.8229
 5046TIP3    H236554   2.542   2.204   5.819  1.9406  0.7798 -0.8632
 5047TIP3   OH236555   2.008   4.968  12.377  0.1608  0.2937  0.2148
 5047TIP3    H136556   1.962   4.931  12.302  1.2667  0.8475 -0.7706
 5047TIP3    H236557   1.985   4.910  12.450 -3.5416  1.5546  0.2451
 5048TIP3   OH236558   1.880   4.336   0.458  0.1111 -0.4079 -0.2019
 5048TIP3    H136559   1.850   4.261   0.406  3.4472 -1.4693 -0.8448
 5048TIP3    H236560   1.862   4.311   0.548  0.2322 -1.5667 -0.4715
 5049TIP3   OH236561   5.027   4.987   5.544 -0.2215 -0.5141  0.2130
 5049TIP3    H136562   4.994   4.966   5.632  1.2820  1.1853  1.2520
 5049TIP3    H236563   4.954   5.032   5.501  0.3900  2.8641  2.3417
 5050TIP3   OH236564   0.126   3.706  11.432  0.1671  0.1114  0.1369
 5050TIP3    H136565   0.149   3.693  11.340  0.0277  1.8392 -0.1752
 5050TIP3    H236566   0.187   3.773  11.463 -0.8734  0.7836  0.8103
 5051TIP3   OH236567   2.565   0.311   1.232  0.6014 -0.3181  0.2366
 5051TIP3    H136568   2.624   0.318   1.307 -0.3053 -1.0312  1.0425
 5051TIP3    H236569   2.620   0.277   1.162  1.4628  0.3565  0.5637
 5052TIP3   OH236570   0.670   3.730  14.997 -0.1894  0.2346 -0.4221
 5052TIP3    H136571   0.704   3.762  15.080 -0.6246 -0.3186 -0.0263
 5052TIP3    H236572   0.617   3.802  14.963 -0.0798  0.4312 -0.1742
 5053TIP3   OH236573   5.034   1.614  15.818  0.5405  0.2939 -0.2216
 5053TIP3    H136574   5.052   1.560  15.895 -0.1530  2.3347  1.4840
 5053TIP3    H236575   5.012   1.551  15.749  0.3300 -1.5977  1.4677
 5054TIP3   OH236576   2.474   4.558  16.600 -0.2372 -0.5267 -0.2840
 5054TIP3    H136577   2.555   4.604  16.576 -0.7815  1.4604  1.3863
 5054TIP3    H236578   2.475   4.478  16.547  2.7760 -0.5501 -0.3800
 5055TIP3   OH236579   4.951   3.246   2.245 -0.1127  0.2350  0.7988
 5055TIP3    H136580   4.859   3.222   2.231 -0.4666  1.4470  0.8804
 5055TIP3    H236581   4.977   3.197   2.323 -0.5442 -0.4920  0.4928
 5056TIP3   OH236582   6.750   1.780  12.663 -0.3826 -0.4581 -0.1189
 5056TIP3    H136583   6.786   1.771  12.574 -0.1829 -0.5784 -0.0264
 5056TIP3    H236584   6.818   1.826  12.712 -1.3791  1.6168 -0.5784
 5057TIP3   OH236585   5.753   2.156  12.685  0.2299  0.4684 -0.3429
 5057TIP3    H136586   5.756   2.066  12.653 -1.3238  0.6279 -1.0056
 5057TIP3    H236587   5.704   2.151  12.767 -0.1559  0.7399 -0.5510
 5058TIP3   OH236588   1.044   4.072  13.405 -0.0289  0.3313  0.2065
 5058TIP3    H136589   0.980   4.015  13.363  2.2340 -1.6641 -0.7056
 5058TIP3    H236590   1.030   4.059  13.499  0.0645 -1.3210  0.0104
 5059TIP3   OH236591   1.858   6.009   0.812 -0.7546  0.6987  0.0891
 5059TIP3    H136592   1.871   6.090   0.762 -0.0215  0.9942  0.7315
 5059TIP3    H236593   1.929   6.009   0.876  2.1252 -2.7290 -2.7159
 5060TIP3   OH236594   2.892   2.438  16.189  0.7699 -0.2640  0.0650
 5060TIP3    H136595   2.839   2.366  16.224 -1.2464  1.8360  1.6097
 5060TIP3    H236596   2.969   2.440  16.247 -1.0860  1.2459  2.6672
 5061TIP3   OH236597   3.955   6.552  13.181  0.5015 -0.0834  1.0115
 5061TIP3    H136598   4.023   6.531  13.244  0.6108 -0.3739  0.7997
 5061TIP3    H236599   3.907   6.625  13.220  1.3925  0.6181  0.8328
 5062TIP3   OH236600   1.959   6.614  12.194 -0.2425  0.1933  0.2161
 5062TIP3    H136601   2.035   6.592  12.248 -0.5669  0.2472  0.6995
 5062TIP3    H236602   1.952   6.709  12.200 -1.3046  0.0482  1.4827
 5063TIP3   OH236603   3.005   3.742   2.427 -0.1827  0.5470 -0.1640
 5063TIP3    H136604   3.071   3.703   2.369 -0.4574  0.6015 -0.5199
 5063TIP3    H236605   3.029   3.834   2.432 -1.4085  1.0431 -2.0059
 5064TIP3   OH236606   1.463   1.790   2.158 -0.3132  0.2017 -0.3385
 5064TIP3    H136607   1.367   1.789   2.163 -0.4170  2.8748 -0.7475
 5064TIP3    H236608   1.482   1.812   2.067  0.5124  3.8813  0.5665
 5065TIP3   OH236609   6.115   4.244   5.519 -0.0770  0.5458 -0.4943
 5065TIP3    H136610   6.105   4.153   5.491  1.0133  0.1227  0.4463
 5065TIP3    H236611   6.073   4.247   5.606 -0.1069  0.9462 -0.5195
 5066TIP3   OH236612   4.340   5.950  13.701  0.1463  0.4242 -0.0049
 5066TIP3    H136613   4.434   5.945  13.717 -0.0494 -0.2132  1.0462
 5066TIP3    H236614   4.305   6.000  13.775 -0.2093  1.6866 -1.0041
 5067TIP3   OH236615   1.767   0.970   0.980 -0.1123 -0.5460 -0.4335
 5067TIP3    H136616   1.771   0.999   1.071  0.9507 -1.6303 -0.1048
 5067TIP3    H236617   1.857   0.981   0.948 -0.2915 -0.9522 -1.0963
 5068TIP3   OH236618   3.810   1.663  12.550 -0.3946 -0.2971  0.0402
 5068TIP3    H136619   3.814   1.577  12.509  0.0002  0.4584 -1.5640
 5068TIP3    H236620   3.717   1.677  12.568 -0.4410 -1.1251  0.5077
 5069TIP3   OH236621   2.998   3.653  16.132 -0.5536 -0.6060 -0.1146
 5069TIP3    H136622   3.047   3.679  16.210  0.1552 -0.5016 -0.5829
 5069TIP3    H236623   2.924   3.713  16.129 -1.4973 -1.6158  1.3482
 5070TIP3   OH236624   3.338   0.854  13.245 -0.6806  0.2939 -0.1150
 5070TIP3    H136625   3.276   0.785  13.221 -1.1207  0.4912  0.4317
 5070TIP3    H236626   3.344   0.909  13.167  0.8185 -1.1625 -1.1042
 5071TIP3   OH236627   6.479   1.517  15.680  0.0983 -0.1890 -0.1950
 5071TIP3    H136628   6.412   1.449  15.686 -0.4135  0.1129 -1.8202
 5071TIP3    H236629   6.482   1.556  15.768 -0.7194 -1.2492  0.3261
 5072TIP3   OH236630   4.560   3.502   3.772 -0.0262  0.6942 -0.3126
 5072TIP3    H136631   4.514   3.459   3.844  2.0625  1.0289  1.3587
 5072TIP3    H236632   4.558   3.439   3.700  0.1692 -0.8480  0.9787
 5073TIP3   OH236633   5.863   4.550  14.775  0.1741 -0.4415  0.3621
 5073TIP3    H136634   5.829   4.632  14.740 -0.3875 -0.6546  0.3881
 5073TIP3    H236635   5.958   4.561  14.777  0.1810 -0.2162 -0.6939
 5074TIP3   OH236636   2.591   1.959   3.219 -0.2258 -0.4041  0.1966
 5074TIP3    H136637   2.616   2.031   3.277 -1.0425  0.8520 -0.9507
 5074TIP3    H236638   2.640   1.884   3.252  0.9259  0.7479  1.2225
 5075TIP3   OH236639   4.759   5.321  13.110 -0.7904  0.4201  0.4025
 5075TIP3    H136640   4.678   5.330  13.161 -0.8682  4.1466 -0.1492
 5075TIP3    H236641   4.751   5.386  13.041  2.6726  0.8600  0.2891
 5076TIP3   OH236642   6.329   5.468  12.566 -0.4027 -0.6859 -0.3160
 5076TIP3    H136643   6.327   5.442  12.658  3.3123 -1.2524 -0.2358
 5076TIP3    H236644   6.241   5.500  12.548 -1.1418 -0.0023  3.5911
 5077TIP3   OH236645   1.160   3.676  16.538 -0.1121 -0.1145 -0.1787
 5077TIP3    H136646   1.182   3.634  16.621  0.6839 -0.8864 -0.7615
 5077TIP3    H236647   1.161   3.605  16.474  1.6904  0.8206 -1.2766
 5078TIP3   OH236648   1.609   3.658  15.463  0.1905 -0.4400 -0.3326
 5078TIP3    H136649   1.550   3.732  15.456  1.4960  0.6360 -0.4746
 5078TIP3    H236650   1.664   3.664  15.385  1.4072 -0.5424  0.4845
 5079TIP3   OH236651   2.187   5.729   5.611  0.1966  0.2600  1.1360
 5079TIP3    H136652   2.170   5.711   5.703  0.6188 -2.0879  0.8141
 5079TIP3    H236653   2.176   5.645   5.567  0.0376  1.3048 -0.9685
 5080TIP3   OH236654   5.824   0.373   1.386 -0.6627 -0.0439  0.0425
 5080TIP3    H136655   5.747   0.329   1.349  0.5380 -0.6198 -1.9359
 5080TIP3    H236656   5.898   0.318   1.360  0.4965  0.8508  1.3018
 5081TIP3   OH236657   5.442   6.012   3.467  0.0572  0.2504  0.2857
 5081TIP3    H136658   5.435   5.927   3.510  1.6487 -0.3863 -0.6065
 5081TIP3    H236659   5.536   6.028   3.463 -0.1500  1.2393 -1.0990
 5082TIP3   OH236660   5.910   3.730  11.140  0.0013  0.0511  0.1557
 5082TIP3    H136661   5.862   3.649  11.124 -0.7087  0.6507 -0.8614
 5082TIP3    H236662   5.844   3.799  11.135  0.5736  0.6940  1.1422
 5083TIP3   OH236663   1.650   5.478   5.284  0.0240  0.1354 -0.2167
 5083TIP3    H136664   1.705   5.400   5.283  0.7053  0.6032 -0.4109
 5083TIP3    H236665   1.588   5.464   5.213  2.0924  1.0836 -2.3680
 5084TIP3   OH236666   0.727   2.528   4.951  0.0436  0.8708  0.0748
 5084TIP3    H136667   0.661   2.587   4.988  0.3411  1.6785 -0.6490
 5084TIP3    H236668   0.785   2.585   4.901  1.6368  0.2596  1.1284
 5085TIP3   OH236669   5.240   2.961   5.275  0.2455  0.0017 -0.0850
 5085TIP3    H136670   5.323   2.946   5.320  0.6636 -1.0081 -1.1772
 5085TIP3    H236671   5.175   2.964   5.346  1.2760  1.6402  0.8555
 5086TIP3   OH236672   2.462   5.875   1.304 -0.3644 -0.4376 -0.1219
 5086TIP3    H136673   2.388   5.895   1.246 -1.3273  0.6464  1.4335
 5086TIP3    H236674   2.536   5.861   1.244 -0.9635  2.1074 -1.5706
 5087TIP3   OH236675   4.405   3.820  16.312  0.5343 -0.5546 -0.1362
 5087TIP3    H136676   4.478   3.869  16.273 -0.0667  0.3379 -0.1538
 5087TIP3    H236677   4.424   3.819  16.406  1.1635 -1.3443 -0.2549
 5088TIP3   OH236678   3.526   5.249   6.265  0.5312  0.6699  0.7563
 5088TIP3    H136679   3.437   5.230   6.237  0.7760 -1.3213  1.1638
 5088TIP3    H236680   3.546   5.335   6.228 -1.6808  1.3342  1.0074
 5089TIP3   OH236681   1.210   0.892  15.678  0.0721  0.2111  0.0438
 5089TIP3    H136682   1.115   0.881  15.679 -0.4906  3.0487 -3.0878
 5089TIP3    H236683   1.232   0.924  15.765 -1.9354  0.1810  0.6037
 5090TIP3   OH236684   4.423   0.004  11.396 -0.4963  0.8328  0.1205
 5090TIP3    H136685   4.368  -0.071  11.422  0.7791  0.4562  1.9018
 5090TIP3    H236686   4.507  -0.012  11.439  0.5003  2.2244 -1.2217
 5091TIP3   OH236687   4.393   2.295  14.347 -0.5466  0.4705 -0.3351
 5091TIP3    H136688   4.401   2.313  14.440 -0.4353  0.6033 -0.3681
 5091TIP3    H236689   4.300   2.303  14.328 -0.5827  0.3340 -0.2135
 5092TIP3   OH236690   3.535   2.873  16.927  0.6579 -0.3852 -0.4900
 5092TIP3    H136691   3.606   2.815  16.900 -0.7514 -1.5959 -1.8101
 5092TIP3    H236692   3.516   2.926  16.849 -0.4161 -0.6786 -0.4458
 5093TIP3   OH236693   5.871   2.216   2.020  0.3023 -0.1405  0.1435
 5093TIP3    H136694   5.959   2.204   1.985  0.3897 -1.5508  0.7400
 5093TIP3    H236695   5.816   2.156   1.969 -0.0805 -0.1644  0.5714
 5094TIP3   OH236696   1.656   0.009  12.911  0.0254 -0.0861 -1.1175
 5094TIP3    H136697   1.635  -0.011  12.820  2.0557 -3.4656 -0.9920
 5094TIP3    H236698   1.590  -0.038  12.962  0.8866 -1.0494 -0.8578
 5095TIP3   OH236699   5.291   0.463   1.938  0.2298 -0.6293  0.0814
 5095TIP3    H136700   5.385   0.450   1.950  0.4384 -0.5173 -1.2404
 5095TIP3    H236701   5.263   0.509   2.017  1.4771  0.2094  0.0738
 5096TIP3   OH236702   0.888   1.526   4.246  0.1281  0.1877 -0.0973
 5096TIP3    H136703   0.881   1.595   4.181 -2.1527 -0.6642 -0.8672
 5096TIP3    H236704   0.798   1.496   4.260  0.9428 -2.2269  0.6113
 5097TIP3   OH236705   6.548   5.756   0.671 -0.1590  0.6979 -0.0791
 5097TIP3    H136706   6.534   5.744   0.577  1.6880  0.2718 -0.3555
 5097TIP3    H236707   6.461   5.754   0.709 -0.8376 -0.9354 -1.5892
 5098TIP3   OH236708   6.529   5.635   2.370  0.4985 -0.3964  0.4159
 5098TIP3    H136709   6.576   5.599   2.295  0.2808  0.2290 -0.0328
 5098TIP3    H236710   6.493   5.559   2.416  0.5811 -0.7804 -0.1533
 5099TIP3   OH236711   0.031   4.081   2.616  0.0837  0.1353  0.6130
 5099TIP3    H136712   0.020   4.064   2.709 -3.3948  0.9071  0.4691
 5099TIP3    H236713  -0.042   4.036   2.574  2.5197 -1.7443 -2.0575
 5100TIP3   OH236714   6.379   5.756  13.973  0.0561  0.2040 -0.1664
 5100TIP3    H136715   6.407   5.840  14.008  2.5423 -1.9481  3.7245
 5100TIP3    H236716   6.331   5.714  14.045 -0.3197 -2.0507 -1.6194
 5101TIP3   OH236717   1.494   0.087  11.316  0.4754 -0.1104 -0.0265
 5101TIP3    H136718   1.450   0.010  11.352 -0.0913  0.7730  1.2832
 5101TIP3    H236719   1.488   0.076  11.221 -1.0659 -0.8733  0.1249
 5102TIP3   OH236720   6.704   4.118  14.150  0.2608  0.3587  0.2981
 5102TIP3    H136721   6.682   4.152  14.237  0.8190 -0.3491  0.7348
 5102TIP3    H236722   6.735   4.028  14.167  0.5664  0.2850 -0.6053
 5103TIP3   OH236723   3.108   4.057   2.506  0.7830  0.1602 -0.3429
 5103TIP3    H136724   3.128   4.147   2.478  2.0659  0.3444  1.0594
 5103TIP3    H236725   3.149   4.049   2.592 -0.3944 -1.3788  0.1177
 5104TIP3   OH236726   0.727   1.755   1.206  0.1824  0.0943  0.7925
 5104TIP3    H136727   0.774   1.834   1.234  1.0043 -0.8076  2.0640
 5104TIP3    H236728   0.635   1.780   1.208  0.4514  1.1388  0.7779
 5105TIP3   OH236729   0.822   4.409  12.944 -0.0000 -0.4894 -0.7109
 5105TIP3    H136730   0.820   4.329  12.891  0.6386 -1.5115  0.7464
 5105TIP3    H236731   0.907   4.449  12.923 -0.3410 -0.1401 -1.4768
 5106TIP3   OH236732   1.342   1.005   0.929 -0.5327  0.5637  0.2413
 5106TIP3    H136733   1.282   1.074   0.901 -1.3229  0.7037  2.1411
 5106TIP3    H236734   1.287   0.927   0.936  0.2750 -0.2376 -1.5037
 5107TIP3   OH236735   5.357   4.027   5.239 -0.4222 -0.5038  0.0739
 5107TIP3    H136736   5.315   4.089   5.179 -0.4224  1.0686  1.6187
 5107TIP3    H236737   5.396   3.961   5.181 -1.6618  0.1267 -1.5731
 5108TIP3   OH236738   3.933   0.324   1.229 -0.3397  0.7846  0.1270
 5108TIP3    H136739   3.841   0.329   1.203 -0.1983 -0.6495 -0.7491
 5108TIP3    H236740   3.930   0.299   1.321 -0.8287 -0.0970 -0.1180
 5109TIP3   OH236741   6.210   2.734  11.856 -0.8048 -0.3932  0.5181
 5109TIP3    H136742   6.209   2.755  11.763  0.3394  1.6117  0.9067
 5109TIP3    H236743   6.120   2.709  11.876 -2.0737  2.9677 -0.3728
 5110TIP3   OH236744   3.841   0.909   6.669  0.1661  0.4545 -0.3782
 5110TIP3    H136745   3.833   0.814   6.658 -0.4959  0.3141  1.0355
 5110TIP3    H236746   3.750   0.940   6.669  0.4055  1.3848 -2.8016
 5111TIP3   OH236747   1.381   6.568   5.950 -0.3013  0.0978 -0.5711
 5111TIP3    H136748   1.317   6.520   5.897  0.5372  0.1663 -1.6926
 5111TIP3    H236749   1.464   6.522   5.935  0.1963  0.8851 -0.3350
 5112TIP3   OH236750   1.214   1.133  13.569 -0.0133 -0.0465 -0.5660
 5112TIP3    H136751   1.224   1.158  13.661  0.7807 -1.1495 -0.3386
 5112TIP3    H236752   1.261   1.201  13.521 -0.0689  0.3020 -0.1336
 5113TIP3   OH236753   2.274   5.353   2.652 -0.0532  0.1775 -0.5029
 5113TIP3    H136754   2.340   5.420   2.635  1.4145 -0.5236  1.9883
 5113TIP3    H236755   2.317   5.271   2.629  0.6134 -0.4265  2.5211
 5114TIP3   OH236756   6.511   5.378  16.678  0.1310 -0.6839 -0.1969
 5114TIP3    H136757   6.554   5.308  16.727 -0.2270 -0.6849  0.1203
 5114TIP3    H236758   6.461   5.427  16.744  0.4613 -0.0597 -0.3959
 5115TIP3   OH236759   5.850   5.095  16.933 -0.4019  0.0352  0.1285
 5115TIP3    H136760   5.850   5.078  17.027 -0.4089 -1.7845 -0.1652
 5115TIP3    H236761   5.865   5.189  16.925 -0.5717  0.2390  1.9479
 5116TIP3   OH236762   5.529   5.706  15.409  0.3154  0.1562  0.7337
 5116TIP3    H136763   5.435   5.713  15.424 -0.0979 -1.8505 -0.3886
 5116TIP3    H236764   5.550   5.782  15.355 -0.2942  1.5019  2.3003
 5117TIP3   OH236765   3.883   3.104  12.178 -0.3581 -0.2728  0.3291
 5117TIP3    H136766   3.847   3.182  12.136  0.1873  0.1716  0.6755
 5117TIP3    H236767   3.886   3.126  12.271  1.9583  0.2085  0.1936
 5118TIP3   OH236768   5.557   3.353   2.348 -0.1006  0.3014  0.2713
 5118TIP3    H136769   5.474   3.331   2.305 -0.0975  0.2630  0.2844
 5118TIP3    H236770   5.563   3.448   2.341  0.6461  0.1654 -1.1807
 5119TIP3   OH236771   1.225   1.829  14.290 -0.0629 -0.4414 -0.3928
 5119TIP3    H136772   1.198   1.792  14.374  0.7581 -0.7141 -0.2367
 5119TIP3    H236773   1.143   1.844  14.242 -0.4884 -1.0981  0.1178
 5120TIP3   OH236774   0.689   5.069   4.151  0.5161  0.0408  0.1152
 5120TIP3    H136775   0.763   5.049   4.208 -0.3667  0.2520  1.3770
 5120TIP3    H236776   0.650   4.984   4.131  1.4285 -0.1263 -1.0493
 5121TIP3   OH236777   1.170   2.246   1.020  0.0978 -0.2040 -0.4705
 5121TIP3    H136778   1.240   2.295   1.063  0.4494 -1.4800  0.4775
 5121TIP3    H236779   1.090   2.275   1.063 -0.1019  1.7448 -1.9998
 5122TIP3   OH236780   0.557   1.108  13.546 -0.6117  0.0390 -0.2264
 5122TIP3    H136781   0.624   1.105  13.477 -0.9958  2.2560 -0.7855
 5122TIP3    H236782   0.577   1.188  13.595 -2.4067  0.3598  0.0420
 5123TIP3   OH236783   2.971   0.358  14.796 -0.0965  0.0670 -0.0042
 5123TIP3    H136784   3.053   0.323  14.830 -0.2094 -0.0325  0.1678
 5123TIP3    H236785   2.988   0.451  14.784 -0.0463  0.0998  0.3027
 5124TIP3   OH236786   5.907   4.461   5.508 -0.3188 -0.6028 -0.8477
 5124TIP3    H136787   5.921   4.370   5.532 -1.0695 -0.8353 -1.2703
 5124TIP3    H236788   5.816   4.479   5.533 -0.2603 -0.0530 -1.0181
 5125TIP3   OH236789   0.358   6.684  12.138  0.3967 -0.1704  0.1333
 5125TIP3    H136790   0.264   6.670  12.128 -0.0874  2.2966  0.6032
 5125TIP3    H236791   0.377   6.759  12.082  2.3283 -1.2709 -0.7800
 5126TIP3   OH236792   6.636   4.562  13.951  0.0009 -0.1666  0.2272
 5126TIP3    H136793   6.548   4.525  13.948  0.9211 -2.5141  0.6156
 5126TIP3    H236794   6.630   4.642  13.897 -2.2936 -0.3559  0.1166
 5127TIP3   OH236795   4.683   0.180  15.227 -0.0453 -0.5429  0.5401
 5127TIP3    H136796   4.686   0.202  15.134  1.6292 -1.3795  0.3494
 5127TIP3    H236797   4.591   0.187  15.251 -0.2571  1.5187 -0.7131
 5128TIP3   OH236798   2.014   3.518  16.654 -0.5555  0.3692 -0.6800
 5128TIP3    H136799   2.073   3.449  16.684 -0.6111 -0.1797 -1.7980
 5128TIP3    H236800   1.967   3.545  16.734  0.6819  0.3231  0.0890
 5129TIP3   OH236801   4.411   2.237  13.954  0.1598 -0.4520 -0.0027
 5129TIP3    H136802   4.462   2.268  14.029  0.4580 -1.1607  0.0990
 5129TIP3    H236803   4.475   2.194  13.897 -0.1652 -0.4797 -0.3519
 5130TIP3   OH236804   6.610   0.573   2.562 -0.5368 -0.1117 -0.1109
 5130TIP3    H136805   6.665   0.635   2.513  0.4992 -0.2545  0.8157
 5130TIP3    H236806   6.522   0.610   2.557  0.0570  1.5314  0.5064
 5131TIP3   OH236807   2.963   5.461  15.409  0.4423 -0.6890 -0.1229
 5131TIP3    H136808   2.916   5.542  15.390  0.6080 -0.2613  1.1961
 5131TIP3    H236809   3.003   5.436  15.326 -1.2572 -0.5101 -1.0398
 5132TIP3   OH236810   0.311   0.585  15.735  0.1657  0.3083 -0.0546
 5132TIP3    H136811   0.276   0.520  15.674 -2.2528  0.5208  1.0162
 5132TIP3    H236812   0.332   0.660  15.680 -2.7249  0.8036 -0.6320
 5133TIP3   OH236813   4.161   4.475  14.544 -0.2575  1.0420 -0.4258
 5133TIP3    H136814   4.227   4.431  14.598  0.8434  0.5849 -2.0516
 5133TIP3    H236815   4.193   4.564  14.535  0.3992  0.7084 -1.5647
 5134TIP3   OH236816   2.926   1.111   0.491  0.1497 -0.1704  0.1798
 5134TIP3    H136817   3.021   1.111   0.487  0.2368 -1.0154  1.6700
 5134TIP3    H236818   2.903   1.194   0.532  0.4988 -1.4381  3.2083
 5135TIP3   OH236819   1.824   0.665  11.880  0.4918 -0.4572 -0.6853
 5135TIP3    H136820   1.742   0.707  11.852 -0.5089 -0.3239  2.1208
 5135TIP3    H236821   1.892   0.720  11.841 -0.7726  2.6345  1.0394
 5136TIP3   OH236822   4.668   0.584  16.934 -0.2759 -0.4887 -0.0284
 5136TIP3    H136823   4.590   0.605  16.883 -1.4692 -0.3176  1.7627
 5136TIP3    H236824   4.665   0.489  16.945  0.4950 -0.6405 -1.0380
 5137TIP3   OH236825   1.307   5.923   4.391  0.0060 -0.5321  0.0584
 5137TIP3    H136826   1.253   6.002   4.394 -0.4167 -0.8100 -0.0761
 5137TIP3    H236827   1.346   5.918   4.478 -1.9211 -1.5065  0.9425
 5138TIP3   OH236828   1.097   1.997   2.055 -0.3015 -0.6642  0.3029
 5138TIP3    H136829   1.191   1.996   2.040 -0.1828  0.1772  0.9265
 5138TIP3    H236830   1.080   2.083   2.095 -1.8299  0.7472 -3.0152
 5139TIP3   OH236831   2.399   4.142   3.830 -0.4313  0.0721  0.1535
 5139TIP3    H136832   2.405   4.066   3.888  0.7813  0.6384  0.8066
 5139TIP3    H236833   2.367   4.212   3.886  2.0152  0.9732  0.5595
 5140TIP3   OH236834   3.376   0.151   5.751 -0.1488 -0.1243  0.2800
 5140TIP3    H136835   3.465   0.170   5.783  1.0990 -1.9711 -1.8681
 5140TIP3    H236836   3.365   0.057   5.764 -1.3184 -0.1358 -0.6542
 5141TIP3   OH236837   3.298   0.893  16.711 -0.0135  0.1647  0.0285
 5141TIP3    H136838   3.364   0.955  16.681 -0.7238  1.3213  0.7718
 5141TIP3    H236839   3.241   0.879  16.635  1.3338 -1.2247 -0.7672
 5142TIP3   OH236840   2.774   0.532  11.369 -0.1022  0.2152  0.1269
 5142TIP3    H136841   2.719   0.532  11.290  0.0887  0.1107 -0.0077
 5142TIP3    H236842   2.810   0.621  11.372 -0.2422  0.2705  0.1906
 5143TIP3   OH236843   2.583   0.790   2.909 -0.1291 -0.2586 -0.0941
 5143TIP3    H136844   2.587   0.694   2.904 -2.1519 -0.4085  0.1985
 5143TIP3    H236845   2.655   0.820   2.854 -0.4800 -1.9481 -1.5680
 5144TIP3   OH236846   1.464   1.149   5.448  0.1325  0.0432  0.2033
 5144TIP3    H136847   1.368   1.138   5.447 -0.1681  2.2312  0.1908
 5144TIP3    H236848   1.487   1.148   5.541 -0.1045  0.9441  0.2739
 5145TIP3   OH236849   1.749   0.720   1.136  0.1400  0.5375 -0.2146
 5145TIP3    H136850   1.801   0.681   1.206 -0.7379 -0.7243 -0.2333
 5145TIP3    H236851   1.789   0.806   1.121  0.2124  0.9341  1.9614
 5146TIP3   OH236852   2.473   6.150   1.651 -0.3672  0.0691  0.2267
 5146TIP3    H136853   2.414   6.086   1.611  1.7090 -1.9954  0.2231
 5146TIP3    H236854   2.555   6.103   1.662  0.9969  2.4785  1.2032
 5147TIP3   OH236855   2.139   3.666  10.188 -0.7024 -0.1001  0.2953
 5147TIP3    H136856   2.105   3.611  10.259 -0.0515 -1.2950 -0.3125
 5147TIP3    H236857   2.172   3.605  10.122 -0.4243  1.0037 -0.6297
 5148TIP3   OH236858   0.839   5.650  11.887 -0.1805 -0.4254  0.2234
 5148TIP3    H136859   0.914   5.670  11.943  0.1001 -0.0959 -0.2610
 5148TIP3    H236860   0.824   5.556  11.899 -0.1839 -0.3395  0.9204
 5149TIP3   OH236861   3.461   4.175   4.136  0.4512  0.3821  0.1047
 5149TIP3    H136862   3.443   4.269   4.130  0.0064  0.3281  0.4892
 5149TIP3    H236863   3.401   4.135   4.073  0.5729  0.3482  0.0101
 5150TIP3   OH236864   1.670   2.810  16.024  0.2318 -0.3437  0.0142
 5150TIP3    H136865   1.629   2.731  15.988 -0.6798 -1.1033  2.5557
 5150TIP3    H236866   1.738   2.832  15.960 -0.9451 -1.8704 -1.8761
 5151TIP3   OH236867   6.003   5.614   4.454  0.0686  0.1389 -0.4465
 5151TIP3    H136868   6.053   5.692   4.429 -1.2354  0.9335 -0.6583
 5151TIP3    H236869   5.958   5.587   4.374 -0.5215 -0.0395 -0.0663
 5152TIP3   OH236870   6.090   5.411   0.215  0.1710 -0.0413  0.2333
 5152TIP3    H136871   6.054   5.329   0.181 -0.8277  0.6081 -0.3440
 5152TIP3    H236872   6.064   5.412   0.307 -1.1178  0.2959 -0.1138
 5153TIP3   OH236873   4.149   6.356  12.059  0.0413  0.2792  0.3242
 5153TIP3    H136874   4.216   6.296  12.092 -1.4621 -2.3133 -1.0502
 5153TIP3    H236875   4.106   6.389  12.138  1.7803  0.7075  1.1604
 5154TIP3   OH236876   4.713   3.155   2.105  0.0132  0.0975  0.3279
 5154TIP3    H136877   4.754   3.076   2.071 -1.0008  0.0930 -0.9608
 5154TIP3    H236878   4.733   3.223   2.040 -1.5970  0.1942 -0.1131
 5155TIP3   OH236879   6.053   4.978  13.772 -0.3619  0.2002  0.1201
 5155TIP3    H136880   6.065   5.071  13.750  1.3747 -0.1292 -0.4744
 5155TIP3    H236881   6.132   4.954  13.819 -0.9900 -0.8887  0.6605
 5156TIP3   OH236882   5.447   5.725  13.003  0.5097 -0.4607 -0.2132
 5156TIP3    H136883   5.418   5.678  12.925 -1.0780  1.8737 -1.1578
 5156TIP3    H236884   5.395   5.688  13.074 -0.8654 -0.0466 -0.9669
 5157TIP3   OH236885   5.070   1.638  14.078  0.2828  0.5018 -0.0403
 5157TIP3    H136886   4.990   1.628  14.025 -0.0041 -0.8933  0.6181
 5157TIP3    H236887   5.137   1.662  14.014 -0.1556 -0.6736 -0.9894
 5158TIP3   OH236888   2.741   3.689  17.083 -0.4107 -0.3351  0.1777
 5158TIP3    H136889   2.833   3.711  17.076 -0.2241 -1.2072 -0.4019
 5158TIP3    H236890   2.719   3.703  17.175  0.2371  0.0892  0.2745
 5159TIP3   OH236891   6.442   4.713   0.904  0.3403 -0.4100  0.2714
 5159TIP3    H136892   6.504   4.649   0.939  0.3045 -1.9005 -2.1868
 5159TIP3    H236893   6.493   4.763   0.841 -0.4511 -0.2635 -0.2571
 5160TIP3   OH236894   1.481   4.683  16.571 -0.4086 -0.4408  0.4082
 5160TIP3    H136895   1.549   4.717  16.513 -0.9791  0.6641  0.3633
 5160TIP3    H236896   1.526   4.618  16.625  0.4716 -0.3715 -0.2204
 5161TIP3   OH236897   0.666   1.666  13.992  0.7646 -0.5592 -1.1697
 5161TIP3    H136898   0.644   1.752  14.027  0.8009 -0.5089 -1.2676
 5161TIP3    H236899   0.751   1.646  14.031 -0.4918 -1.8065  1.0929
 5162TIP3   OH236900   2.947   1.311   3.472 -0.4635  0.1278 -0.0402
 5162TIP3    H136901   2.857   1.317   3.440 -0.2027 -1.3668 -1.1538
 5162TIP3    H236902   2.938   1.294   3.566 -1.3391 -0.1628 -0.1705
 5163TIP3   OH236903   1.634   0.369  14.820  0.0785 -0.4336 -0.0102
 5163TIP3    H136904   1.685   0.364  14.739 -0.3274 -2.6263 -0.1803
 5163TIP3    H236905   1.550   0.405  14.793  0.1485 -0.6023 -0.4555
 5164TIP3   OH236906   1.710   4.489   4.910  0.2127  0.4593  0.1780
 5164TIP3    H136907   1.652   4.525   4.976  0.3878  0.6600  0.2232
 5164TIP3    H236908   1.772   4.560   4.890 -1.2809  1.2651 -1.9513
 5165TIP3   OH236909   4.565   0.832   2.829 -0.3789 -0.1874  0.2397
 5165TIP3    H136910   4.540   0.824   2.737 -1.1007 -0.6354  0.4666
 5165TIP3    H236911   4.504   0.897   2.865 -0.7206 -0.7045  0.6164
 5166TIP3   OH236912   2.460   0.370   1.500  0.0032  0.9377  0.1881
 5166TIP3    H136913   2.499   0.288   1.471 -2.5049 -0.2005 -0.2382
 5166TIP3    H236914   2.445   0.420   1.420 -0.1616  1.0016  0.2578
 5167TIP3   OH236915   4.221   2.448  13.135  0.3429 -0.2000 -0.3096
 5167TIP3    H136916   4.130   2.426  13.153 -0.1182  2.0989  0.5809
 5167TIP3    H236917   4.272   2.397  13.198 -0.4757 -0.1972  0.3616
 5168TIP3   OH236918   1.316   3.147  16.999 -1.0579 -1.0712 -0.2135
 5168TIP3    H136919   1.290   3.161  16.908 -3.5013  0.3805  0.6207
 5168TIP3    H236920   1.389   3.207  17.013  0.6969 -2.7282 -1.6737
 5169TIP3   OH236921   4.616   4.158  12.244 -0.6992 -0.0117 -0.2718
 5169TIP3    H136922   4.558   4.205  12.304 -0.0176 -0.9788  1.2002
 5169TIP3    H236923   4.617   4.068  12.277 -0.9127 -0.7677 -2.2192
 5170TIP3   OH236924   3.080   3.445  11.524  0.4894 -0.1453 -0.7731
 5170TIP3    H136925   3.061   3.428  11.431  2.0013 -3.3656 -0.6029
 5170TIP3    H236926   3.173   3.464  11.526  0.4545 -0.0460  0.0955
 5171TIP3   OH236927   4.086   2.236  16.759 -0.2607 -0.0163 -0.3006
 5171TIP3    H136928   4.004   2.190  16.741  0.5898 -1.2587 -1.2217
 5171TIP3    H236929   4.071   2.280  16.842 -2.6646  1.7478 -1.5527
 5172TIP3   OH236930   2.256   0.419   1.969  0.6606  0.7528  0.1045
 5172TIP3    H136931   2.222   0.503   1.937  0.2030  1.3728  2.0976
 5172TIP3    H236932   2.183   0.358   1.960  1.1977  0.3383 -1.9844
 5173TIP3   OH236933   3.552   1.929  12.488  0.2294  0.7083 -0.0074
 5173TIP3    H136934   3.540   1.906  12.395  0.5235  1.1463 -0.1590
 5173TIP3    H236935   3.647   1.931  12.499  0.1963  1.0303  0.2101
 5174TIP3   OH236936   1.999   6.303   0.438 -0.1097  0.5722 -0.3063
 5174TIP3    H136937   1.967   6.331   0.523  3.7586  1.3797  1.0867
 5174TIP3    H236938   1.978   6.210   0.433 -1.4568  0.7779  0.9201
 5175TIP3   OH236939   0.673   1.079   1.873  0.2601  0.2167  0.1175
 5175TIP3    H136940   0.653   1.159   1.824  0.3746  0.3847  0.3379
 5175TIP3    H236941   0.620   1.086   1.953  0.6067  0.2889  0.3429
 5176TIP3   OH236942   1.586   5.435  13.570 -0.0471 -0.1552 -0.1350
 5176TIP3    H136943   1.645   5.437  13.496  0.1748 -1.0487  0.0100
 5176TIP3    H236944   1.642   5.415  13.645  0.1271  2.9839  0.6969
 5177TIP3   OH236945   1.324   0.914  12.157  0.2263  0.1428  0.0331
 5177TIP3    H136946   1.412   0.923  12.194  0.4909  1.0096 -0.7421
 5177TIP3    H236947   1.338   0.875  12.071 -0.1289  0.3507 -0.1229
 5178TIP3   OH236948   2.003   4.321   5.509  0.4870 -0.3463 -0.0079
 5178TIP3    H136949   1.953   4.339   5.429  1.5803 -1.4213 -0.9668
 5178TIP3    H236950   2.094   4.328   5.482  0.9602  2.8393  2.0075
 5179TIP3   OH236951   2.343   4.437   4.357  0.0533  0.1574  0.1031
 5179TIP3    H136952   2.422   4.413   4.406 -0.8120 -1.3054  0.8684
 5179TIP3    H236953   2.374   4.490   4.284  2.0578 -2.3974 -1.0424
 5180TIP3   OH236954   0.207   3.454   6.648  0.0300 -0.2496 -0.3484
 5180TIP3    H136955   0.182   3.494   6.565 -0.7276  1.7206  0.7605
 5180TIP3    H236956   0.159   3.371   6.650 -0.8945  0.2384 -1.3413
 5181TIP3   OH236957   0.612   1.769   1.666 -0.2820  0.3135 -0.1038
 5181TIP3    H136958   0.630   1.739   1.577 -0.3524  0.0223 -0.0214
 5181TIP3    H236959   0.518   1.755   1.677  0.2471 -2.9384  1.2086
 5182TIP3   OH236960   4.427   0.869   0.253 -0.8620  0.1440  0.0238
 5182TIP3    H136961   4.486   0.941   0.231 -0.4584  0.1195  0.9682
 5182TIP3    H236962   4.373   0.858   0.175  0.5904 -0.0474 -1.0047
 5183TIP3   OH236963   2.034   5.015  13.976 -0.4095  0.6643 -0.0674
 5183TIP3    H136964   2.022   5.097  14.025 -1.3260 -0.4076  1.5829
 5183TIP3    H236965   2.095   5.038  13.906  0.4643  2.4280  1.1846
 5184TIP3   OH236966   0.558   3.079   4.300  0.6697  0.0226 -0.4288
 5184TIP3    H136967   0.568   3.170   4.330 -0.0196 -0.6484  2.0450
 5184TIP3    H236968   0.636   3.034   4.333  0.8993 -0.3664 -1.4585
 5185TIP3   OH236969   6.432   2.405  15.152  0.4902  0.2094 -0.5214
 5185TIP3    H136970   6.479   2.464  15.094  0.3305  0.4719 -0.3843
 5185TIP3    H236971   6.462   2.427  15.240 -1.1672  1.5944 -0.2475
 5186TIP3   OH236972   3.746   4.114  16.649  0.5500  0.1958 -0.4218
 5186TIP3    H136973   3.808   4.057  16.694 -0.3244 -1.1673 -0.8705
 5186TIP3    H236974   3.698   4.157  16.720  0.2848 -0.7027 -0.0332
 5187TIP3   OH236975   6.554   0.224  14.426 -0.3944  0.8097  0.1890
 5187TIP3    H136976   6.511   0.189  14.504  0.0607  1.0075  0.5333
 5187TIP3    H236977   6.491   0.208  14.355 -1.6621  2.3014  0.9001
 5188TIP3   OH236978   4.290   3.221   3.637  0.3159 -0.4018 -0.5595
 5188TIP3    H136979   4.368   3.234   3.690  0.3199 -0.9819 -0.4202
 5188TIP3    H236980   4.220   3.204   3.701  0.3216 -1.1099 -0.7329
 5189TIP3   OH236981   0.544   5.019   1.932 -0.6292 -1.1265 -0.0465
 5189TIP3    H136982   0.532   5.023   2.027  1.3984  0.1289  0.2200
 5189TIP3    H236983   0.637   5.004   1.920 -0.4664  0.7651 -1.7927
 5190TIP3   OH236984   1.785   0.179  11.164  0.4822  0.6512 -0.3314
 5190TIP3    H136985   1.870   0.165  11.122  0.8125  1.3569  0.0756
 5190TIP3    H236986   1.736   0.099  11.147  0.4049  1.1109 -2.5178
 5191TIP3   OH236987   1.684   4.509   3.123 -0.3096 -0.2324 -0.1983
 5191TIP3    H136988   1.760   4.452   3.137 -1.2874 -1.4788  0.1932
 5191TIP3    H236989   1.609   4.458   3.154 -1.3573  0.8337 -0.8781
 5192TIP3   OH236990   3.761   1.668  14.525  0.1155  0.2428 -0.0195
 5192TIP3    H136991   3.667   1.657  14.541  0.2336  0.3365  0.7526
 5192TIP3    H236992   3.765   1.706  14.437 -0.5537 -0.1040 -0.2084
 5193TIP3   OH236993   0.253   4.135   0.469 -0.1773 -0.2678 -0.1485
 5193TIP3    H136994   0.162   4.144   0.499  0.5778  0.2797  2.1238
 5193TIP3    H236995   0.292   4.072   0.530  0.7615 -1.2744 -1.7038
 5194TIP3   OH236996   1.959   4.532   4.623  0.0159 -0.3808 -1.0052
 5194TIP3    H136997   1.931   4.448   4.659  0.0144 -1.0870 -2.5633
 5194TIP3    H236998   1.980   4.513   4.532  1.9199  0.9212 -0.8945
 5195TIP3   OH236999   5.948   1.565  12.507 -0.2006  0.0732 -0.1126
 5195TIP3    H137000   5.876   1.508  12.537 -0.5065  0.3263 -0.3550
 5195TIP3    H237001   5.908   1.620  12.440  0.6242 -0.9101 -1.4567
 5196TIP3   OH237002   4.958   4.498   2.392 -0.6473 -0.2153  0.0311
 5196TIP3    H137003   4.896   4.540   2.332  0.2054 -0.0388 -0.7373
 5196TIP3    H237004   4.979   4.414   2.351  0.7082  0.3342 -0.4543
 5197TIP3   OH237005   5.432   4.708   4.911 -0.2936 -0.0084 -0.0411
 5197TIP3    H137006   5.525   4.694   4.894 -0.3420 -1.2608  0.6138
 5197TIP3    H237007   5.430   4.780   4.974  0.3234 -0.7423  0.8637
 5198TIP3   OH237008   6.321   0.046  12.168 -0.1809  0.2078  0.2461
 5198TIP3    H137009   6.361  -0.016  12.228  1.9297  0.8944 -0.3291
 5198TIP3    H237010   6.319   0.129  12.216 -0.1106  0.3686 -0.0215
 5199TIP3   OH237011   4.444   5.289   6.463 -0.2803  0.0198  0.1842
 5199TIP3    H137012   4.496   5.219   6.502 -1.2569 -0.0119  1.5054
 5199TIP3    H237013   4.505   5.336   6.406  1.1631 -0.0929  1.5609
 5200TIP3   OH237014   0.362   6.126   1.145 -0.0307  0.4023  0.0751
 5200TIP3    H137015   0.352   6.205   1.199 -0.7101  0.4469 -0.1120
 5200TIP3    H237016   0.454   6.128   1.117 -0.2930  1.6858 -0.7826
 5201TIP3   OH237017   5.283   5.054   0.916  0.0577  0.0117 -0.5038
 5201TIP3    H137018   5.352   5.064   0.981  1.2004 -0.1813 -1.6293
 5201TIP3    H237019   5.242   5.141   0.910  0.3594  0.1909  0.0152
 5202TIP3   OH237020   5.277   2.282   1.251  0.2070  0.2594 -0.0329
 5202TIP3    H137021   5.237   2.230   1.321  2.2310  1.4568  2.1804
 5202TIP3    H237022   5.298   2.366   1.293  2.2571  0.7440 -1.8401
 5203TIP3   OH237023   5.944   5.505  15.611 -0.2148  0.2388 -0.4703
 5203TIP3    H137024   5.982   5.584  15.649  0.5473  0.1880 -1.0834
 5203TIP3    H237025   5.952   5.439  15.680 -1.7844  0.9280  0.4081
 5204TIP3   OH237026   5.485   2.618   5.150 -0.7129 -0.6236 -0.3442
 5204TIP3    H137027   5.394   2.606   5.124 -0.7438 -2.0481  0.3257
 5204TIP3    H237028   5.490   2.586   5.240  0.4138 -0.4144 -0.3098
 5205TIP3   OH237029   0.351   5.726  11.740 -0.5336 -0.1247 -0.3962
 5205TIP3    H137030   0.432   5.777  11.728 -0.9836  0.6412 -0.2241
 5205TIP3    H237031   0.344   5.714  11.834 -0.6672 -0.1153 -0.4049
 5206TIP3   OH237032   3.222   2.406  14.655  0.1667  0.3550 -0.3733
 5206TIP3    H137033   3.196   2.324  14.697 -1.0987 -0.2934 -2.2614
 5206TIP3    H237034   3.176   2.474  14.704  0.0360 -0.2142  0.3084
 5207TIP3   OH237035   3.564   6.708  12.487 -0.0259  0.4283 -0.1251
 5207TIP3    H137036   3.499   6.663  12.433  2.3492 -1.3989 -1.6855
 5207TIP3    H237037   3.527   6.795  12.503 -3.7015 -1.1098  0.8121
 5208TIP3   OH237038   2.839   0.876   0.830 -0.4987  0.0929  0.0916
 5208TIP3    H137039   2.838   0.780   0.820  1.5733  0.1032 -0.6688
 5208TIP3    H237040   2.793   0.908   0.753 -1.3452 -0.2730  0.4278
 5209TIP3   OH237041   0.573   2.678  12.914 -0.1633 -0.7576 -0.1308
 5209TIP3    H137042   0.654   2.675  12.864 -0.2029 -0.4754 -0.2133
 5209TIP3    H237043   0.595   2.729  12.992 -0.0476 -1.3637  0.2430
 5210TIP3   OH237044   0.601   0.265   6.947 -0.4757  0.0191 -0.6622
 5210TIP3    H137045   0.543   0.311   6.887  1.0934  1.3591 -1.2390
 5210TIP3    H237046   0.684   0.313   6.941  0.6223 -1.6535  0.2996
 5211TIP3   OH237047   1.122   6.446  12.120  0.0722  0.1917  0.0828
 5211TIP3    H137048   1.035   6.409  12.127  0.2547 -0.3316 -0.3226
 5211TIP3    H237049   1.133   6.464  12.026  0.1521  0.8629  0.2161
 5212TIP3   OH237050   4.907   1.212  13.568  0.4144 -0.6004  0.2797
 5212TIP3    H137051   4.913   1.123  13.534  1.6716 -0.1104 -0.8897
 5212TIP3    H237052   4.997   1.237  13.588 -0.0091  0.1250  1.3925
 5213TIP3   OH237053   1.454   2.664  12.744  0.3490 -0.1996 -0.4904
 5213TIP3    H137054   1.466   2.672  12.650  0.8491 -1.1486 -0.5183
 5213TIP3    H237055   1.385   2.598  12.754  0.4737 -0.2903 -0.1979
 5214TIP3   OH237056   5.991   5.389   3.919 -0.3699  0.2512  0.1924
 5214TIP3    H137057   6.045   5.426   3.849  0.4585  2.3028  1.7713
 5214TIP3    H237058   6.037   5.309   3.945 -1.2314 -1.0997 -2.1659
 5215TIP3   OH237059   1.100   2.384   5.006  0.3632 -0.3612 -0.5846
 5215TIP3    H137060   1.166   2.358   5.070 -1.1281 -0.3788  1.0276
 5215TIP3    H237061   1.017   2.382   5.055 -0.9539 -1.1101 -2.7262
 5216TIP3   OH237062   0.860   2.808  12.029 -0.1964  0.4486  0.4554
 5216TIP3    H137063   0.941   2.833  12.073 -0.2261 -1.0864  1.4727
 5216TIP3    H237064   0.852   2.869  11.956  2.9196 -0.5652 -0.8742
 5217TIP3   OH237065   4.664   2.419  10.035  0.2866 -0.1390  0.1251
 5217TIP3    H137066   4.688   2.451  10.122  2.6496 -0.7188 -0.2164
 5217TIP3    H237067   4.614   2.490   9.996  2.4227  1.7481  0.6179
 5218TIP3   OH237068   3.055   5.897   0.330 -0.3294 -0.1032  0.0545
 5218TIP3    H137069   3.140   5.859   0.353 -0.4015 -0.8661 -0.8639
 5218TIP3    H237070   3.010   5.905   0.414  0.3584 -0.4192  0.4726
 5219TIP3   OH237071   2.825   4.514  16.168  0.4007  0.3477 -0.9049
 5219TIP3    H137072   2.831   4.581  16.100 -2.3327  0.1591 -1.4395
 5219TIP3    H237073   2.737   4.478  16.159  0.9768 -1.7337  0.8669
 5220TIP3   OH237074   3.120   5.486   5.396  0.3795  0.1311  0.1368
 5220TIP3    H137075   3.076   5.550   5.340 -0.0845  0.0970  0.4578
 5220TIP3    H237076   3.115   5.404   5.346  0.5411  0.2378 -0.0575
 5221TIP3   OH237077   3.220   0.581  17.029 -0.3080  0.4374  0.3665
 5221TIP3    H137078   3.203   0.654  17.089 -0.3499 -0.9383  2.1103
 5221TIP3    H237079   3.134   0.542  17.014 -0.2883  0.7290 -0.5824
 5222TIP3   OH237080   5.581   5.100   0.662  0.0733  0.0042  0.4009
 5222TIP3    H137081   5.527   5.174   0.632  1.8800  0.4625 -2.1255
 5222TIP3    H237082   5.553   5.026   0.608  1.7067  0.2014 -0.8076
 5223TIP3   OH237083   5.505   3.629   5.157  0.5934  0.0132  0.1246
 5223TIP3    H137084   5.446   3.694   5.118 -0.2699  1.3024  3.2860
 5223TIP3    H237085   5.460   3.546   5.145  0.1762  0.3944 -1.1846
 5224TIP3   OH237086   3.907   6.300  12.224 -0.2220  0.0576 -0.4771
 5224TIP3    H137087   3.959   6.262  12.153  0.5831  1.2319 -0.5284
 5224TIP3    H237088   3.865   6.376  12.186  1.9763  2.0398  0.8122
 5225TIP3   OH237089   3.178   0.459  15.045 -0.6262 -0.1744  0.0363
 5225TIP3    H137090   3.171   0.373  15.003  0.1291 -0.2970  0.1430
 5225TIP3    H237091   3.211   0.439  15.133 -1.1609  0.1674  0.3166
 5226TIP3   OH237092   0.674   6.245  16.554 -0.0183  0.3977  0.6550
 5226TIP3    H137093   0.690   6.250  16.460  1.8889  0.1737  0.9205
 5226TIP3    H237094   0.620   6.321  16.573 -1.1386 -0.0154 -0.7351
 5227TIP3   OH237095   5.675   3.527  11.108  0.5396  0.1872 -0.4365
 5227TIP3    H137096   5.684   3.476  11.189  1.4857  0.2437 -0.4899
 5227TIP3    H237097   5.638   3.466  11.045 -2.4028  0.7531  0.6050
 5228TIP3   OH237098   5.840   1.515  11.739 -0.6074 -0.3511  0.1912
 5228TIP3    H137099   5.909   1.501  11.675 -2.5212  0.6982 -2.2740
 5228TIP3    H237100   5.843   1.609  11.757 -1.4698 -0.2662 -0.0711
 5229TIP3   OH237101   5.110   0.032   1.453 -0.2306 -0.5283 -0.0008
 5229TIP3    H137102   5.017   0.047   1.439  0.0692  0.7279 -0.8780
 5229TIP3    H237103   5.131  -0.043   1.397 -0.7119 -0.8475  0.2406
 5230TIP3   OH237104   1.583   0.462  13.064  0.6675  0.1394  0.3241
 5230TIP3    H137105   1.630   0.382  13.037 -1.3578 -0.7052 -0.9766
 5230TIP3    H237106   1.554   0.501  12.982 -0.0520  1.1502  1.0394
 5231TIP3   OH237107   3.238   1.128   5.066 -0.4467  0.1051  0.2972
 5231TIP3    H137108   3.248   1.205   5.011 -1.5810  0.4383  0.5204
 5231TIP3    H237109   3.277   1.152   5.150 -0.1872  0.1838  0.1549
 5232TIP3   OH237110   5.005   3.199   0.819  0.2057 -1.1985 -0.4993
 5232TIP3    H137111   5.025   3.108   0.797  1.5554 -0.4227 -2.8013
 5232TIP3    H237112   5.090   3.242   0.828 -0.3868  0.1798 -1.0675
 5233TIP3   OH237113   4.456   5.470  13.800 -0.2564  0.0735 -0.4031
 5233TIP3    H137114   4.397   5.430  13.864  0.6024 -2.1656 -0.9105
 5233TIP3    H237115   4.543   5.437  13.824  0.4793  1.4906 -1.0236
 5234TIP3   OH237116   6.259   1.434   0.212  0.1334  0.5412  0.0106
 5234TIP3    H137117   6.190   1.494   0.243  0.6231 -0.4279  3.4260
 5234TIP3    H237118   6.341   1.479   0.232  0.4880 -0.0179 -0.1573
 5235TIP3   OH237119   5.849   6.021   0.602 -0.3002  0.3018  0.0724
 5235TIP3    H137120   5.838   5.967   0.524 -0.0593 -0.4913  0.5815
 5235TIP3    H237121   5.881   6.105   0.569 -1.1424  0.3104 -0.7743
 5236TIP3   OH237122   6.565   5.892  10.588  0.2319 -0.5182 -0.8689
 5236TIP3    H137123   6.562   5.976  10.633 -1.2333  0.0680 -2.0197
 5236TIP3    H237124   6.659   5.871  10.584  0.5165  0.1649  0.9796
 5237TIP3   OH237125   3.864   5.854   0.771 -0.3485 -0.4201 -0.3743
 5237TIP3    H137126   3.936   5.790   0.774 -0.2085 -0.2403  0.5966
 5237TIP3    H237127   3.882   5.906   0.693  0.0088 -1.0288 -0.7103
 5238TIP3   OH237128   2.696   2.220   6.338 -0.3703 -0.0123  0.3101
 5238TIP3    H137129   2.717   2.306   6.303 -0.5613 -0.5220 -1.1608
 5238TIP3    H237130   2.604   2.207   6.316 -0.7481 -0.0255  1.8024
 5239TIP3   OH237131   2.245   4.328   5.122 -0.5723 -0.6576  0.1545
 5239TIP3    H137132   2.157   4.332   5.087 -0.5245 -2.5386 -0.3115
 5239TIP3    H237133   2.281   4.246   5.088  2.4843  1.4380 -2.2115
 5240TIP3   OH237134   4.786   0.371   0.730 -0.5728 -0.5433  0.1362
 5240TIP3    H137135   4.715   0.327   0.777 -1.4972  1.1503  0.3946
 5240TIP3    H237136   4.851   0.392   0.797 -0.7663 -0.3035  0.2499
 5241TIP3   OH237137   4.298   3.486  10.334 -0.3070 -0.6646  0.2519
 5241TIP3    H137138   4.288   3.405  10.385  0.3588 -0.3257  0.9402
 5241TIP3    H237139   4.212   3.501  10.296 -0.9232 -0.7573  1.5407
 5242TIP3   OH237140   5.135   1.800  12.454 -0.4219 -0.6567 -0.4436
 5242TIP3    H137141   5.053   1.841  12.481 -1.1529 -0.7974 -2.2929
 5242TIP3    H237142   5.108   1.733  12.390  1.2258  0.3801 -2.3290
 5243TIP3   OH237143   4.590   2.005  11.152 -0.1099 -0.0842 -0.0323
 5243TIP3    H137144   4.627   1.935  11.098  1.5492 -0.7953  1.9230
 5243TIP3    H237145   4.593   2.082  11.095  1.1724 -0.8888 -1.1372
 5244TIP3   OH237146   5.045   2.917  15.700 -0.0850 -0.0658 -0.3300
 5244TIP3    H137147   5.127   2.897  15.745  0.9004  1.4693 -1.3170
 5244TIP3    H237148   5.035   3.012  15.712 -0.8446  0.0323 -1.6135
 5245TIP3   OH237149   2.801   4.904   4.696  0.6336  0.2431  0.5485
 5245TIP3    H137150   2.811   4.931   4.605 -0.2038  0.3499  0.4871
 5245TIP3    H237151   2.809   4.809   4.694  0.7574  0.2569  0.3851
 5246TIP3   OH237152   3.990   4.050  14.516  0.4689 -0.1481 -0.5193
 5246TIP3    H137153   4.051   4.121  14.494  0.7527  0.0718  0.9099
 5246TIP3    H237154   4.010   4.028  14.606 -0.3161 -1.3708 -0.6229
 5247TIP3   OH237155   5.089   2.313  15.679 -0.3410  0.7731 -0.1891
 5247TIP3    H137156   5.027   2.249  15.714  1.6556 -1.9361 -1.2036
 5247TIP3    H237157   5.155   2.323  15.747 -0.0819  0.9261 -0.4602
 5248TIP3   OH237158   0.511   1.236   1.654  0.1739  0.3178  0.0208
 5248TIP3    H137159   0.470   1.318   1.682 -1.9840 -0.7450  0.1783
 5248TIP3    H237160   0.439   1.184   1.618  1.9643 -0.3928 -2.8620
 5249TIP3   OH237161   0.565   3.804  15.844  0.0000 -0.5259 -0.3915
 5249TIP3    H137162   0.492   3.848  15.887  0.8891  1.1685 -0.5621
 5249TIP3    H237163   0.525   3.726  15.804 -1.5995  0.0505  0.0022
 5250TIP3   OH237164   2.514   0.975   0.759  0.1221 -0.4270 -0.2128
 5250TIP3    H137165   2.525   0.905   0.823  0.0114 -0.5396 -0.3165
 5250TIP3    H237166   2.574   0.952   0.688 -0.7166 -1.0054 -0.7479
 5251TIP3   OH237167   0.528   3.263   1.171 -0.2565  0.1249  0.8711
 5251TIP3    H137168   0.583   3.243   1.247 -2.4165 -2.0322  2.0184
 5251TIP3    H237169   0.478   3.340   1.198  0.9562  1.0691  0.4843
 5252TIP3   OH237170   1.099   0.310  14.574 -0.3391  0.1105  0.1713
 5252TIP3    H137171   1.039   0.385  14.569 -0.9561 -0.2568  1.5192
 5252TIP3    H237172   1.101   0.274  14.486 -0.7445  1.1737 -0.2849
 5253TIP3   OH237173   5.013   5.366   4.342 -0.5332  0.5433 -0.5307
 5253TIP3    H137174   5.076   5.436   4.325 -0.5209 -0.0163 -3.0242
 5253TIP3    H237175   4.951   5.370   4.269 -1.1584 -1.3778 -0.1659
 5254TIP3   OH237176   3.737   6.165   2.571 -0.0451  0.4367 -0.1785
 5254TIP3    H137177   3.828   6.143   2.554 -0.1405  1.3598 -2.2079
 5254TIP3    H237178   3.687   6.094   2.530 -0.2517  0.2222  0.4371
 5255TIP3   OH237179   3.354   5.315  17.074  0.3231  0.4834 -0.1174
 5255TIP3    H137180   3.339   5.230  17.115 -0.5934  1.4910  1.7933
 5255TIP3    H237181   3.449   5.323  17.068  0.4237 -0.6045 -0.2165
 5256TIP3   OH237182   4.020   6.049  14.327  0.0963  0.0671 -0.2769
 5256TIP3    H137183   4.101   6.067  14.281  1.0978 -1.5562  0.7539
 5256TIP3    H237184   4.031   5.962  14.363 -1.3566  0.5340  1.4856
 5257TIP3   OH237185   3.240   4.257  10.215  0.4548  0.3799  0.1409
 5257TIP3    H137186   3.153   4.229  10.243  0.7917 -0.5898  0.2784
 5257TIP3    H237187   3.225   4.333  10.159 -0.6051 -0.7765 -1.2193
 5258TIP3   OH237188   0.102   2.325  12.617 -0.3320  0.6082 -0.6565
 5258TIP3    H137189   0.172   2.306  12.679  0.3117 -2.8342 -2.1520
 5258TIP3    H237190   0.134   2.399  12.566  1.4458  0.2078 -0.1786
 5259TIP3   OH237191   5.175   1.625   4.169 -0.1205  0.1525 -0.2103
 5259TIP3    H137192   5.220   1.586   4.244 -1.9963 -0.9225  0.4255
 5259TIP3    H237193   5.240   1.682   4.129  1.7854 -1.3100  0.6459
 5260TIP3   OH237194   1.978   6.249   5.515 -0.1331 -0.2304 -0.0073
 5260TIP3    H137195   1.946   6.165   5.546  0.8879 -0.5918  0.0993
 5260TIP3    H237196   1.931   6.264   5.433 -1.6792 -0.0185  0.8853
 5261TIP3   OH237197   6.735   6.352   4.032 -0.1700  0.0133  0.3645
 5261TIP3    H137198   6.745   6.408   3.954  1.1501  0.3477  0.7409
 5261TIP3    H237199   6.668   6.396   4.084 -1.0027 -0.1649 -0.5319
 5262TIP3   OH237200   2.575   6.672   3.398 -0.0719 -0.0784  0.2738
 5262TIP3    H137201   2.617   6.618   3.464 -2.9142 -0.8482  1.5671
 5262TIP3    H237202   2.588   6.624   3.316 -0.6188 -1.5835  1.0472
 5263TIP3   OH237203   1.544   4.102   6.352 -0.3633 -0.4717 -0.8312
 5263TIP3    H137204   1.616   4.041   6.369 -1.2574 -1.3889 -0.2871
 5263TIP3    H237205   1.549   4.165   6.424 -0.1324 -0.5496 -0.7768
 5264TIP3   OH237206   0.734   0.321  13.779 -0.7205 -0.5443  0.1807
 5264TIP3    H137207   0.664   0.355  13.835 -1.9088 -2.3183 -0.1430
 5264TIP3    H237208   0.797   0.393  13.773 -2.3407  0.9953  0.7685
 5265TIP3   OH237209   0.923   6.032   5.028 -0.1697 -0.5422  0.6022
 5265TIP3    H137210   0.880   5.990   5.103 -2.3758  0.6513  0.0932
 5265TIP3    H237211   0.854   6.041   4.962  1.6928 -1.5860 -1.6546
 5266TIP3   OH237212   2.938   0.950  12.079  0.0323 -0.2649 -0.6395
 5266TIP3    H137213   2.912   0.887  12.146 -0.1802 -0.8300 -1.2408
 5266TIP3    H237214   2.921   1.036  12.118  2.0542 -0.4993  0.9042
 5267TIP3   OH237215   1.007   6.176  11.743 -0.1021  0.2738 -0.1774
 5267TIP3    H137216   1.073   6.116  11.776  0.1514  0.6247 -0.0452
 5267TIP3    H237217   0.952   6.122  11.686 -1.0005 -0.5182  1.3807
 5268TIP3   OH237218   3.521   3.108   4.064  0.5814 -0.2227 -0.3641
 5268TIP3    H137219   3.603   3.114   4.113  0.7923 -1.0730 -0.5915
 5268TIP3    H237220   3.481   3.026   4.093 -0.5715  0.5522  0.3081
 5269TIP3   OH237221   3.348   5.644   3.550 -0.6628 -0.6799  0.6506
 5269TIP3    H137222   3.416   5.588   3.513 -2.3812 -1.9176 -0.8496
 5269TIP3    H237223   3.276   5.584   3.572 -0.2906  0.1383  5.0378
 5270TIP3   OH237224   6.800   2.274   3.820  0.4356 -0.3138  0.0247
 5270TIP3    H137225   6.746   2.267   3.741 -0.7732 -2.4043  0.9523
 5270TIP3    H237226   6.874   2.216   3.803  1.2419  0.7972 -0.3400
 5271TIP3   OH237227   4.348   3.614   6.442 -0.3076 -0.3411 -0.4802
 5271TIP3    H137228   4.290   3.548   6.481 -0.5595  0.0056 -0.2622
 5271TIP3    H237229   4.433   3.571   6.437  0.4462  0.4462  2.9397
 5272TIP3   OH237230   0.983   1.322   2.116 -0.2833  0.0527  0.0537
 5272TIP3    H137231   0.996   1.387   2.185  1.3291 -0.0476 -0.1177
 5272TIP3    H237232   0.937   1.370   2.047 -0.2126  0.6775  0.4297
 5273TIP3   OH237233   2.134   1.484  15.515  0.1707 -0.0817  0.1215
 5273TIP3    H137234   2.117   1.392  15.499 -0.2106 -0.1987  1.0827
 5273TIP3    H237235   2.224   1.498  15.486  0.0455 -0.6213 -0.5377
 5274TIP3   OH237236   0.415   0.017  12.365  0.1505  0.0777  0.4692
 5274TIP3    H137237   0.410  -0.036  12.285  3.5617 -1.7285  1.2228
 5274TIP3    H237238   0.373  -0.037  12.432 -0.8562  0.6701  0.3423
 5275TIP3   OH237239   4.526   2.412   3.077 -0.0956  0.6203  0.0946
 5275TIP3    H137240   4.616   2.433   3.101 -0.6421  0.7522  2.2714
 5275TIP3    H237241   4.522   2.427   2.983  2.1281  0.6518 -0.0494
 5276TIP3   OH237242   6.790   3.786  13.427  0.3919  0.0457 -0.3221
 5276TIP3    H137243   6.836   3.709  13.393  2.1594  1.0789 -0.4050
 5276TIP3    H237244   6.797   3.777  13.522 -1.4890 -1.0560 -0.2379
 5277TIP3   OH237245   6.186   4.229  11.453  0.2188 -0.1656  0.2234
 5277TIP3    H137246   6.114   4.211  11.393  0.4081 -0.6089  0.1237
 5277TIP3    H237247   6.239   4.296  11.408 -0.7944  1.1008  0.8434
 5278TIP3   OH237248   0.684   0.214  16.648 -0.2406 -0.6841  0.2059
 5278TIP3    H137249   0.664   0.268  16.725  0.3450 -0.6643  0.3516
 5278TIP3    H237250   0.678   0.124  16.680 -2.1596 -0.7621 -0.2696
 5279TIP3   OH237251   3.925   5.569   5.946 -0.6952  0.2449  0.2784
 5279TIP3    H137252   3.926   5.651   5.897  0.5968  0.4876  0.6763
 5279TIP3    H237253   3.983   5.510   5.896 -1.6815 -0.4735 -0.0565
 5280TIP3   OH237254   0.605   5.394  15.352  0.4891  0.2223 -0.0144
 5280TIP3    H137255   0.584   5.421  15.262  1.8137  0.6131 -0.2294
 5280TIP3    H237256   0.590   5.299  15.353 -1.3946  0.4768 -0.0793
 5281TIP3   OH237257   1.737   2.218  16.567 -0.2485  0.4146  0.1815
 5281TIP3    H137258   1.669   2.285  16.580 -0.3801  0.2260  0.4881
 5281TIP3    H237259   1.694   2.135  16.589  0.0923  0.2973  0.4152
 5282TIP3   OH237260   0.855   5.856  12.673  0.5067 -0.0183  0.2453
 5282TIP3    H137261   0.857   5.806  12.755  0.5753 -0.9991 -0.3386
 5282TIP3    H237262   0.764   5.884  12.665  0.2715 -0.7695  0.1707
 5283TIP3   OH237263   6.245   5.229   3.398 -0.0042 -0.1840 -0.0181
 5283TIP3    H137264   6.301   5.291   3.443  0.0590  0.1017 -0.4814
 5283TIP3    H237265   6.261   5.245   3.305 -0.0892 -0.7986 -0.1444
 5284TIP3   OH237266   5.442   5.926   1.830 -0.5109  0.2683 -0.0559
 5284TIP3    H137267   5.460   5.837   1.798  0.1851  0.1092  0.7424
 5284TIP3    H237268   5.528   5.967   1.834 -0.9305  1.4180 -1.5975
 5285TIP3   OH237269   1.676   1.332  12.672 -0.0465 -0.3398 -0.0844
 5285TIP3    H137270   1.687   1.353  12.580  1.6813 -1.9209 -0.3001
 5285TIP3    H237271   1.715   1.245  12.682 -3.5554 -1.9653  1.3860
 5286TIP3   OH237272   1.279   3.889  16.386 -0.0096 -0.2897 -0.4406
 5286TIP3    H137273   1.238   3.834  16.452  0.7791  0.1124  0.4062
 5286TIP3    H237274   1.285   3.975  16.427 -1.9098  0.6557 -2.0060
 5287TIP3   OH237275   6.538   3.320  13.022  0.2299 -0.0199 -0.0359
 5287TIP3    H137276   6.513   3.410  13.041  2.8113  0.5529  1.1243
 5287TIP3    H237277   6.573   3.323  12.933  1.2070  0.3690  0.3477
 5288TIP3   OH237278   4.170   0.584   2.971  0.2131  0.8070  0.6487
 5288TIP3    H137279   4.144   0.519   2.906  2.2976 -0.6589  1.1886
 5288TIP3    H237280   4.103   0.577   3.039 -0.3778  0.2650  0.0300
 5289TIP3   OH237281   0.321   3.748  12.116 -0.0120  0.3725  0.0278
 5289TIP3    H137282   0.375   3.810  12.068 -2.2937  2.2815 -0.2910
 5289TIP3    H237283   0.313   3.673  12.058  3.8562 -0.9724  0.9354
 5290TIP3   OH237284   5.696   2.452   1.969  0.2471  0.1894  0.2070
 5290TIP3    H137285   5.684   2.396   1.893 -0.6416  0.4794  0.1151
 5290TIP3    H237286   5.714   2.392   2.041 -0.1857 -0.1833  0.0110
 5291TIP3   OH237287   6.064   2.792  15.224  0.3305 -0.6302 -0.3367
 5291TIP3    H137288   6.104   2.810  15.309  0.0637  0.4485 -0.4277
 5291TIP3    H237289   6.132   2.748  15.174  0.8446 -0.3040  0.0723
 5292TIP3   OH237290   4.472   2.778  14.343  0.3046 -0.5688 -0.2709
 5292TIP3    H137291   4.521   2.796  14.263 -1.9014 -1.6991 -1.9881
 5292TIP3    H237292   4.537   2.786  14.413  2.7395 -1.2779 -2.3040
 5293TIP3   OH237293   6.328   5.082   2.419 -0.3340 -0.3703  0.4159
 5293TIP3    H137294   6.294   5.162   2.379  0.4972 -0.0903  0.2588
 5293TIP3    H237295   6.375   5.112   2.496  1.1384 -0.5609 -0.3750
 5294TIP3   OH237296   5.014   0.623  12.791  0.7282  0.2267  0.0040
 5294TIP3    H137297   5.095   0.588  12.829  1.0139 -1.5271 -2.0677
 5294TIP3    H237298   4.944   0.571  12.830  0.6044  1.3303  1.3246
 5295TIP3   OH237299   3.497   6.567   4.015 -0.1302  0.1221 -0.0008
 5295TIP3    H137300   3.515   6.624   4.090  0.2212 -2.3305  1.9227
 5295TIP3    H237301   3.410   6.531   4.033 -0.1002 -0.4069 -0.8404
 5296TIP3   OH237302   5.966   3.607   3.588 -0.4233  0.1069  0.0441
 5296TIP3    H137303   6.017   3.598   3.668 -0.8299  0.1683  0.3157
 5296TIP3    H237304   5.994   3.691   3.550  0.1753 -0.1912 -0.1741
 5297TIP3   OH237305   4.636   4.735  14.653  0.3499  0.3323 -0.2345
 5297TIP3    H137306   4.730   4.751  14.664  0.6993 -1.0807 -0.9108
 5297TIP3    H237307   4.594   4.816  14.681  1.7215  0.6846  0.9043
 5298TIP3   OH237308   1.133   3.295   3.778 -0.7887  0.0501  0.0304
 5298TIP3    H137309   1.178   3.260   3.702 -3.1520 -0.3094 -1.2778
 5298TIP3    H237310   1.117   3.387   3.757  0.6430  0.5928  1.1565
 5299TIP3   OH237311   5.317   0.497  15.159 -0.2032 -0.2267 -0.4021
 5299TIP3    H137312   5.244   0.436  15.148 -1.9022  1.5854  0.1873
 5299TIP3    H237313   5.294   0.572  15.104  1.7980 -0.0398 -1.0630
 5300TIP3   OH237314   6.516   4.225   2.580 -0.3301 -1.0904  0.0150
 5300TIP3    H137315   6.501   4.263   2.666  0.4746  0.4408 -0.4908
 5300TIP3    H237316   6.541   4.134   2.598 -0.9365 -1.0275  1.3277
 5301TIP3   OH237317   1.175   3.011  15.497 -0.8686 -0.8579 -0.3076
 5301TIP3    H137318   1.218   3.031  15.413  0.6156  0.4094  0.6966
 5301TIP3    H237319   1.225   3.060  15.562 -4.2008  1.2050  0.9398
 5302TIP3   OH237320   4.632   0.347  15.648 -0.0483 -0.4144 -0.6139
 5302TIP3    H137321   4.612   0.255  15.667  1.3188 -0.2198  2.2697
 5302TIP3    H237322   4.547   0.391  15.653 -0.3402 -1.1072  0.9221
 5303TIP3   OH237323   3.514   2.054  11.847 -0.4052 -0.4970  0.2019
 5303TIP3    H137324   3.470   2.076  11.765  1.2669  2.1298 -0.0982
 5303TIP3    H237325   3.445   2.057  11.913 -1.1998  0.6853 -0.6489
 5304TIP3   OH237326   2.911   1.317  10.881  0.0389  0.0305  0.9898
 5304TIP3    H137327   2.917   1.228  10.848 -2.3613  0.8511 -2.1276
 5304TIP3    H237328   2.926   1.372  10.804  0.6682  2.3510  2.6522
 5305TIP3   OH237329   4.406   6.569  12.419 -0.2336  0.0575 -0.2591
 5305TIP3    H137330   4.388   6.567  12.325  0.2536 -0.1896 -0.3507
 5305TIP3    H237331   4.322   6.592  12.459 -0.7326 -0.9993 -0.6675
 5306TIP3   OH237332   3.244   2.400   3.808 -0.2768  0.2152  0.2891
 5306TIP3    H137333   3.169   2.341   3.800  1.2264 -1.5757 -2.8723
 5306TIP3    H237334   3.320   2.342   3.800  1.4581  2.1395  1.7689
 5307TIP3   OH237335   6.321   2.130   5.241  0.4671  0.2678 -0.1730
 5307TIP3    H137336   6.241   2.164   5.281  0.6717  1.5396 -0.7989
 5307TIP3    H237337   6.290   2.060   5.184 -0.1775  0.5663 -0.2079
 5308TIP3   OH237338   0.245   0.313   0.457 -0.9378  0.1038  0.0190
 5308TIP3    H137339   0.280   0.354   0.536  0.7325  2.7944 -1.9480
 5308TIP3    H237340   0.321   0.276   0.412 -1.6485 -0.1687 -1.0048
 5309TIP3   OH237341   4.983   2.014   1.633  0.2843  0.1665  0.2861
 5309TIP3    H137342   4.931   2.072   1.578  0.2991 -0.2682 -0.1996
 5309TIP3    H237343   5.006   2.066   1.710  2.1717  1.5441 -1.1385
 5310TIP3   OH237344   2.328   1.648   0.199 -0.1254 -0.4690  0.5033
 5310TIP3    H137345   2.269   1.718   0.172 -0.7601 -1.1889 -0.0338
 5310TIP3    H237346   2.392   1.690   0.256 -1.7601  0.1499  1.9398
 5311TIP3   OH237347   1.197   1.749  16.928 -0.0040  0.5683 -0.1994
 5311TIP3    H137348   1.108   1.771  16.900  0.0194 -0.2544 -0.9877
 5311TIP3    H237349   1.252   1.773  16.853  0.3414  0.3941 -0.0040
 5312TIP3   OH237350   1.862   3.224   2.952  0.1248  0.0987  0.2368
 5312TIP3    H137351   1.877   3.129   2.954  0.0256  0.0872  1.0024
 5312TIP3    H237352   1.918   3.258   3.022  0.4396  0.6475 -0.2821
 5313TIP3   OH237353   3.765   2.361  14.529  0.1058  0.4388  0.1693
 5313TIP3    H137354   3.722   2.277  14.513  1.3977 -0.3642  0.7373
 5313TIP3    H237355   3.766   2.404  14.443 -0.0935 -0.3547 -0.2386
 5314TIP3   OH237356   1.666   2.646   1.961 -0.1017  0.0444 -0.1236
 5314TIP3    H137357   1.722   2.715   1.926  0.8015 -0.0763  1.0343
 5314TIP3    H237358   1.720   2.567   1.957 -0.1001 -0.0347  1.2080
 5315TIP3   OH237359   6.421   2.281   4.335 -0.6070  0.0926  0.1720
 5315TIP3    H137360   6.463   2.342   4.395  0.9352 -0.1738 -0.5880
 5315TIP3    H237361   6.370   2.224   4.392  0.1593  0.3593  1.1631
 5316TIP3   OH237362   1.873   4.203   0.173  0.3063 -0.5226 -0.5376
 5316TIP3    H137363   1.823   4.276   0.137  0.1599  0.5187  1.5958
 5316TIP3    H237364   1.962   4.215   0.139  0.4206  1.0112  0.2170
 5317TIP3   OH237365   4.936   2.672  15.237 -0.3910  0.6768  0.0025
 5317TIP3    H137366   4.962   2.718  15.317  0.4232 -0.1917  0.2678
 5317TIP3    H237367   4.956   2.580  15.255  0.5863  0.5555 -1.5012
 5318TIP3   OH237368   6.668   0.954   1.055  0.1922  0.0786 -0.5323
 5318TIP3    H137369   6.590   0.962   1.000 -0.6238 -1.6166  0.3100
 5318TIP3    H237370   6.671   0.861   1.078  1.0157  0.5892  1.5684
 5319TIP3   OH237371   5.206   5.675  13.715  0.0639  0.4775  0.3692
 5319TIP3    H137372   5.259   5.606  13.755  1.9685  1.2280 -0.7167
 5319TIP3    H237373   5.178   5.730  13.788  1.1738  0.3097  0.9334
 5320TIP3   OH237374   6.447   4.118   0.948  0.0751  0.5369  0.0191
 5320TIP3    H137375   6.452   4.122   1.043 -0.8682 -0.5106  0.1319
 5320TIP3    H237376   6.505   4.188   0.918  1.9285 -0.3664  1.3271
 5321TIP3   OH237377   1.026   2.587  15.443 -0.1219 -0.0517  0.3792
 5321TIP3    H137378   1.106   2.575  15.392 -0.1306  1.9162 -0.1937
 5321TIP3    H237379   1.040   2.534  15.522  1.6336  0.0045  0.1561
 5322TIP3   OH237380   1.358   5.367  14.156  0.6734 -0.0092 -0.6350
 5322TIP3    H137381   1.313   5.331  14.233 -0.3391 -0.1114 -1.2473
 5322TIP3    H237382   1.331   5.310  14.084  0.8633  0.6293 -1.2220
 5323TIP3   OH237383   1.637   5.852   0.860  0.0459 -0.2288 -0.2109
 5323TIP3    H137384   1.696   5.926   0.843  0.0831 -0.5873 -1.7397
 5323TIP3    H237385   1.695   5.778   0.875 -0.0053 -0.1044  0.6830
 5324TIP3   OH237386   6.492   6.459  15.091  0.2251  0.4691  0.4658
 5324TIP3    H137387   6.430   6.429  15.024 -2.0003 -1.5750  3.2046
 5324TIP3    H237388   6.508   6.382  15.145 -0.1332  2.4998  3.7808
 5325TIP3   OH237389   6.015   4.930   0.667 -0.0218 -0.6038  0.7022
 5325TIP3    H137390   6.067   4.963   0.593  0.2772  1.2749  1.7037
 5325TIP3    H237391   6.071   4.943   0.743  0.2735 -3.8939  1.1917
 5326TIP3   OH237392   4.773   3.753  13.534 -0.1962 -0.2285  0.0447
 5326TIP3    H137393   4.758   3.711  13.619  1.3899  0.3436  0.6538
 5326TIP3    H237394   4.796   3.681  13.475  0.2249 -0.4690  0.4996
 5327TIP3   OH237395   5.837   5.962  11.072 -1.0531  0.3633 -0.3023
 5327TIP3    H137396   5.874   5.931  10.990  2.0755 -0.3147  1.2121
 5327TIP3    H237397   5.892   6.036  11.097 -1.2099 -0.1244  1.6857
 5328TIP3   OH237398   4.286   3.632  14.153 -0.2392 -0.2525  0.7082
 5328TIP3    H137399   4.312   3.577  14.227  0.2735 -0.3790  0.4341
 5328TIP3    H237400   4.219   3.690  14.189  1.9009  1.5471  1.9564
 5329TIP3   OH237401   5.237   5.283   3.520 -0.1646  0.5539  0.9475
 5329TIP3    H137402   5.269   5.351   3.580 -0.7517 -0.4545  2.4391
 5329TIP3    H237403   5.198   5.217   3.576  0.1724 -0.9352 -0.4974
 5330TIP3   OH237404   2.433   2.142  11.774 -0.5312 -0.8159  0.1590
 5330TIP3    H137405   2.510   2.086  11.772 -0.2563 -0.4576  0.4729
 5330TIP3    H237406   2.462   2.225  11.737 -0.4577 -0.3202  1.2722
 5331TIP3   OH237407   5.385   1.688   1.110 -0.1174 -0.3359  0.4226
 5331TIP3    H137408   5.454   1.730   1.057  0.4109 -0.9155  0.6419
 5331TIP3    H237409   5.426   1.674   1.195 -1.0482  0.8416  1.1000
 5332TIP3   OH237410   6.322   3.662   1.447 -0.6962  0.6258 -0.6237
 5332TIP3    H137411   6.404   3.686   1.404 -0.6166  1.0193 -0.2578
 5332TIP3    H237412   6.345   3.589   1.504 -0.6189  0.6772 -0.5889
 5333TIP3   OH237413   6.196   4.415  13.005 -0.0975  0.2838 -0.6069
 5333TIP3    H137414   6.140   4.348  13.044 -0.5012  1.6624  1.3262
 5333TIP3    H237415   6.285   4.391  13.030 -0.1296 -0.1669 -0.9280
 5334TIP3   OH237416   2.869   0.458  12.295 -0.2341 -0.6479  0.6087
 5334TIP3    H137417   2.785   0.480  12.335 -0.3207 -1.8530  1.1210
 5334TIP3    H237418   2.854   0.466  12.201 -0.2863  1.2986  0.7388
 5335TIP3   OH237419   1.859   1.726   2.187 -0.1980  0.3896  0.5532
 5335TIP3    H137420   1.923   1.679   2.241  1.0008  0.4797 -0.7410
 5335TIP3    H237421   1.776   1.715   2.233  0.4790 -0.9940  1.4984
 5336TIP3   OH237422   0.506   3.143   3.112  0.2911  0.2245  0.3262
 5336TIP3    H137423   0.484   3.075   3.049 -2.1495  0.1278  1.1655
 5336TIP3    H237424   0.471   3.112   3.195 -1.0108  2.4943  0.7182
 5337TIP3   OH237425   1.617   2.192  10.747  0.9018  0.5247 -0.0546
 5337TIP3    H137426   1.611   2.151  10.660  0.8257  0.2763  0.0676
 5337TIP3    H237427   1.604   2.120  10.808 -2.1105  1.1325  0.1602
 5338TIP3   OH237428   1.040   3.646  14.446 -0.3484  0.1289 -0.9050
 5338TIP3    H137429   1.077   3.560  14.466 -2.7123 -0.7811 -0.1698
 5338TIP3    H237430   1.100   3.708  14.488  1.7436 -1.0655 -1.9714
 5339TIP3   OH237431   5.586   6.078  13.951  0.1663 -0.2347 -0.7682
 5339TIP3    H137432   5.642   6.060  13.875  2.2055 -0.8776  0.7790
 5339TIP3    H237433   5.635   6.042  14.026 -0.9934  1.7284  1.0513
 5340TIP3   OH237434   0.055   5.247   5.025 -0.0222  0.3359 -0.1026
 5340TIP3    H137435   0.019   5.200   4.950  0.4042 -0.9407  0.4604
 5340TIP3    H237436  -0.020   5.266   5.080 -0.0245 -1.1402  0.4333
 5341TIP3   OH237437   0.955   2.467  14.114  0.1473 -0.1157  0.2284
 5341TIP3    H137438   0.927   2.414  14.189 -0.6907 -0.6353 -0.4262
 5341TIP3    H237439   0.878   2.519  14.091  0.3974  0.0437 -0.2651
 5342TIP3   OH237440   0.140   6.129   1.413  0.3651 -0.1833 -0.2364
 5342TIP3    H137441   0.124   6.222   1.395  1.4060 -0.3970 -2.6621
 5342TIP3    H237442   0.214   6.129   1.474 -1.3391  0.5549  1.9690
 5343TIP3   OH237443   3.482   5.372   5.899 -0.1384 -0.0210  0.0643
 5343TIP3    H137444   3.568   5.368   5.941 -0.3452  1.6154  0.7216
 5343TIP3    H237445   3.474   5.462   5.869 -1.1405 -0.4634 -1.0837
 5344TIP3   OH237446   5.811   5.385  12.859  0.9813 -0.2695 -0.1156
 5344TIP3    H137447   5.870   5.460  12.850 -0.7977  1.1644 -0.4098
 5344TIP3    H237448   5.730   5.413  12.816  0.0223 -2.1089  0.3900
 5345TIP3   OH237449   4.825   5.110  13.419  0.5588  0.1754 -0.0919
 5345TIP3    H137450   4.750   5.063  13.382  0.8551  0.4836 -1.0973
 5345TIP3    H237451   4.788   5.162  13.491 -0.2153  0.4091 -0.6514
 5346TIP3   OH237452   6.615   0.295  14.792  0.7060  0.6040  0.1152
 5346TIP3    H137453   6.659   0.235  14.852  0.4230 -0.3334 -0.5945
 5346TIP3    H237454   6.523   0.294  14.819  0.5579  0.0903 -0.3981
 5347TIP3   OH237455   2.012   0.188  13.045  0.4880  0.5922  0.6060
 5347TIP3    H137456   2.100   0.227  13.049  2.0213 -2.3526 -0.5986
 5347TIP3    H237457   2.007   0.151  12.956 -0.8342 -1.6399  1.5341
 5348TIP3   OH237458   5.882   6.635  11.041  0.7515 -0.2389 -0.3645
 5348TIP3    H137459   5.806   6.688  11.062 -0.9588 -3.1133  1.5385
 5348TIP3    H237460   5.850   6.571  10.977  1.1278 -2.1427  1.2238
 5349TIP3   OH237461   5.781   1.924  16.411 -0.2446  0.5433 -0.0766
 5349TIP3    H137462   5.832   1.958  16.485  1.5987 -1.0290 -0.5192
 5349TIP3    H237463   5.769   1.999  16.353 -0.9570  1.5971  1.3715
 5350TIP3   OH237464   0.779   4.043  14.974  0.2937  0.2039  0.4339
 5350TIP3    H137465   0.871   4.017  14.980  0.5399  0.3924 -1.6123
 5350TIP3    H237466   0.781   4.126  14.926 -0.8229  1.4811  2.4208
 5351TIP3   OH237467   4.865   0.914  10.456 -0.2649 -0.1584 -0.0266
 5351TIP3    H137468   4.893   0.823  10.442 -1.3628 -0.4969 -0.1400
 5351TIP3    H237469   4.927   0.966  10.406  1.0301 -0.7581  0.8979
 5352TIP3   OH237470   0.692   2.294   5.387  0.0650  0.1998 -0.3818
 5352TIP3    H137471   0.771   2.248   5.361  0.1883 -0.3522  0.8875
 5352TIP3    H237472   0.720   2.353   5.457 -0.3367  1.2644 -1.1026
 5353TIP3   OH237473   5.702   2.525  13.487  0.4034  0.1788  0.3444
 5353TIP3    H137474   5.764   2.467  13.532  1.1212 -0.5166 -1.4594
 5353TIP3    H237475   5.752   2.564  13.415 -1.0140  0.2557 -0.6483
 5354TIP3   OH237476   4.065   1.842   1.259 -0.2869 -0.1130 -0.0833
 5354TIP3    H137477   4.043   1.751   1.277  0.9601 -0.9046 -2.1932
 5354TIP3    H237478   3.996   1.873   1.201 -0.7872  0.3766  0.7419
 5355TIP3   OH237479   0.400   6.363  16.929  0.1145 -0.5781 -0.2794
 5355TIP3    H137480   0.465   6.346  16.860 -0.3511 -2.1692 -0.3606
 5355TIP3    H237481   0.363   6.449  16.906  0.9432 -0.4419 -1.2112
 5356TIP3   OH237482   1.403   6.273  14.360  0.2801 -0.4994 -0.4308
 5356TIP3    H137483   1.439   6.361  14.354  0.7699 -0.7212 -0.8694
 5356TIP3    H237484   1.465   6.225  14.416 -1.1152 -0.0225  1.6449
 5357TIP3   OH237485   5.691   2.070  13.357 -0.1276  0.2108 -0.1643
 5357TIP3    H137486   5.649   2.155  13.345 -0.0967  0.3138  0.4259
 5357TIP3    H237487   5.783   2.085  13.333 -0.2438  0.1977 -0.6199
 5358TIP3   OH237488   1.095   5.122   2.060 -0.7011 -0.3544  0.1772
 5358TIP3    H137489   1.072   5.092   2.148 -1.8441 -0.1561 -0.0446
 5358TIP3    H237490   1.076   5.216   2.061 -0.3978 -0.2870 -0.1866
 5359TIP3   OH237491   0.114   2.950  16.007 -0.2629 -0.3930 -1.0920
 5359TIP3    H137492   0.102   3.034  15.963 -1.1097 -0.8966 -1.8667
 5359TIP3    H237493   0.098   2.968  16.099  0.0444  0.3913 -1.1877
 5360TIP3   OH237494   6.733   3.021   1.823  0.3084 -0.4925 -0.0892
 5360TIP3    H137495   6.693   2.971   1.893 -4.3049  2.0442 -0.5217
 5360TIP3    H237496   6.728   2.964   1.746 -1.4128 -0.7440  0.1765
 5361TIP3   OH237497   0.199   2.033  14.825 -0.1010 -0.2367  0.3959
 5361TIP3    H137498   0.186   2.073  14.911  0.3854 -0.3515  0.5313
 5361TIP3    H237499   0.264   2.090  14.782  0.8577 -1.0489  0.7235
 5362TIP3   OH237500   0.506   1.252   5.104  0.0847 -0.0790  0.1934
 5362TIP3    H137501   0.420   1.275   5.139 -0.3891 -0.0050 -0.9816
 5362TIP3    H237502   0.559   1.331   5.115 -0.0907 -0.0189  0.6127
 5363TIP3   OH237503   1.461   1.915  11.740  0.0730  0.7783  0.1901
 5363TIP3    H137504   1.409   1.842  11.706  0.5921  0.2506  0.5122
 5363TIP3    H237505   1.532   1.925  11.676 -0.4156  1.4889 -0.2431
 5364TIP3   OH237506   4.602   4.000  15.421 -0.2051  0.0377  0.3208
 5364TIP3    H137507   4.608   4.094  15.411 -1.4084  0.0375 -0.6784
 5364TIP3    H237508   4.620   3.984  15.514  0.3402  1.2041  0.4221
 5365TIP3   OH237509   2.845   4.943   3.484 -0.4215  0.4908  0.4420
 5365TIP3    H137510   2.933   4.914   3.459 -0.1103 -1.3143  3.1616
 5365TIP3    H237511   2.848   5.038   3.476  1.7862  0.4724  0.3690
 5366TIP3   OH237512   6.121   4.709  12.055 -0.0873  0.1297  0.0746
 5366TIP3    H137513   6.152   4.682  11.969 -0.2506  0.9609 -0.2606
 5366TIP3    H237514   6.133   4.632  12.111 -1.0798 -0.8089 -0.9558
 5367TIP3   OH237515   0.246   5.135   1.087  0.1449  0.1362 -0.3138
 5367TIP3    H137516   0.202   5.163   1.007 -0.9683  1.7037  0.7655
 5367TIP3    H237517   0.257   5.041   1.078 -1.2189  0.0785 -1.7120
 5368TIP3   OH237518   1.640   4.279   4.582 -0.0391 -0.0590 -0.2507
 5368TIP3    H137519   1.612   4.369   4.569  2.1386  0.5287 -1.2603
 5368TIP3    H237520   1.641   4.241   4.493  1.0509 -0.4361 -0.0879
 5369TIP3   OH237521   2.481   2.031  11.384 -0.6112 -0.2054 -0.1503
 5369TIP3    H137522   2.390   2.054  11.404 -0.0664 -0.1772  2.7268
 5369TIP3    H237523   2.526   2.115  11.376 -0.3765 -0.1906  1.1007
 5370TIP3   OH237524   1.749   4.647  10.757 -0.3828 -0.6259  0.2593
 5370TIP3    H137525   1.782   4.567  10.716 -0.4963 -1.3077  1.4335
 5370TIP3    H237526   1.803   4.717  10.720 -1.0777 -1.0741 -1.6771
 5371TIP3   OH237527   5.152   4.880   3.020 -0.2746 -0.2015 -0.2313
 5371TIP3    H137528   5.119   4.931   3.095 -0.4564  0.9619 -1.0750
 5371TIP3    H237529   5.211   4.941   2.975 -1.4350 -0.3026 -1.9602
 5372TIP3   OH237530   1.218   4.402  15.488 -0.4963 -0.4346 -0.2932
 5372TIP3    H137531   1.164   4.480  15.498 -0.0620 -0.0708 -0.7520
 5372TIP3    H237532   1.272   4.419  15.411 -0.6721 -1.3521 -0.6382
 5373TIP3   OH237533   3.761   0.502   6.175 -0.1777  0.4844  0.1425
 5373TIP3    H137534   3.846   0.490   6.217  0.2579  0.1583 -0.8098
 5373TIP3    H237535   3.760   0.439   6.104 -2.1292 -1.1102  1.4673
 5374TIP3   OH237536   1.070   3.899   4.609  0.1532 -0.8634  0.7519
 5374TIP3    H137537   1.025   3.981   4.631 -0.0520 -1.2702  1.9314
 5374TIP3    H237538   1.014   3.831   4.645  0.9393 -1.4570  0.8729
 5375TIP3   OH237539   3.434   6.286  14.101 -0.2653 -0.2274 -0.4796
 5375TIP3    H137540   3.443   6.209  14.045  1.2589 -0.5117  0.0995
 5375TIP3    H237541   3.513   6.337  14.085 -0.5987  0.5244  0.1815
 5376TIP3   OH237542   4.304   0.455  14.166 -0.2979 -0.0843  0.4010
 5376TIP3    H137543   4.317   0.371  14.121 -0.5970  0.2126 -0.2564
 5376TIP3    H237544   4.298   0.519  14.095  0.1225  0.5232  0.9068
 5377TIP3   OH237545   0.054   0.600   3.523 -0.5114  0.2747  1.0009
 5377TIP3    H137546   0.135   0.628   3.565  1.4237 -1.8733 -1.0155
 5377TIP3    H237547   0.036   0.668   3.458  1.1196 -0.3848 -0.2024
 5378TIP3   OH237548   2.845   5.738  10.944 -0.1376  0.3255 -0.0867
 5378TIP3    H137549   2.826   5.830  10.925 -0.0735  0.4055  0.2257
 5378TIP3    H237550   2.795   5.689  10.879  1.9877  0.6346 -2.0739
 5379TIP3   OH237551   3.336   1.034  16.218  0.1011 -0.5731 -0.6992
 5379TIP3    H137552   3.412   1.092  16.224  0.0043 -0.5467  0.7364
 5379TIP3    H237553   3.358   0.960  16.275 -1.4404  0.0620  0.8110
 5380TIP3   OH237554   2.196   4.110  15.961  0.0258  0.1725 -0.5319
 5380TIP3    H137555   2.273   4.081  16.011 -0.4058 -2.3233 -1.1879
 5380TIP3    H237556   2.230   4.174  15.899  1.5730 -0.7489 -0.6852
 5381TIP3   OH237557   3.225   2.598  15.860  0.1249  0.1810  0.2597
 5381TIP3    H137558   3.133   2.573  15.857 -0.1719  1.2327  0.1205
 5381TIP3    H237559   3.267   2.542  15.794 -0.7209  0.8551 -0.8913
 5382TIP3   OH237560   0.822   5.697  12.900  0.1430  0.0320  0.2228
 5382TIP3    H137561   0.728   5.716  12.912 -0.1542 -0.6749 -0.8474
 5382TIP3    H237562   0.826   5.602  12.890  1.0684 -0.0125  0.9819
 5383TIP3   OH237563   3.489   1.903  13.089 -0.0046  0.0635  0.1138
 5383TIP3    H137564   3.541   1.930  13.165  0.3232  0.3882 -0.2252
 5383TIP3    H237565   3.520   1.814  13.069  0.3542  0.2182 -0.0279
 5384TIP3   OH237566   2.629   0.838   1.635 -0.4776  0.0616  0.4459
 5384TIP3    H137567   2.595   0.884   1.558  1.6816  0.0960 -0.5703
 5384TIP3    H237568   2.570   0.763   1.646 -0.9194  0.1300 -1.1832
 5385TIP3   OH237569   1.254   0.814  11.314 -0.3549  0.4320  0.3147
 5385TIP3    H137570   1.212   0.888  11.358  1.2108  1.4825  0.1414
 5385TIP3    H237571   1.283   0.850  11.230 -1.4453 -0.9815 -0.7066
 5386TIP3   OH237572   1.487   0.123  16.313  0.0333 -0.2138 -0.7489
 5386TIP3    H137573   1.517   0.052  16.256  2.1816  0.5441 -0.6718
 5386TIP3    H237574   1.434   0.179  16.257 -0.1354 -0.9031 -1.2887
 5387TIP3   OH237575   2.265   1.023  11.552 -0.0407  0.1816  0.7586
 5387TIP3    H137576   2.280   0.928  11.557 -0.4484  0.1733  2.3458
 5387TIP3    H237577   2.346   1.059  11.517  0.4820 -0.6636  1.0731
 5388TIP3   OH237578   6.025   6.772  15.745  0.0002  0.1062 -0.4286
 5388TIP3    H137579   5.971   6.780  15.824 -0.7008 -1.9553 -0.6398
 5388TIP3    H237580   6.101   6.722  15.773  0.2427  0.2361 -0.8440
 5389TIP3   OH237581   0.076   0.777  13.005  0.0397  0.2608 -1.3028
 5389TIP3    H137582   0.161   0.733  13.003  0.3786  0.8652 -0.8629
 5389TIP3    H237583   0.013   0.708  13.024  0.5929 -0.0030 -0.3352
 5390TIP3   OH237584   1.109   0.137  16.696  0.5803  0.3278  0.4923
 5390TIP3    H137585   1.200   0.144  16.667 -0.0615  0.2033 -1.7686
 5390TIP3    H237586   1.100   0.047  16.727  1.0579  0.1316  0.0598
 5391TIP3   OH237587   1.124   5.118   3.357  0.5663  0.0346  0.5605
 5391TIP3    H137588   1.113   5.198   3.306 -0.3853 -0.3393  0.1459
 5391TIP3    H237589   1.155   5.147   3.443 -0.6063  0.9143  0.7042
 5392TIP3   OH237590   5.733   0.982   5.837  0.4543  0.5383 -0.4932
 5392TIP3    H137591   5.805   1.045   5.833  0.6337  0.4121  0.5868
 5392TIP3    H237592   5.767   0.910   5.889 -0.2103  0.1526 -0.5870
 5393TIP3   OH237593   0.482   3.716  11.055 -0.0767 -0.3260  0.0035
 5393TIP3    H137594   0.392   3.724  11.025 -0.0271 -1.1126 -0.3886
 5393TIP3    H237595   0.532   3.771  10.994 -0.1699 -0.7264 -0.4486
 5394TIP3   OH237596   4.034   1.693  16.216  0.1991 -0.0555 -0.6378
 5394TIP3    H137597   4.100   1.626  16.199 -0.3908 -1.2276  1.3392
 5394TIP3    H237598   4.020   1.690  16.311 -0.4884  2.2884 -0.5961
 5395TIP3   OH237599   0.211   3.657   5.422 -0.1581 -0.2367 -0.0415
 5395TIP3    H137600   0.248   3.632   5.507 -0.4472  0.8860  0.4263
 5395TIP3    H237601   0.176   3.745   5.436 -1.4452 -0.5787 -0.9499
 5396TIP3   OH237602   1.200   5.999   5.327 -0.0317  0.3195  0.4654
 5396TIP3    H137603   1.147   5.921   5.311 -0.2732  0.7451 -0.9215
 5396TIP3    H237604   1.245   5.980   5.409 -1.0445 -0.7492  0.8114
 5397TIP3   OH237605   3.344   3.411  13.955  0.2419 -0.2547  0.5500
 5397TIP3    H137606   3.392   3.381  14.031  0.1554 -2.2464 -0.1119
 5397TIP3    H237607   3.318   3.330  13.910 -3.0283  0.6997  0.4447
 5398TIP3   OH237608   3.256   1.667  16.221  0.0450  1.4259  0.1282
 5398TIP3    H137609   3.221   1.723  16.291 -1.0031  1.7569 -0.6387
 5398TIP3    H237610   3.193   1.676  16.150  0.6168  0.3764 -0.5307
 5399TIP3   OH237611   2.184   5.670   6.401 -0.1767  0.4759  0.2273
 5399TIP3    H137612   2.109   5.728   6.410 -1.7841 -1.3382 -0.6158
 5399TIP3    H237613   2.158   5.608   6.332  3.0273  1.1256 -1.7790
 5400TIP3   OH237614   1.365   0.917   3.300  0.7547  0.3978 -0.0047
 5400TIP3    H137615   1.321   0.870   3.370 -0.0837 -0.4053 -1.0441
 5400TIP3    H237616   1.440   0.862   3.278  1.5945  1.1295  0.8797
 5401TIP3   OH237617   3.220   4.578   0.187 -0.1085 -0.1311 -0.2435
 5401TIP3    H137618   3.186   4.642   0.124  1.7502  1.6895  0.5075
 5401TIP3    H237619   3.313   4.570   0.166  0.3819 -0.0896  1.7209
 5402TIP3   OH237620   3.674   3.029   3.365 -0.5385 -0.5157  0.2896
 5402TIP3    H137621   3.614   3.038   3.439  0.0247 -0.5345  0.7586
 5402TIP3    H237622   3.736   2.962   3.393  1.4007  1.4515  1.0052
 5403TIP3   OH237623   4.432   4.256   5.855  0.0639  0.2838  0.7032
 5403TIP3    H137624   4.484   4.281   5.779  1.9759 -1.6612  1.2856
 5403TIP3    H237625   4.403   4.339   5.893  0.8466  1.3518 -0.9350
 5404TIP3   OH237626   1.444   5.374   3.023  0.0718  0.3324 -0.3718
 5404TIP3    H137627   1.372   5.315   3.045 -0.4046  0.7641 -0.7697
 5404TIP3    H237628   1.496   5.325   2.959 -1.4143  1.0645 -2.2308
 5405TIP3   OH237629   4.271   3.787   2.188  0.0146 -0.7095  0.1722
 5405TIP3    H137630   4.228   3.745   2.114  1.3297 -0.0038 -1.0361
 5405TIP3    H237631   4.211   3.772   2.262 -0.5435 -2.8488 -0.6386
 5406TIP3   OH237632   0.951   5.162   4.624  0.2139 -0.8942 -0.0361
 5406TIP3    H137633   0.869   5.118   4.599 -0.1214  0.5330 -1.6389
 5406TIP3    H237634   1.018   5.095   4.613 -0.6501 -1.9265  0.7476
 5407TIP3   OH237635   1.726   5.463  11.320  0.3201  0.2096  0.3046
 5407TIP3    H137636   1.731   5.549  11.360  1.0111  0.3413 -0.0562
 5407TIP3    H237637   1.634   5.454  11.295  0.3967  1.1940 -0.4095
 5408TIP3   OH237638   0.433   1.373  16.680  0.0246 -0.0578  0.2107
 5408TIP3    H137639   0.414   1.410  16.766 -0.9900 -0.3040  0.1063
 5408TIP3    H237640   0.347   1.369  16.637  0.4417 -0.4846 -0.5878
 5409TIP3   OH237641   1.704   6.266  14.620  0.0634  0.2435  0.4816
 5409TIP3    H137642   1.704   6.361  14.605 -1.3837  0.2111  0.1679
 5409TIP3    H237643   1.767   6.253  14.692 -0.1216  1.4989  0.8915
 5410TIP3   OH237644   6.752   6.164   6.383 -0.2401 -0.5728  0.2108
 5410TIP3    H137645   6.780   6.100   6.449  0.4003 -0.2501  0.2686
 5410TIP3    H237646   6.821   6.231   6.385 -0.4583 -0.3202 -0.4509
 5411TIP3   OH237647   1.422   6.614  10.944 -0.0960 -0.2282  0.6334
 5411TIP3    H137648   1.517   6.614  10.960  0.4628 -0.0711 -2.1836
 5411TIP3    H237649   1.392   6.699  10.977  0.9419  0.1889  0.5384
 5412TIP3   OH237650   6.700   4.812   3.022 -0.0333  0.1267 -0.5778
 5412TIP3    H137651   6.620   4.866   3.024  0.7950  1.4828 -1.9504
 5412TIP3    H237652   6.669   4.726   2.993 -0.9403  0.8131 -1.7937
 5413TIP3   OH237653   4.710   3.671  11.762 -0.0292 -0.4149  0.1112
 5413TIP3    H137654   4.769   3.596  11.761 -1.4522 -1.5902 -1.6953
 5413TIP3    H237655   4.630   3.638  11.803  0.1803  0.9057  1.7138
 5414TIP3   OH237656   5.744   0.966  13.885 -0.4077  0.1052 -0.2411
 5414TIP3    H137657   5.752   1.026  13.959  2.8286  1.2772 -1.3353
 5414TIP3    H237658   5.828   0.920  13.883 -1.4543 -1.8857 -1.5992
 5415TIP3   OH237659   3.202   3.979   4.625 -0.0618 -0.2210 -0.0016
 5415TIP3    H137660   3.153   4.056   4.596  2.2018  1.4777  0.4317
 5415TIP3    H237661   3.269   3.966   4.558 -0.1263 -1.5741  0.1663
 5416TIP3   OH237662   3.254   4.921   2.525  0.0836  0.0821 -0.4923
 5416TIP3    H137663   3.305   4.964   2.594 -0.8492 -1.5601  1.3148
 5416TIP3    H237664   3.320   4.875   2.472  0.6315 -3.2717  2.6908
 5417TIP3   OH237665   5.187   4.271   5.478  0.6345 -0.3250 -0.4533
 5417TIP3    H137666   5.112   4.324   5.450 -0.5405 -1.4418  0.4641
 5417TIP3    H237667   5.223   4.317   5.553 -0.0860 -0.5536  0.0421
 5418TIP3   OH237668   1.476   2.985  16.488  0.1331 -0.1161  0.2720
 5418TIP3    H137669   1.479   3.079  16.471 -0.2567  0.0265  0.9469
 5418TIP3    H237670   1.432   2.977  16.573  1.1227 -0.8454  0.7476
 5419TIP3   OH237671   4.509   2.864   0.090 -0.4243  0.4648 -1.2880
 5419TIP3    H137672   4.602   2.852   0.107 -0.6433  0.1679 -0.2235
 5419TIP3    H237673   4.498   2.959   0.084 -0.0703  0.5052 -1.3376
 5420TIP3   OH237674   5.000   5.591   1.138 -0.1350 -0.6041  0.1611
 5420TIP3    H137675   4.943   5.605   1.214 -0.5673  0.9120 -0.4028
 5420TIP3    H237676   4.947   5.539   1.078 -0.0128 -1.2976  0.6533
 5421TIP3   OH237677   1.791   0.416  13.610 -0.0784 -0.1578 -0.1030
 5421TIP3    H137678   1.749   0.498  13.583  0.4757 -0.2120 -1.1969
 5421TIP3    H237679   1.821   0.377  13.528  0.8521 -0.7992  0.5233
 5422TIP3   OH237680   6.392   3.416   3.217  0.2373  0.1774  0.0741
 5422TIP3    H137681   6.484   3.442   3.210  0.2216  0.3063  0.3151
 5422TIP3    H237682   6.378   3.356   3.145  1.0370 -1.3723  1.1547
 5423TIP3   OH237683   6.202   4.799   1.322  0.1989 -0.3094 -0.1924
 5423TIP3    H137684   6.269   4.749   1.368 -0.7576 -0.5606  0.9859
 5423TIP3    H237685   6.245   4.829   1.242  1.5197 -0.9675  0.2391
 5424TIP3   OH237686   2.025   1.557   3.979 -0.1097  0.4975 -0.2276
 5424TIP3    H137687   2.064   1.624   3.923  1.4455  2.4435  2.9058
 5424TIP3    H237688   2.023   1.597   4.066 -1.2698 -2.7447  1.3891
 5425TIP3   OH237689   2.254   4.761  11.050  0.1478 -0.6301 -0.9351
 5425TIP3    H137690   2.303   4.744  10.970  1.2575  1.8353 -0.8478
 5425TIP3    H237691   2.241   4.856  11.052 -1.0837 -0.7583  1.1191
 5426TIP3   OH237692   4.922   0.276   4.115  0.3057 -0.5940  0.0710
 5426TIP3    H137693   5.009   0.277   4.073 -0.1704  2.8931 -1.1680
 5426TIP3    H237694   4.864   0.242   4.047  0.0313  1.9831 -1.1024
 5427TIP3   OH237695   3.080   3.800   3.250  0.1223 -0.5412  0.1583
 5427TIP3    H137696   3.064   3.725   3.307  0.4477 -0.1687  0.7489
 5427TIP3    H237697   3.104   3.761   3.165 -0.5862 -1.0970  0.2031
 5428TIP3   OH237698   4.759   2.055  11.600 -0.3902  0.0863 -0.1759
 5428TIP3    H137699   4.804   2.043  11.516 -0.0466  1.8729 -0.2687
 5428TIP3    H237700   4.745   1.965  11.632 -1.2535 -0.6938 -2.4982
 5429TIP3   OH237701   0.330   1.157  12.528  0.0761  0.0612  0.2092
 5429TIP3    H137702   0.242   1.123  12.517  0.1025 -0.0742  0.4126
 5429TIP3    H237703   0.318   1.248  12.555  0.0132  0.6171 -1.5940
 5430TIP3   OH237704   3.018   1.219   1.082  0.4594 -0.8837 -0.4458
 5430TIP3    H137705   3.042   1.129   1.059  0.0091 -0.9285 -0.7497
 5430TIP3    H237706   3.094   1.253   1.129  0.2462 -1.7734  0.6031
 5431TIP3   OH237707   1.361   3.883   0.191 -0.3009  0.4779 -0.0698
 5431TIP3    H137708   1.412   3.806   0.166 -0.9347 -0.3995  1.2201
 5431TIP3    H237709   1.312   3.907   0.113 -1.5762 -1.6293  0.0089
 5432TIP3   OH237710   1.576   5.873   2.260  0.8779  0.1976  0.3388
 5432TIP3    H137711   1.628   5.849   2.183 -0.0978 -1.1985  0.0739
 5432TIP3    H237712   1.557   5.966   2.249  2.1409  0.4018 -0.2491
 5433TIP3   OH237713   1.942   5.475   2.303  0.3916 -0.1523 -0.3286
 5433TIP3    H137714   1.959   5.543   2.369 -2.1056  0.4968 -0.2600
 5433TIP3    H237715   1.932   5.395   2.353 -0.3640  0.1313 -0.0158
 5434TIP3   OH237716   1.926   0.742  14.073 -0.1576 -0.0879 -0.1869
 5434TIP3    H137717   1.857   0.678  14.055 -2.0223  2.0697 -1.3232
 5434TIP3    H237718   1.928   0.749  14.169 -0.8745 -0.8751 -0.1038
 5435TIP3   OH237719   3.967   5.044  16.242 -0.2656  0.7886  0.1105
 5435TIP3    H137720   4.012   5.061  16.324 -0.7325  0.3392  0.4639
 5435TIP3    H237721   4.024   5.081  16.175  0.0811  1.2275  0.6397
 5436TIP3   OH237722   0.282   0.773   0.396  0.3348 -0.1526 -0.5819
 5436TIP3    H137723   0.191   0.792   0.374  0.4061  0.4414 -0.3754
 5436TIP3    H237724   0.325   0.858   0.397  0.9457 -0.4465 -0.8972
 5437TIP3   OH237725   2.618   4.812  16.206 -0.5085  0.0017 -0.0786
 5437TIP3    H137726   2.602   4.906  16.208 -0.5019  0.0154 -0.5047
 5437TIP3    H237727   2.562   4.780  16.135 -0.6946 -0.3502  0.2237
 5438TIP3   OH237728   6.301   1.861  16.728 -0.0739 -0.0118 -0.6115
 5438TIP3    H137729   6.344   1.942  16.698  1.2046 -0.7809 -0.9529
 5438TIP3    H237730   6.363   1.823  16.790 -0.8780 -0.5128 -0.0942
 5439TIP3   OH237731   6.373   3.528  14.166 -0.2730  0.0337 -0.2545
 5439TIP3    H137732   6.386   3.463  14.235 -0.2342  2.6285  2.3506
 5439TIP3    H237733   6.456   3.576  14.161 -1.7423  3.0713  1.5571
 5440TIP3   OH237734   1.641   6.782  12.355 -0.1914  0.1097  0.0902
 5440TIP3    H137735   1.609   6.859  12.400  0.5982  0.0085  0.8443
 5440TIP3    H237736   1.680   6.815  12.274  0.5518  0.5542  0.6256
 5441TIP3   OH237737   5.110   4.109  14.540  0.0358 -0.5817 -0.3643
 5441TIP3    H137738   5.187   4.053  14.530 -0.1381 -1.1824  1.2528
 5441TIP3    H237739   5.108   4.129  14.634 -1.4949 -0.1712 -0.4610
 5442TIP3   OH237740   2.522   2.001  17.035 -0.3514  0.2119  0.5764
 5442TIP3    H137741   2.531   1.912  17.069  0.6536  0.4191  0.8992
 5442TIP3    H237742   2.428   2.013  17.020 -0.3788 -1.3688 -0.7567
 5443TIP3   OH237743   3.708   4.075   1.530 -0.5652  0.3396  0.3808
 5443TIP3    H137744   3.690   4.054   1.621 -1.6960  1.5260  0.4608
 5443TIP3    H237745   3.676   3.998   1.481 -1.4573  0.3684  0.8843
 5444TIP3   OH237746   0.382   2.837  15.684  0.5265  0.1742  0.3031
 5444TIP3    H137747   0.371   2.931  15.700 -1.4004  0.1833 -0.8064
 5444TIP3    H237748   0.335   2.795  15.756 -1.2249  0.1389 -0.8001
 5445TIP3   OH237749   3.772   4.012  12.547  0.0347  0.1340  0.1471
 5445TIP3    H137750   3.744   3.921  12.544 -0.6021  0.3240 -3.6040
 5445TIP3    H237751   3.691   4.062  12.548  0.3715  0.6811  0.4198
 5446TIP3   OH237752   2.760   1.024   3.101 -0.1834 -0.1163  0.8538
 5446TIP3    H137753   2.722   1.099   3.147 -0.1922  1.0204 -0.8942
 5446TIP3    H237754   2.714   1.021   3.017 -0.8518 -2.7180  1.2309
 5447TIP3   OH237755   4.294   6.623  14.332  0.4238 -0.0552 -0.0666
 5447TIP3    H137756   4.289   6.549  14.271  1.5278  0.1966 -0.4785
 5447TIP3    H237757   4.221   6.679  14.307 -0.0824 -0.7221 -0.1211
 5448TIP3   OH237758   3.243   1.195  15.300 -0.2851 -0.1799 -0.1419
 5448TIP3    H137759   3.178   1.247  15.348  0.5166  1.1596 -0.4508
 5448TIP3    H237760   3.327   1.238  15.319  0.6401 -2.2371  0.7791
 5449TIP3   OH237761   4.034   3.153   1.929 -0.1145  0.3252 -0.5963
 5449TIP3    H137762   4.022   3.245   1.951 -0.8448  0.3967 -1.2398
 5449TIP3    H237763   4.086   3.154   1.848 -1.0698  0.2274 -1.2303
 5450TIP3   OH237764   6.230   3.820  13.519  0.4742  0.1317  0.0872
 5450TIP3    H137765   6.172   3.864  13.580  0.7795 -0.8840  1.1421
 5450TIP3    H237766   6.176   3.808  13.440 -0.4229  0.1198  0.6846
 5451TIP3   OH237767   2.316   4.812   5.623  0.1622 -0.3345  0.3363
 5451TIP3    H137768   2.312   4.899   5.584 -1.1235 -1.8058 -3.2641
 5451TIP3    H237769   2.225   4.793   5.647  0.3276 -0.9686  0.4789
 5452TIP3   OH237770   5.159   3.417  10.507  0.2344  0.2753 -0.0525
 5452TIP3    H137771   5.143   3.383  10.419  1.7326  1.1036 -0.6889
 5452TIP3    H237772   5.220   3.354  10.546  2.1852  1.5785 -0.8540
 5453TIP3   OH237773   6.143   0.889  16.028 -0.1615  0.3071  0.1632
 5453TIP3    H137774   6.220   0.944  16.012  0.9006 -0.9532  0.8052
 5453TIP3    H237775   6.119   0.856  15.942 -2.0579  3.2530 -0.6079
 5454TIP3   OH237776   2.833   0.618   2.364  0.1718 -0.4994 -0.1761
 5454TIP3    H137777   2.743   0.647   2.377  0.4352  0.3214 -0.1360
 5454TIP3    H237778   2.829   0.522   2.372 -0.4729 -0.3875  1.1778
 5455TIP3   OH237779   0.505   6.061   2.946  0.2859 -0.1694 -0.0032
 5455TIP3    H137780   0.515   6.150   2.911 -2.6014  0.2631 -0.0305
 5455TIP3    H237781   0.513   6.072   3.041 -0.3270  0.1939  0.0131
 5456TIP3   OH237782   5.398   5.590  12.045 -0.9764 -0.6899  0.4980
 5456TIP3    H137783   5.387   5.627  12.133  3.0457  2.4906 -0.0187
 5456TIP3    H237784   5.343   5.645  11.989  2.2091  2.7739  0.2700
 5457TIP3   OH237785   6.489   2.952  14.635  0.0640  0.3592 -0.1872
 5457TIP3    H137786   6.454   2.899  14.563  0.0500  1.9843 -1.4354
 5457TIP3    H237787   6.433   3.029  14.638  0.9519  0.9984  0.6232
 5458TIP3   OH237788   5.615   4.996   1.703  0.5487  0.1274 -0.3087
 5458TIP3    H137789   5.658   4.911   1.706 -0.9462 -0.6486  0.9364
 5458TIP3    H237790   5.521   4.976   1.710 -0.0335  1.7521 -2.2481
 5459TIP3   OH237791   4.134   6.296   6.026 -0.3145  0.4360 -0.1151
 5459TIP3    H137792   4.155   6.383   6.059 -1.5900  0.5367  0.4960
 5459TIP3    H237793   4.164   6.236   6.094  0.2389  0.4199 -0.3726
 5460TIP3   OH237794   6.752   3.295  11.248 -0.5512  1.0968  0.0445
 5460TIP3    H137795   6.841   3.262  11.231 -0.7531 -0.2670  1.4642
 5460TIP3    H237796   6.707   3.222  11.290 -2.0699  2.1006  0.2255
 5461TIP3   OH237797   2.712   3.313   4.606  0.4506  0.2965 -0.3742
 5461TIP3    H137798   2.628   3.299   4.562  1.5597 -0.5350 -2.3642
 5461TIP3    H237799   2.693   3.296   4.698 -1.2508 -1.4739 -0.9613
 5462TIP3   OH237800   1.891   1.500  16.342 -0.1375 -0.2090 -0.0717
 5462TIP3    H137801   1.897   1.452  16.425 -1.1091 -0.3502 -0.0718
 5462TIP3    H237802   1.941   1.580  16.356 -0.3008 -0.2335  0.6504
 5463TIP3   OH237803   0.700   5.544   2.979 -0.0796  0.3698  0.0504
 5463TIP3    H137804   0.667   5.632   2.961 -0.3616  0.2371 -0.0900
 5463TIP3    H237805   0.793   5.548   2.957 -0.2350  0.4456 -0.6134
 5464TIP3   OH237806   2.835   1.754  15.364 -0.1146 -0.1502  0.8845
 5464TIP3    H137807   2.845   1.736  15.270  0.7854 -1.1198  1.1471
 5464TIP3    H237808   2.909   1.810  15.385  0.5387 -1.1528  1.3076
 5465TIP3   OH237809   3.303   0.795  12.780  0.3533  0.1150  0.2784
 5465TIP3    H137810   3.393   0.785  12.812 -0.7133 -2.1346  3.0545
 5465TIP3    H237811   3.249   0.769  12.855 -2.5680 -0.7610 -1.9728
 5466TIP3   OH237812   5.075   4.964  15.412  0.5757  0.2992 -0.0242
 5466TIP3    H137813   5.023   5.011  15.477  0.2443 -0.7428  0.4813
 5466TIP3    H237814   5.063   5.014  15.331  0.6212  1.3443  0.5969
 5467TIP3   OH237815   1.779   5.593  16.726  0.2966  0.9454  0.0994
 5467TIP3    H137816   1.786   5.661  16.659 -0.1540  0.2976 -0.6142
 5467TIP3    H237817   1.692   5.555  16.713  0.4911  0.3221  0.5774
 5468TIP3   OH237818   5.279   3.906  14.802 -0.0712 -0.3108 -0.0526
 5468TIP3    H137819   5.292   3.992  14.763 -2.4565 -0.5398 -1.5901
 5468TIP3    H237820   5.199   3.916  14.854  1.5312 -0.7507  2.6829
 5469TIP3   OH237821   2.246   3.448   5.770  0.1605 -0.2834  0.0148
 5469TIP3    H137822   2.170   3.488   5.813 -1.2731 -2.4321 -0.3499
 5469TIP3    H237823   2.260   3.366   5.818  3.0339  0.5675  0.8071
 5470TIP3   OH237824   5.416   6.118   2.556  0.2667  0.3196  0.6332
 5470TIP3    H137825   5.410   6.144   2.464 -0.7069 -0.0626  0.5853
 5470TIP3    H237826   5.509   6.129   2.577  0.6461 -0.3185 -0.6088
 5471TIP3   OH237827   6.034   5.490   4.689 -0.0024 -0.1176 -0.1100
 5471TIP3    H137828   6.119   5.454   4.715  0.0833 -0.0925 -0.3635
 5471TIP3    H237829   6.042   5.506   4.595 -0.3848 -0.3879 -0.1889
 5472TIP3   OH237830   6.475   4.138   3.523  0.6406 -0.6030 -0.3681
 5472TIP3    H137831   6.465   4.068   3.459 -1.1196 -1.6706  0.9685
 5472TIP3    H237832   6.436   4.215   3.481 -0.7188 -1.3486 -0.5459
 5473TIP3   OH237833   3.525   5.768  12.295  0.1706 -0.2675 -0.3600
 5473TIP3    H137834   3.446   5.718  12.317  0.0633  0.5835  1.2906
 5473TIP3    H237835   3.511   5.795  12.204 -1.8970  0.6503  0.1730
 5474TIP3   OH237836   1.357   0.894   3.817 -0.3076  0.8052 -0.1804
 5474TIP3    H137837   1.428   0.891   3.882 -1.1298 -0.8683  0.6969
 5474TIP3    H237838   1.401   0.883   3.733  0.4273 -1.4965  0.4314
 5475TIP3   OH237839   0.611   6.003  13.590 -0.1399  0.1755  1.2742
 5475TIP3    H137840   0.597   6.094  13.563 -0.1395  0.1752  1.2734
 5475TIP3    H237841   0.560   5.994  13.670  1.4168  0.7508  2.3949
 5476TIP3   OH237842   3.930   1.082   2.151 -0.5441 -0.5070  0.1174
 5476TIP3    H137843   3.893   1.102   2.065 -0.4864  1.7753  0.5453
 5476TIP3    H237844   3.853   1.068   2.207 -0.5905 -1.4282 -0.1548
 5477TIP3   OH237845   5.943   4.829  16.400  0.3880 -0.0589 -0.0405
 5477TIP3    H137846   6.027   4.819  16.445  0.0926 -0.0986  0.5175
 5477TIP3    H237847   5.880   4.840  16.471 -0.2314 -1.1200 -0.4183
 5478TIP3   OH237848   4.368   1.172  15.207  0.3265  0.4258  0.7063
 5478TIP3    H137849   4.454   1.149  15.172 -0.0607  1.6719 -1.1973
 5478TIP3    H237850   4.385   1.245  15.266  0.4388  1.7117 -0.8669
 5479TIP3   OH237851   0.449   4.838   2.973  0.1838  0.0398  0.2521
 5479TIP3    H137852   0.409   4.855   3.058  0.2675  0.0504  0.2900
 5479TIP3    H237853   0.543   4.831   2.992  0.1697 -0.2948  0.2156
 5480TIP3   OH237854   5.235   1.645  11.616 -0.5352 -0.3808  0.7063
 5480TIP3    H137855   5.148   1.626  11.652 -0.5095  0.9918  1.5428
 5480TIP3    H237856   5.294   1.592  11.668 -0.8474 -1.3129  0.1419
 5481TIP3   OH237857   4.979   2.327  13.690  0.2758 -0.2274 -0.3180
 5481TIP3    H137858   5.006   2.327  13.598 -0.0064 -2.2563 -0.4581
 5481TIP3    H237859   5.058   2.353  13.738  0.3290  1.2082 -1.1196
 5482TIP3   OH237860   4.885   6.762   3.306 -0.4434  0.7786 -0.1917
 5482TIP3    H137861   4.885   6.672   3.339  1.9930  0.7711 -0.0171
 5482TIP3    H237862   4.832   6.759   3.227  0.0535 -0.9529 -0.4942
 5483TIP3   OH237863   6.596   4.280  15.641 -0.2448 -0.0810  0.3395
 5483TIP3    H137864   6.619   4.213  15.706 -1.8799 -0.5767  0.4523
 5483TIP3    H237865   6.563   4.231  15.566  2.1868  0.4533 -1.1826
 5484TIP3   OH237866   1.645   6.372   4.084  0.0734  0.4305  0.0041
 5484TIP3    H137867   1.591   6.378   4.162  1.1192 -0.0529  0.8063
 5484TIP3    H237868   1.587   6.394   4.012 -0.9113  0.9152  0.9213
 5485TIP3   OH237869   6.007   0.334  10.312  0.4067  0.5615 -0.2133
 5485TIP3    H137870   5.925   0.286  10.322 -0.5016  1.6945 -1.7381
 5485TIP3    H237871   6.025   0.370  10.398 -0.3494 -0.2291  0.2934
 5486TIP3   OH237872   2.489   5.672   1.026  0.0201  0.0715 -0.1694
 5486TIP3    H137873   2.534   5.720   0.956 -2.0881  2.2753 -0.1183
 5486TIP3    H237874   2.552   5.668   1.097  0.9579  0.9976 -0.9196
 5487TIP3   OH237875   2.917   5.342  11.623  0.0576  0.4315 -0.3810
 5487TIP3    H137876   2.834   5.389  11.612 -1.1161 -1.8947 -2.3856
 5487TIP3    H237877   2.909   5.301  11.710 -1.7433 -1.1902 -1.2460
 5488TIP3   OH237878   6.417   5.504   5.699  0.2703 -0.0181 -0.1007
 5488TIP3    H137879   6.395   5.508   5.792  0.5060 -1.2892  0.0295
 5488TIP3    H237880   6.349   5.449   5.661  0.4651  0.0733 -0.5892
 5489TIP3   OH237881   3.274   1.888  15.978  0.1994 -0.4968 -0.1819
 5489TIP3    H137882   3.224   1.953  16.027  0.8364  1.0835 -1.5321
 5489TIP3    H237883   3.210   1.847  15.920 -0.2714 -1.3504  0.9108
 5490TIP3   OH237884   2.270   2.341   3.886 -0.1810  0.2473 -0.4875
 5490TIP3    H137885   2.293   2.261   3.932 -0.9496  0.0822 -0.3842
 5490TIP3    H237886   2.238   2.311   3.801 -1.3865  0.3803 -0.0888
 5491TIP3   OH237887   3.994   6.674  16.504 -0.4986  0.0751  0.2016
 5491TIP3    H137888   3.969   6.588  16.470 -0.1281  0.3403 -0.7764
 5491TIP3    H237889   3.921   6.732  16.480  0.1008  0.4210 -0.8469
 5492TIP3   OH237890   2.833   1.702   5.251 -0.2243 -0.3434  0.7807
 5492TIP3    H137891   2.782   1.738   5.179  0.9356  0.0622  0.1430
 5492TIP3    H237892   2.861   1.779   5.301  1.1227 -0.4150  0.1821
 5493TIP3   OH237893   0.220   3.475   3.302  0.1926 -0.6886 -0.6369
 5493TIP3    H137894   0.289   3.418   3.268  0.4469 -0.6222 -0.2405
 5493TIP3    H237895   0.140   3.443   3.261  0.3412 -1.2914 -0.4720
 5494TIP3   OH237896   0.482   5.754   2.436  0.3527 -0.1610  0.5120
 5494TIP3    H137897   0.496   5.780   2.345  2.4706  0.0536  0.8476
 5494TIP3    H237898   0.478   5.837   2.485 -0.4764 -0.2846  0.6766
 5495TIP3   OH237899   3.453   6.165   1.775 -0.0777  0.1845 -0.2880
 5495TIP3    H137900   3.461   6.210   1.691  1.1990 -1.0023 -0.8287
 5495TIP3    H237901   3.477   6.074   1.757  0.0279 -0.1446  1.3208
 5496TIP3   OH237902   1.290   5.109  15.799  0.2160 -0.3603  0.1347
 5496TIP3    H137903   1.323   5.051  15.730  1.6453  1.8706 -1.1689
 5496TIP3    H237904   1.209   5.146  15.764  0.1180 -0.4007  0.3158
 5497TIP3   OH237905   6.481   2.164   1.303  0.3050 -0.5457 -0.3625
 5497TIP3    H137906   6.530   2.246   1.291  1.8469 -1.5356 -1.2164
 5497TIP3    H237907   6.515   2.127   1.384 -0.1901 -0.4823 -0.1218
 5498TIP3   OH237908   2.275   3.872   1.833  0.3215 -0.5405  0.2253
 5498TIP3    H137909   2.206   3.938   1.835 -0.0044 -0.8911  0.7328
 5498TIP3    H237910   2.322   3.889   1.752 -0.7240 -0.6682 -0.4225
 5499TIP3   OH237911   6.435   3.826   0.580  0.4181  0.0998  0.4488
 5499TIP3    H137912   6.359   3.882   0.561  0.2956  0.6435  2.3401
 5499TIP3    H237913   6.508   3.887   0.585  0.7192 -0.2344  0.1448
 5500TIP3   OH237914   2.601   3.351  14.202 -0.2610 -0.5506  0.7789
 5500TIP3    H137915   2.627   3.317  14.288 -0.0671 -0.5552  0.7188
 5500TIP3    H237916   2.518   3.396  14.218 -1.0802 -1.9658  0.6811
 5501TIP3   OH237917   0.059   5.746  16.950  0.0672  0.3094  0.1972
 5501TIP3    H137918   0.012   5.747  17.034 -0.8783  0.8556 -0.3243
 5501TIP3    H237919   0.045   5.658  16.916 -1.8901  0.9011 -0.6490
 5502TIP3   OH237920   2.928   6.385   0.918 -0.4370  0.1750 -0.5833
 5502TIP3    H137921   2.957   6.358   1.005  1.8850  2.1166 -0.6557
 5502TIP3    H237922   2.836   6.358   0.914 -1.4342  2.2044  3.4432
 5503TIP3   OH237923   3.469   4.803   2.386 -0.7490  0.4373 -0.1452
 5503TIP3    H137924   3.434   4.716   2.372 -2.2380  0.4925  2.5697
 5503TIP3    H237925   3.564   4.793   2.375 -0.8305 -1.6688  0.6629
 5504TIP3   OH237926   4.609   1.628  10.970  1.0578  0.7153  0.4500
 5504TIP3    H137927   4.693   1.634  11.016  0.2306  0.4060  2.0524
 5504TIP3    H237928   4.543   1.635  11.038 -0.2267 -1.1854 -0.4919
 5505TIP3   OH237929   1.026   6.168   6.037  0.1300 -0.5701  0.1413
 5505TIP3    H137930   0.978   6.144   6.117 -0.8405  1.2943  0.1635
 5505TIP3    H237931   1.040   6.263   6.045  1.3678 -0.6054 -1.2068
 5506TIP3   OH237932   4.994   2.861   2.374  0.7436 -0.1254  0.1818
 5506TIP3    H137933   5.068   2.922   2.367  0.8815 -0.3685 -0.6409
 5506TIP3    H237934   5.023   2.784   2.326  0.4401 -0.7193  0.9337
 5507TIP3   OH237935   5.981   2.401   2.208 -0.1656 -0.2179 -0.0566
 5507TIP3    H137936   5.939   2.339   2.148  2.1027 -2.7738  0.7719
 5507TIP3    H237937   6.034   2.457   2.152  1.4963 -2.2201 -0.6015
 5508TIP3   OH237938   2.216   6.251   2.321  0.1527 -0.2015  0.0701
 5508TIP3    H137939   2.311   6.254   2.315  0.0757 -0.2566 -2.4659
 5508TIP3    H237940   2.196   6.163   2.351  0.8951 -0.5037 -0.2973
 5509TIP3   OH237941   6.650   0.321   0.424 -0.4513 -0.4372 -0.0418
 5509TIP3    H137942   6.586   0.305   0.355 -0.1464  1.6938 -0.8759
 5509TIP3    H237943   6.729   0.349   0.378  1.1237 -2.8137  0.9637
 5510TIP3   OH237944   0.357   4.109  13.645  0.4424 -0.5060 -0.0907
 5510TIP3    H137945   0.320   4.182  13.695 -1.5007 -0.0129 -2.0878
 5510TIP3    H237946   0.289   4.041  13.646  0.7027 -0.8224 -1.2800
 5511TIP3   OH237947   3.398   6.188  13.055 -0.2137  0.4277  1.2674
 5511TIP3    H137948   3.343   6.265  13.070 -1.2979  0.2828 -1.4336
 5511TIP3    H237949   3.456   6.213  12.984 -0.2184 -1.0644  0.7057
 5512TIP3   OH237950   5.774   3.266  11.620  0.1710 -0.2040 -0.2203
 5512TIP3    H137951   5.822   3.191  11.656 -0.9276 -0.1152  1.5884
 5512TIP3    H237952   5.690   3.265  11.667  0.3453  2.4750  0.3234
 5513TIP3   OH237953   6.643   1.003  11.013 -0.5419 -0.0640  1.0257
 5513TIP3    H137954   6.737   0.991  11.000 -0.7691 -2.3955  1.1039
 5513TIP3    H237955   6.633   1.096  11.034  1.6827  0.3104  0.6618
 5514TIP3   OH237956   1.579   5.593  15.473  0.2038  0.3384  0.3464
 5514TIP3    H137957   1.500   5.556  15.512  0.0623  0.2333 -0.0402
 5514TIP3    H237958   1.626   5.631  15.547 -0.2491  0.4822  0.5639
 5515TIP3   OH237959   3.877   4.284  16.382 -0.1514 -0.0744  0.2220
 5515TIP3    H137960   3.917   4.357  16.429  2.1375 -1.4615  0.5580
 5515TIP3    H237961   3.828   4.237  16.450  1.1030 -0.6860  0.7189
 5516TIP3   OH237962   1.948   0.615   2.018 -0.2840  0.4921  0.0720
 5516TIP3    H137963   1.940   0.673   2.093 -2.6092  1.5981 -0.9271
 5516TIP3    H237964   2.024   0.648   1.970 -0.0712  1.1139  0.8156
 5517TIP3   OH237965   3.857   6.284  13.794  0.3462 -0.6602 -0.3857
 5517TIP3    H137966   3.769   6.288  13.758 -0.4940 -1.8473  1.3827
 5517TIP3    H237967   3.859   6.202  13.843  2.4993 -0.7349 -0.4954
 5518TIP3   OH237968   1.668   5.072  11.214  0.2260  0.8970  0.3050
 5518TIP3    H137969   1.597   5.087  11.152 -0.8901 -2.1693  0.7171
 5518TIP3    H237970   1.717   4.998  11.178  1.0919  0.6888  1.7987
 5519TIP3   OH237971   2.188   2.439  12.207 -0.1008 -0.8797  0.0554
 5519TIP3    H137972   2.230   2.479  12.131 -0.1919  1.1555  1.0253
 5519TIP3    H237973   2.253   2.446  12.277 -0.8011 -0.7900  0.7062
 5520TIP3   OH237974   0.181   5.072  16.510 -0.0481 -0.1487 -0.2175
 5520TIP3    H137975   0.105   5.086  16.566 -0.0355  0.4049 -0.3291
 5520TIP3    H237976   0.233   5.006  16.556  0.4481  1.0050  0.9306
 5521TIP3   OH237977   4.295   1.752   5.770  0.1486 -0.4625  0.7661
 5521TIP3    H137978   4.203   1.768   5.749 -0.0960 -1.6071  0.8783
 5521TIP3    H237979   4.337   1.737   5.685  0.5346  1.4224  0.5973
 5522TIP3   OH237980   6.468   0.413  15.362 -0.0656  0.1419 -0.0889
 5522TIP3    H137981   6.462   0.361  15.442  2.5756 -0.2574 -0.0465
 5522TIP3    H237982   6.410   0.369  15.300  0.3872 -1.5392  0.6283
 5523TIP3   OH237983   4.604   4.306   0.055  0.0546 -0.2588  0.5920
 5523TIP3    H137984   4.544   4.353  -0.003  0.2246 -0.9287 -0.1442
 5523TIP3    H237985   4.677   4.367   0.069 -0.9968  0.7542  1.8967
 5524TIP3   OH237986   4.988   3.968   2.260  0.0985 -0.9209  0.2075
 5524TIP3    H137987   4.895   3.965   2.281  0.5630 -0.4606  2.6640
 5524TIP3    H237988   4.994   3.936   2.170 -2.4642 -0.4360 -0.2026
 5525TIP3   OH237989   1.403   2.999   3.934  0.0027 -0.3510  0.6617
 5525TIP3    H137990   1.410   2.904   3.935  1.1836 -0.3549 -1.7662
 5525TIP3    H237991   1.378   3.021   3.844  0.5148  1.6492  0.9488
 5526TIP3   OH237992   6.274   0.140  15.444 -0.0345 -0.0869  0.1458
 5526TIP3    H137993   6.242   0.214  15.496  0.2135  1.4237 -1.7437
 5526TIP3    H237994   6.298   0.179  15.360 -1.8011 -2.6583 -1.6589
 5527TIP3   OH237995   5.137   0.111  14.028  0.1217  0.4803 -0.4322
 5527TIP3    H137996   5.147   0.186  13.970 -0.5045  0.2650 -0.8335
 5527TIP3    H237997   5.080   0.051  13.979 -1.1976  0.6958  0.7741
 5528TIP3   OH237998   1.476   0.404   2.314 -0.0986 -0.2322  0.0662
 5528TIP3    H137999   1.570   0.419   2.305  0.0691 -0.7794  0.8071
 5528TIP3    H238000   1.461   0.402   2.409 -0.9518  0.4023 -0.0510
 5529TIP3   OH238001   1.186   1.671   2.166 -0.6589 -0.0235 -0.6577
 5529TIP3    H138002   1.143   1.707   2.244  0.6466  0.1268  0.0221
 5529TIP3    H238003   1.116   1.662   2.102 -2.0931 -1.6890  1.0336
 5530TIP3   OH238004   5.144   1.497  14.654  0.6241  0.4955  0.1229
 5530TIP3    H138005   5.213   1.446  14.694  0.2722 -1.4532 -1.5771
 5530TIP3    H238006   5.083   1.516  14.725 -0.2924 -3.3097  0.5483
 5531TIP3   OH238007   5.564   0.990   1.699 -0.4212 -0.0469 -0.2068
 5531TIP3    H138008   5.506   0.927   1.657  0.7574 -0.0386 -1.9427
 5531TIP3    H238009   5.510   1.068   1.712 -1.1617 -0.4963 -0.5182
 5532TIP3   OH238010   3.230   3.767  13.749  0.0879 -0.4296  0.2301
 5532TIP3    H138011   3.160   3.827  13.778  1.6159  1.0475  1.0181
 5532TIP3    H238012   3.310   3.803  13.787  1.0455 -3.3674  1.2759
 5533TIP3   OH238013   5.760   2.938   0.888 -0.2907 -0.0441  0.2194
 5533TIP3    H138014   5.679   2.947   0.837 -1.2734  0.5822  1.8371
 5533TIP3    H238015   5.753   3.003   0.957  2.3536  1.1327 -0.4946
 5534TIP3   OH238016   6.731   5.320   4.629  0.3862  0.0419  0.3860
 5534TIP3    H138017   6.757   5.353   4.543 -0.2500  0.1108  0.2112
 5534TIP3    H238018   6.752   5.390   4.690 -2.0958  1.3611 -0.1306
 5535TIP3   OH238019   3.511   3.316   2.003 -0.0651  0.4305 -0.6481
 5535TIP3    H138020   3.534   3.302   2.095  1.6279  2.2761 -0.7297
 5535TIP3    H238021   3.594   3.309   1.956 -0.8152  0.1477 -1.9717
 5536TIP3   OH238022   4.124   5.326  13.646 -0.2801 -0.1119  0.2034
 5536TIP3    H138023   4.095   5.313  13.737 -0.5702  0.1976  0.1613
 5536TIP3    H238024   4.134   5.421  13.639 -0.9400 -0.0739 -0.2892
 5537TIP3   OH238025   1.931   0.191  15.996 -0.0649  0.6494 -0.2708
 5537TIP3    H138026   2.026   0.195  15.998 -0.0518  1.5568 -1.5892
 5537TIP3    H238027   1.902   0.269  16.043 -0.1255  1.2105 -1.2172
 5538TIP3   OH238028   5.805   3.345  13.240  0.1433  0.0923  0.0161
 5538TIP3    H138029   5.752   3.422  13.216 -0.7745 -0.4736  0.1788
 5538TIP3    H238030   5.744   3.272  13.235  0.6443 -0.4378  1.3026
 5539TIP3   OH238031   1.467   0.017  15.196  0.5214  0.3758 -0.2529
 5539TIP3    H138032   1.385  -0.031  15.191  0.0556  0.9090  1.6121
 5539TIP3    H238033   1.523  -0.037  15.252  1.7408 -0.3490 -2.0978
 5540TIP3   OH238034   4.212   5.933   0.272 -0.6389 -0.3215  0.1531
 5540TIP3    H138035   4.226   5.858   0.214  1.7732 -0.7137  1.1401
 5540TIP3    H238036   4.117   5.934   0.287 -0.6324 -5.0727  2.4508
 5541TIP3   OH238037   4.904   1.208  15.941 -0.2977  0.6936  0.3792
 5541TIP3    H138038   4.956   1.134  15.972 -0.7197 -0.8421 -2.2365
 5541TIP3    H238039   4.955   1.285  15.965  2.2565 -0.6372 -0.3772
 5542TIP3   OH238040   6.468   5.117  14.092  0.3485  0.1778 -0.2723
 5542TIP3    H138041   6.514   5.182  14.040  0.7495 -0.2777 -0.4897
 5542TIP3    H238042   6.528   5.095  14.163 -0.2578  0.9161  0.4982
 5543TIP3   OH238043   0.566   5.200  12.073 -0.3030 -0.5548  0.3665
 5543TIP3    H138044   0.609   5.130  12.123  0.8537  0.6692  1.1570
 5543TIP3    H238045   0.490   5.158  12.033  0.1138 -2.1520  1.1800
 5544TIP3   OH238046   5.474   0.999  16.478  0.5732 -0.3413 -0.3691
 5544TIP3    H138047   5.533   0.929  16.449  1.1978  0.2611 -0.5585
 5544TIP3    H238048   5.523   1.045  16.546 -0.1466 -0.5678  0.3232
 5545TIP3   OH238049   6.558   6.687  16.627  0.0361  0.6984  0.1862
 5545TIP3    H138050   6.478   6.672  16.577  1.0884 -1.2636 -1.0627
 5545TIP3    H238051   6.606   6.752  16.577  0.5231 -0.3307 -0.7144
 5546TIP3   OH238052   3.149   3.024  12.459 -0.5999 -0.5086  0.9339
 5546TIP3    H138053   3.185   3.108  12.431 -0.1460 -1.0498 -0.1499
 5546TIP3    H238054   3.054   3.035  12.451 -0.4997 -0.5189 -0.4953
 5547TIP3   OH238055   2.734   4.053   1.889  0.6635 -0.4758 -0.1383
 5547TIP3    H138056   2.715   4.123   1.952  1.6152  0.5687 -0.9832
 5547TIP3    H238057   2.813   4.011   1.923 -0.4743 -1.8865  0.9350
 5548TIP3   OH238058   2.127   1.319  15.999 -0.0547  0.3435 -0.0363
 5548TIP3    H138059   2.221   1.338  15.999  0.9298 -3.5399  0.8987
 5548TIP3    H238060   2.111   1.278  16.084 -2.0002 -1.3899 -1.1373
 5549TIP3   OH238061   0.907   5.266  14.734 -0.1639 -0.1072  0.7223
 5549TIP3    H138062   0.927   5.347  14.687  0.3499 -1.1681 -0.9623
 5549TIP3    H238063   0.816   5.247  14.711  0.3942 -1.1672 -0.7577
 5550TIP3   OH238064   2.996   2.624  14.384 -0.4162  0.3536  0.0791
 5550TIP3    H138065   2.963   2.536  14.401 -0.3746 -0.1265 -2.0049
 5550TIP3    H238066   3.084   2.611  14.350 -0.3422  1.2048 -0.0893
 5551TIP3   OH238067   5.339   1.098   5.096 -0.6129 -0.2546 -0.2973
 5551TIP3    H138068   5.385   1.065   5.019 -1.4252 -0.8204 -0.5560
 5551TIP3    H238069   5.276   1.029   5.118 -1.6482  0.6825 -0.2365
 5552TIP3   OH238070   4.628   6.297  13.223  0.0749  0.4817  0.1752
 5552TIP3    H138071   4.567   6.238  13.267 -0.0334  1.8302  1.8943
 5552TIP3    H238072   4.713   6.253  13.232  0.0829  0.7782  1.8962
 5553TIP3   OH238073   2.991   3.721  14.762 -0.5325  0.0313  0.4099
 5553TIP3    H138074   3.007   3.758  14.675 -0.8421 -0.9434 -0.0684
 5553TIP3    H238075   3.078   3.712  14.801 -0.4224  0.8518  0.3703
 5554TIP3   OH238076   6.736   5.465   2.253  0.0506  0.2802  0.4315
 5554TIP3    H138077   6.803   5.428   2.310 -1.2564 -0.1240  1.7862
 5554TIP3    H238078   6.783   5.523   2.195  1.5829 -0.0590  1.2805
 5555TIP3   OH238079   1.700   2.068   1.507 -0.3104  0.5053 -0.1297
 5555TIP3    H138080   1.750   2.149   1.496  1.8212 -0.5848  1.0031
 5555TIP3    H238081   1.761   2.007   1.547 -2.2485 -1.2976  0.2603
 5556TIP3   OH238082   0.407   1.470   1.823  0.2292 -0.0759  1.0331
 5556TIP3    H138083   0.443   1.547   1.780  0.2269 -0.4947  0.2656
 5556TIP3    H238084   0.316   1.493   1.842 -0.0244 -0.2054  0.0074
 5557TIP3   OH238085   1.704   0.035   1.370 -0.4573 -0.2401 -0.4092
 5557TIP3    H138086   1.626   0.083   1.400 -0.7689 -0.9673 -0.0453
 5557TIP3    H238087   1.777   0.079   1.414 -0.4445  1.5586 -2.0620
 5558TIP3   OH238088   3.616   4.834  13.724 -0.4202 -0.3156  0.2136
 5558TIP3    H138089   3.557   4.905  13.700  0.5973  0.8673  1.1109
 5558TIP3    H238090   3.589   4.808  13.812 -1.1787 -1.4911 -0.3364
 5559TIP3   OH238091   3.267   3.562  15.473 -0.4706 -0.1700  0.2850
 5559TIP3    H138092   3.178   3.591  15.491 -0.3270  0.1881  0.4215
 5559TIP3    H238093   3.321   3.606  15.539 -0.2967 -1.0406  0.7256
 5560TIP3   OH238094   4.409   6.382   3.368  0.5465 -0.6096  0.0831
 5560TIP3    H138095   4.376   6.355   3.282  2.1235  0.5118 -0.9417
 5560TIP3    H238096   4.332   6.416   3.414  0.0101  0.6605 -1.6671
 5561TIP3   OH238097   4.685   1.426  10.415 -0.5888 -0.4456 -0.6976
 5561TIP3    H138098   4.773   1.422  10.453  0.1197  3.6910 -1.3632
 5561TIP3    H238099   4.696   1.397  10.324 -0.2566 -1.2626 -0.4064
 5562TIP3   OH238100   5.240   5.401  13.542 -0.5614 -0.0088  0.3904
 5562TIP3    H138101   5.170   5.436  13.598 -1.2653 -0.9960  0.1398
 5562TIP3    H238102   5.222   5.437  13.455 -0.5788 -0.0110  0.3928
 5563TIP3   OH238103   2.058   6.531   1.680  0.7056 -0.5567  0.1752
 5563TIP3    H138104   1.984   6.579   1.644 -1.3860 -2.9029  1.0567
 5563TIP3    H238105   2.098   6.592   1.743 -2.0131  0.0205  1.4901
 5564TIP3   OH238106   0.532   3.855  13.532 -0.0414 -0.0421  0.1536
 5564TIP3    H138107   0.547   3.777  13.586 -1.1467 -0.2042  0.2390
 5564TIP3    H238108   0.549   3.928  13.592 -0.8170 -0.2214  0.6085
 5565TIP3   OH238109   2.728   3.457  15.593 -0.0104  0.1532  0.3470
 5565TIP3    H138110   2.800   3.424  15.539  0.6209  1.9785  0.0063
 5565TIP3    H238111   2.651   3.454  15.536  0.6914  2.2741 -0.7895
 5566TIP3   OH238112   1.414   5.713   5.879  0.4563 -0.0304  0.7099
 5566TIP3    H138113   1.439   5.729   5.788  0.6497  0.6488  0.8753
 5566TIP3    H238114   1.441   5.623   5.896  0.8645  0.0009  0.2447
 5567TIP3   OH238115   5.551   1.898  16.247  0.1568 -0.5221 -0.1038
 5567TIP3    H138116   5.612   1.884  16.320 -0.1268 -0.3440  0.1701
 5567TIP3    H238117   5.473   1.846  16.271  0.3916 -1.1629 -0.6942
 5568TIP3   OH238118   1.035   0.499   1.747 -0.1379 -0.0908  0.2683
 5568TIP3    H138119   0.971   0.563   1.716  0.2311 -0.5142 -1.4912
 5568TIP3    H238120   1.050   0.522   1.838 -2.1208  0.5780  0.4744
 5569TIP3   OH238121   5.684   0.587  16.647  0.6484  0.2163  0.1655
 5569TIP3    H138122   5.772   0.589  16.684 -0.0663 -0.2680  1.9915
 5569TIP3    H238123   5.696   0.560  16.556  2.1491 -3.1565  1.2365
 5570TIP3   OH238124   5.716   3.401  16.033  0.2343 -0.4698 -0.3263
 5570TIP3    H138125   5.690   3.418  15.943  0.8751 -1.0079 -0.6181
 5570TIP3    H238126   5.795   3.453  16.046 -0.9757  1.2602  0.5992
 5571TIP3   OH238127   1.264   4.544   3.554 -0.1047 -0.0789  0.6626
 5571TIP3    H138128   1.244   4.623   3.504  1.8255 -0.6814 -1.2025
 5571TIP3    H238129   1.244   4.472   3.494  1.5028 -0.8599  1.0240
 5572TIP3   OH238130   2.362   6.735  15.535  0.6232 -0.0351  0.3329
 5572TIP3    H138131   2.362   6.660  15.476  0.2452 -0.4597  0.8656
 5572TIP3    H238132   2.455   6.758  15.544  0.5959  1.6216 -2.3832
 5573TIP3   OH238133   3.919   5.142   1.561  0.1484 -0.6280  0.1864
 5573TIP3    H138134   3.830   5.111   1.580  0.0538 -0.9928 -0.8083
 5573TIP3    H238135   3.910   5.237   1.555 -0.4284 -0.7470 -1.1368
 5574TIP3   OH238136   4.147   4.694   0.826 -1.0066 -0.7772  0.3283
 5574TIP3    H138137   4.116   4.747   0.900 -1.1467 -0.8085  0.2916
 5574TIP3    H238138   4.159   4.756   0.755 -1.0914 -0.7814  0.3099
 5575TIP3   OH238139   1.721   3.155  16.308  0.5198 -0.4307 -0.5896
 5575TIP3    H138140   1.774   3.233  16.322 -0.0686 -0.3473  1.4180
 5575TIP3    H238141   1.761   3.088  16.364 -0.5654 -0.7890 -0.2119
 5576TIP3   OH238142   6.628   0.651   1.879 -0.2613  0.1222  0.2443
 5576TIP3    H138143   6.628   0.645   1.784 -0.3859 -0.8363  0.2927
 5576TIP3    H238144   6.651   0.743   1.898 -1.7804  0.7257 -0.7169
 5577TIP3   OH238145   0.755   4.268  14.591  0.3468  0.1052 -0.2583
 5577TIP3    H138146   0.673   4.231  14.625  0.1470  1.5778  0.9441
 5577TIP3    H238147   0.816   4.264  14.664  1.2008 -0.4393 -0.9754
 5578TIP3   OH238148   3.610   6.720   4.248  0.6453 -0.4980  0.1263
 5578TIP3    H138149   3.583   6.720   4.340  1.1126  0.5894  0.2779
 5578TIP3    H238150   3.703   6.745   4.250  0.6613 -0.4613 -0.6370
 5579TIP3   OH238151   5.333   2.907   2.626  0.1044  0.0145 -0.1224
 5579TIP3    H138152   5.366   2.964   2.695 -0.5197  0.3068 -0.0531
 5579TIP3    H238153   5.395   2.835   2.622 -0.2573 -0.3969  1.2737
 5580TIP3   OH238154   3.744   2.028   2.775  0.1941  0.5158 -0.0045
 5580TIP3    H138155   3.684   1.988   2.712 -0.1844  1.5578 -0.3148
 5580TIP3    H238156   3.687   2.062   2.844  0.5607  0.0031  0.5655
 5581TIP3   OH238157   5.400   1.175  17.054  0.6933  0.1796  0.1730
 5581TIP3    H138158   5.494   1.182  17.074  0.6638 -1.2928  0.9680
 5581TIP3    H238159   5.359   1.239  17.113  1.1744  0.7904 -0.1335
 5582TIP3   OH238160   3.785   6.782   0.685 -0.2466  0.2322  0.1752
 5582TIP3    H138161   3.741   6.808   0.766 -1.6639 -0.4037 -0.3410
 5582TIP3    H238162   3.768   6.854   0.624  1.9682  1.3437  0.7796
 5583TIP3   OH238163   4.405   6.618  15.689  0.0031 -0.2427  0.5276
 5583TIP3    H138164   4.344   6.619  15.763  1.1460 -2.2504  1.5698
 5583TIP3    H238165   4.350   6.595  15.613 -0.8127 -0.3170  1.1278
 5584TIP3   OH238166   4.024   6.783   5.752 -0.3456  0.4855 -0.1047
 5584TIP3    H138167   4.077   6.833   5.814  0.0111  0.5960 -0.4876
 5584TIP3    H238168   4.078   6.780   5.672 -0.9613  0.6983 -0.5366
 5585TIP3   OH238169   6.377   1.810   0.635  0.4733 -0.2178  0.3846
 5585TIP3    H138170   6.302   1.853   0.675 -0.2631 -0.8263 -0.3161
 5585TIP3    H238171   6.410   1.750   0.703 -0.7823 -1.2663  0.1023
 5586TIP3   OH238172   1.361   4.913  10.450 -0.4695  0.1304  0.3177
 5586TIP3    H138173   1.315   4.961  10.381  0.2778 -0.3089 -0.5028
 5586TIP3    H238174   1.354   4.970  10.527 -0.2652  1.2120 -0.4311
 5587TIP3   OH238175   6.309   3.225   4.687 -0.0237  0.2102 -0.3874
 5587TIP3    H138176   6.352   3.269   4.614 -2.6246 -1.2943 -3.0500
 5587TIP3    H238177   6.349   3.139   4.691 -1.0443 -0.3237 -1.2480
 5588TIP3   OH238178   4.448   6.161  13.396 -0.9045  0.1985  0.2183
 5588TIP3    H138179   4.432   6.072  13.427  1.1577 -0.6084 -0.8347
 5588TIP3    H238180   4.459   6.212  13.476 -1.3866 -0.6413  0.8385
 5589TIP3   OH238181   2.379   2.951   1.189  0.6541  0.1458  0.8348
 5589TIP3    H138182   2.378   2.899   1.108  1.0396 -1.2562  1.6836
 5589TIP3    H238183   2.342   3.036   1.164 -1.5878 -1.0567 -0.2827
 5590TIP3   OH238184   4.669   4.618  15.820  0.3337  0.1803 -0.1833
 5590TIP3    H138185   4.693   4.667  15.741 -1.6440  0.2788 -0.7701
 5590TIP3    H238186   4.588   4.658  15.851  0.7210 -0.2860  1.5469
 5591TIP3   OH238187   6.792   5.713  12.447  0.2128  0.2037 -0.6680
 5591TIP3    H138188   6.878   5.721  12.487 -0.2393 -0.6772  0.5493
 5591TIP3    H238189   6.752   5.637  12.490 -1.8148  1.5797  0.0421
 5592TIP3   OH238190   0.531   2.014  14.358  0.4842  0.4552 -0.3552
 5592TIP3    H138191   0.494   2.094  14.396  1.0490  0.1739  0.8401
 5592TIP3    H238192   0.457   1.968  14.320 -0.5266 -0.2526  2.2316
 5593TIP3   OH238193   4.924   4.717  15.498  0.2786 -0.8208  0.1279
 5593TIP3    H138194   4.964   4.690  15.581  1.0658 -0.1081 -0.0057
 5593TIP3    H238195   4.983   4.784  15.464 -1.7965  1.4356  0.6728
 5594TIP3   OH238196   3.297   1.430  14.496 -0.1937 -0.5045  0.4207
 5594TIP3    H138197   3.262   1.409  14.583 -0.1082  1.1965  0.8943
 5594TIP3    H238198   3.232   1.394  14.435 -1.5551  0.4446  1.2421
 5595TIP3   OH238199   1.388   2.280   3.289  0.3302 -0.1944 -0.3287
 5595TIP3    H138200   1.349   2.356   3.332 -0.8467  0.2196 -2.0226
 5595TIP3    H238201   1.454   2.317   3.230 -0.1424 -0.4753 -1.0496
 5596TIP3   OH238202   5.756   5.889   0.375 -0.5462 -0.9563 -0.0223
 5596TIP3    H138203   5.755   5.936   0.291 -1.6203 -0.5519  0.1942
 5596TIP3    H238204   5.664   5.881   0.399 -0.3446 -2.4532  0.3707
 5597TIP3   OH238205   4.484   1.880  16.993 -0.0562  0.0233  0.0327
 5597TIP3    H138206   4.440   1.960  16.965 -2.0249 -1.6136 -1.9516
 5597TIP3    H238207   4.414   1.824  17.026  1.3020 -0.8441  1.6247
 5598TIP3   OH238208   3.298   6.785   3.895  0.1436  0.4709  0.2116
 5598TIP3    H138209   3.374   6.730   3.913  0.3440  0.7117  0.1030
 5598TIP3    H238210   3.277   6.825   3.980  0.0216  0.2601  0.2821
 5599TIP3   OH238211   5.795   4.795   1.722  0.3641 -0.2540  0.1024
 5599TIP3    H138212   5.823   4.741   1.796 -0.7863 -1.9385 -0.5994
 5599TIP3    H238213   5.872   4.802   1.666  0.9176  0.0280  0.8913
 5600TIP3   OH238214   4.403   3.277  16.479  0.4530 -0.4050  0.2789
 5600TIP3    H138215   4.362   3.321  16.554  0.8604  0.2143  0.1505
 5600TIP3    H238216   4.493   3.261  16.508  1.2630  1.7883 -0.8093
 5601TIP3   OH238217   2.749   5.577  11.879 -0.0995 -0.1727  0.2014
 5601TIP3    H138218   2.805   5.621  11.943 -1.9418  0.0341  1.7331
 5601TIP3    H238219   2.741   5.640  11.807  1.4425 -0.1426  0.0077
 5602TIP3   OH238220   2.295   0.807  13.754 -0.2560 -0.1170 -0.0596
 5602TIP3    H138221   2.244   0.730  13.779 -2.1856  0.7347 -1.1059
 5602TIP3    H238222   2.368   0.772  13.703 -0.2309 -1.3285  0.7621
 5603TIP3   OH238223   6.275   1.503  11.739 -0.1842 -0.3125 -0.0631
 5603TIP3    H138224   6.218   1.476  11.668 -0.8569  2.8822 -0.8636
 5603TIP3    H238225   6.216   1.527  11.810  0.3841 -1.0251  0.6759
 5604TIP3   OH238226   1.288   0.093  15.649  0.1413 -0.5767  0.3522
 5604TIP3    H138227   1.296   0.141  15.566 -3.2499 -0.7338 -0.2150
 5604TIP3    H238228   1.212   0.132  15.691 -2.4937 -4.9101  0.1453
 5605TIP3   OH238229   0.347   4.916   4.440  0.7617 -0.6807  0.4039
 5605TIP3    H138230   0.442   4.909   4.447  0.7543 -0.1316  1.2563
 5605TIP3    H238231   0.315   4.828   4.459  0.9710 -0.2126  3.4560
 5606TIP3   OH238232   3.351   0.869   1.022  0.7241  0.0611  0.3196
 5606TIP3    H138233   3.430   0.834   1.063  2.0835  2.8330  0.2990
 5606TIP3    H238234   3.366   0.963   1.016 -1.7267  0.4567 -1.6013
 5607TIP3   OH238235   4.632   3.153  12.626  0.2193 -0.6074 -0.9283
 5607TIP3    H138236   4.669   3.162  12.714 -0.7513  2.1944 -0.6887
 5607TIP3    H238237   4.551   3.103  12.639 -0.2157  0.2759 -0.0890
 5608TIP3   OH238238   2.431   0.625  12.906  0.0108 -0.0585  0.6341
 5608TIP3    H138239   2.514   0.628  12.857 -0.4872 -1.2342 -0.3491
 5608TIP3    H238240   2.456   0.596  12.994  0.7510  0.5243  0.6229
 5609TIP3   OH238241   6.159   2.218  15.791 -0.5691  0.4538  0.2160
 5609TIP3    H138242   6.141   2.126  15.770 -0.7701  0.8345 -1.4250
 5609TIP3    H238243   6.078   2.249  15.834 -0.9705  0.1735 -0.3274
 5610TIP3   OH238244   0.197   1.592  11.087  0.2406 -0.0252  0.3419
 5610TIP3    H138245   0.271   1.589  11.148  0.8632  1.8443 -0.2556
 5610TIP3    H238246   0.237   1.590  11.000 -0.2709  2.0103 -0.0016
 5611TIP3   OH238247   1.545   4.011   3.611  0.3592  0.7517 -0.3520
 5611TIP3    H138248   1.461   3.970   3.633  0.4659  1.0682  0.7526
 5611TIP3    H238249   1.547   4.013   3.516 -0.0552 -0.9673 -0.4434
 5612TIP3   OH238250   0.248   6.134   0.209 -0.1030 -0.2588 -0.2624
 5612TIP3    H138251   0.167   6.119   0.161  0.2268  3.5176 -2.3277
 5612TIP3    H238252   0.238   6.221   0.248  1.4380 -1.3520  2.9857
 5613TIP3   OH238253   3.127   0.308  15.937 -0.1528  0.0732 -0.3848
 5613TIP3    H138254   3.186   0.248  15.892 -1.4772 -1.1566 -0.5410
 5613TIP3    H238255   3.179   0.342  16.010  1.0682 -0.1707 -1.1074
 5614TIP3   OH238256   4.944   2.946   0.508  0.0939 -0.3516  0.6026
 5614TIP3    H138257   4.985   2.964   0.423  0.8303  0.4422  1.1029
 5614TIP3    H238258   5.017   2.950   0.570 -0.6604  0.6339  1.4645
 5615TIP3   OH238259   1.911   0.287   6.079  0.1652  0.4953  0.7125
 5615TIP3    H138260   1.975   0.342   6.124  0.0116 -0.3454  2.0275
 5615TIP3    H238261   1.953   0.262   5.997  1.2524  0.5138  1.2506
 5616TIP3   OH238262   4.024   3.618   6.597  0.2026 -0.0108  0.3266
 5616TIP3    H138263   4.093   3.568   6.554 -0.6010 -1.6363  0.8413
 5616TIP3    H238264   3.959   3.552   6.623 -0.9958  1.3338  0.8711
 5617TIP3   OH238265   4.830   6.235  14.825  0.3369 -0.3288  0.2062
 5617TIP3    H138266   4.879   6.228  14.907  1.1624 -0.9320 -0.3162
 5617TIP3    H238267   4.741   6.211  14.849  0.5620 -0.4845  0.9342
 5618TIP3   OH238268   0.668   2.265   0.595  0.1513  0.1724  0.1402
 5618TIP3    H138269   0.660   2.228   0.507  0.1078  0.1746  0.1431
 5618TIP3    H238270   0.715   2.198   0.645  0.5231  0.3361  0.0158
 5619TIP3   OH238271   0.650   3.183   3.677 -0.1325 -0.3148  0.0798
 5619TIP3    H138272   0.721   3.161   3.616  2.3841  1.4211  2.1498
 5619TIP3    H238273   0.603   3.254   3.634 -0.0128 -0.8015 -0.8924
 5620TIP3   OH238274   1.620   0.617  12.858  0.0469 -0.1005 -0.4248
 5620TIP3    H138275   1.681   0.634  12.929  0.4222 -0.6522 -0.6093
 5620TIP3    H238276   1.673   0.573  12.791 -1.3182 -4.4119  1.0245
 5621TIP3   OH238277   2.185   3.541   4.772 -0.0928  0.5336  0.1034
 5621TIP3    H138278   2.199   3.532   4.677  0.2772 -0.3170  0.2290
 5621TIP3    H238279   2.129   3.617   4.781 -1.2706 -0.1888 -0.8899
 5622TIP3   OH238280   2.354   4.760   1.106  0.1499 -0.0763  0.0483
 5622TIP3    H138281   2.436   4.752   1.057  0.8289 -0.8080  1.2449
 5622TIP3    H238282   2.326   4.669   1.120 -0.2096  0.1290  0.6989
 5623TIP3   OH238283   3.911   2.234   4.023  0.3387  0.2039 -0.0988
 5623TIP3    H138284   3.950   2.174   3.959  0.3515 -0.5135  0.5692
 5623TIP3    H238285   3.930   2.194   4.108 -3.3036 -1.1834  0.2669
 5624TIP3   OH238286   4.737   4.242  14.269  0.1852  0.5010 -0.1095
 5624TIP3    H138287   4.824   4.216  14.240  0.1435  0.3748 -0.1243
 5624TIP3    H238288   4.747   4.257  14.363  0.2440  0.5770 -0.1288
 5625TIP3   OH238289   4.134   4.976  10.998  0.0058  0.3773 -0.3789
 5625TIP3    H138290   4.179   5.033  11.061 -0.9214 -0.4572  1.1078
 5625TIP3    H238291   4.041   4.988  11.018 -0.5625  2.0851 -3.3839
 5626TIP3   OH238292   6.003   6.674   4.799 -0.4789  0.6742  0.4388
 5626TIP3    H138293   5.915   6.690   4.764  0.1405  1.2791 -0.9048
 5626TIP3    H238294   6.004   6.719   4.883 -1.9090 -0.5431  1.1573
 5627TIP3   OH238295   5.597   5.440  12.731 -0.5380  0.0730 -0.0932
 5627TIP3    H138296   5.596   5.375  12.662 -1.6774 -0.8573  0.7678
 5627TIP3    H238297   5.507   5.469  12.739 -0.0038  2.0623 -0.6954
 5628TIP3   OH238298   2.207   0.762  16.878 -0.1246  0.1731 -0.1344
 5628TIP3    H138299   2.211   0.835  16.939 -0.6599  0.0333  0.0758
 5628TIP3    H238300   2.283   0.774  16.820  0.4011  0.2889  0.5695
 5629TIP3   OH238301   5.247   1.802   3.498  0.1934  0.0689  0.2359
 5629TIP3    H138302   5.234   1.861   3.572  1.2965  0.5307  0.0853
 5629TIP3    H238303   5.191   1.838   3.429  1.4429  1.4173 -0.1017
 5630TIP3   OH238304   0.369   0.805  15.603  0.4593 -0.8076  0.1743
 5630TIP3    H138305   0.444   0.864  15.611 -2.3600  3.3068 -0.7991
 5630TIP3    H238306   0.367   0.781  15.510  0.1326 -0.2023  0.0190
 5631TIP3   OH238307   1.378   5.805  10.151 -0.0310  0.5262 -0.2608
 5631TIP3    H138308   1.458   5.856  10.134 -0.6282  1.4760 -0.2955
 5631TIP3    H238309   1.307   5.868  10.138 -0.8993 -0.7493 -2.0886
 5632TIP3   OH238310   1.767   3.744   0.339 -0.2469  0.1175  0.5107
 5632TIP3    H138311   1.858   3.718   0.328 -0.5433 -0.0052 -2.3497
 5632TIP3    H238312   1.771   3.837   0.362  0.5875 -0.0126  0.9206
 5633TIP3   OH238313   6.620   5.626  13.796  0.3975 -0.0569  0.6300
 5633TIP3    H138314   6.694   5.654  13.742  0.0629 -0.2007  0.0866
 5633TIP3    H238315   6.590   5.707  13.838 -0.2414  0.3424 -0.5321
 5634TIP3   OH238316   6.400   3.459   1.640  0.1276 -0.3287 -0.0811
 5634TIP3    H138317   6.408   3.468   1.735 -0.1416  0.9295 -0.1559
 5634TIP3    H238318   6.476   3.406   1.615  1.7490  1.5351  0.5599
 5635TIP3   OH238319   3.074   1.639   5.386 -0.9209  0.5356  0.0669
 5635TIP3    H138320   3.115   1.556   5.411 -0.1590  1.2081  1.1409
 5635TIP3    H238321   3.104   1.701   5.453 -0.6683  1.9035 -1.2681
 5636TIP3   OH238322   5.173   6.109   5.573 -0.1456  0.4836  0.0768
 5636TIP3    H138323   5.083   6.076   5.566  0.4780 -1.1656 -0.8088
 5636TIP3    H238324   5.194   6.102   5.666 -0.7159  0.2526  0.1930
 5637TIP3   OH238325   4.857   4.809   0.245  0.0141 -0.0634  0.0020
 5637TIP3    H138326   4.904   4.862   0.310  0.1126  0.1653 -0.2561
 5637TIP3    H238327   4.896   4.722   0.254 -0.5617 -0.2497  0.8496
 5638TIP3   OH238328   1.366   4.941  16.534 -0.0559  0.2589 -0.2720
 5638TIP3    H138329   1.427   4.878  16.571 -0.2729  0.4432  0.4234
 5638TIP3    H238330   1.282   4.895  16.530 -0.5885  0.9569  1.7207
 5639TIP3   OH238331   2.274   2.079   4.008  0.1943  0.4252  0.0937
 5639TIP3    H138332   2.241   2.073   4.097 -1.6808 -2.0148 -0.6295
 5639TIP3    H238333   2.365   2.049   4.014 -0.0889 -0.2946  1.1392
 5640TIP3   OH238334   1.095   0.052   1.446  0.1756 -0.2320  0.1231
 5640TIP3    H138335   1.012   0.071   1.401 -0.4515  0.0746  1.3647
 5640TIP3    H238336   1.115  -0.039   1.421 -0.2721 -0.1440 -0.5860
 5641TIP3   OH238337   5.795   0.118   4.191 -0.1574  0.6330 -0.1943
 5641TIP3    H138338   5.887   0.112   4.165 -0.0380 -2.7449  0.4870
 5641TIP3    H238339   5.747   0.082   4.116 -0.4786 -1.4272  0.9043
 5642TIP3   OH238340   1.228   4.330  12.803 -0.9630 -1.1292 -0.2227
 5642TIP3    H138341   1.209   4.328  12.709  1.2053 -0.0889 -0.7652
 5642TIP3    H238342   1.323   4.317  12.808 -0.6279  1.3406  1.6171
 5643TIP3   OH238343   1.536   1.336  16.522  0.4190 -0.5932  0.5979
 5643TIP3    H138344   1.457   1.285  16.504 -0.6030  0.5643  1.5137
 5643TIP3    H238345   1.562   1.372  16.437 -1.3390  0.7349  0.5543
 5644TIP3   OH238346   4.895   4.811  14.738 -0.3294 -0.1526 -0.0123
 5644TIP3    H138347   4.953   4.783  14.809 -1.7032 -1.2299  0.7437
 5644TIP3    H238348   4.823   4.856  14.782 -1.4594 -1.2796 -0.6497
 5645TIP3   OH238349   6.163   0.730   1.127  0.2120 -0.0994 -0.1398
 5645TIP3    H138350   6.181   0.730   1.221 -1.1449  0.2475  0.1373
 5645TIP3    H238351   6.234   0.679   1.089  1.7182  1.1299  0.8777
 5646TIP3   OH238352   5.373   0.062   0.362  1.0002  0.3118  0.3922
 5646TIP3    H138353   5.364   0.133   0.299  3.5278  1.4735  1.2287
 5646TIP3    H238354   5.347  -0.016   0.314 -0.0166  1.5293 -1.1417
 5647TIP3   OH238355   3.089   2.093   0.515  0.2375 -0.1365 -0.4183
 5647TIP3    H138356   3.029   2.018   0.516 -0.9739  0.7999 -1.2174
 5647TIP3    H238357   3.100   2.114   0.422  1.1624  0.2393 -0.2398
 5648TIP3   OH238358   3.949   5.456   0.574 -0.2127  0.3428 -0.4386
 5648TIP3    H138359   4.004   5.515   0.626  0.3631  0.4091 -1.1177
 5648TIP3    H238360   3.883   5.425   0.636 -0.6324  1.8283 -0.0920
 5649TIP3   OH238361   4.953   4.517   1.919  0.2829 -0.3718  0.1298
 5649TIP3    H138362   5.006   4.596   1.923  0.8037 -0.7183  0.1156
 5649TIP3    H238363   4.996   4.463   1.853 -0.6790 -0.2225 -0.6521
 5650TIP3   OH238364   1.011   2.697   4.620  0.0355  0.2511  0.2503
 5650TIP3    H138365   1.047   2.682   4.532 -2.3439 -1.8894 -0.4970
 5650TIP3    H238366   1.003   2.792   4.627  1.9113  0.5687 -1.1000
 5651TIP3   OH238367   1.740   6.042   3.966  0.4014  0.3737 -0.2174
 5651TIP3    H138368   1.651   6.026   3.999  1.1021 -0.4543  1.3531
 5651TIP3    H238369   1.787   6.079   4.040  2.0640 -1.5829 -0.2202
 5652TIP3   OH238370   2.591   1.275   2.193  0.9021  0.0047 -0.5923
 5652TIP3    H138371   2.549   1.316   2.268  1.2610 -0.4835 -0.1174
 5652TIP3    H238372   2.641   1.346   2.152  0.1876  0.4226 -0.7526
 5653TIP3   OH238373   2.041   0.954   0.958 -0.9237  0.1277  0.2300
 5653TIP3    H138374   2.027   0.861   0.940 -1.0704 -0.0029  0.9651
 5653TIP3    H238375   2.099   0.955   1.034  1.5834  0.6665 -1.5789
 5654TIP3   OH238376   5.262   3.071  14.755 -0.1662  0.0418 -0.0443
 5654TIP3    H138377   5.321   2.997  14.740  0.4791  0.6566 -0.5881
 5654TIP3    H238378   5.177   3.040  14.725 -0.6393 -1.6086  2.7048
 5655TIP3   OH238379   0.067   2.256  15.452  0.0823  0.3026  0.6658
 5655TIP3    H138380   0.100   2.262  15.542 -0.1252 -0.5557  0.8112
 5655TIP3    H238381   0.137   2.292  15.398  0.8361 -0.5478  1.0562
 5656TIP3   OH238382   2.565   4.181  11.128 -0.2525  0.2216  0.1157
 5656TIP3    H138383   2.508   4.151  11.199  0.1272 -1.1632 -0.1329
 5656TIP3    H238384   2.505   4.201  11.056 -0.4607 -0.9564 -0.0536
 5657TIP3   OH238385   3.799   5.272  15.419  0.1429 -0.5169 -0.2063
 5657TIP3    H138386   3.879   5.323  15.433 -0.4577  0.8525 -1.4811
 5657TIP3    H238387   3.737   5.307  15.482 -0.5194  0.9986 -1.6099
 5658TIP3   OH238388   4.878   6.609   1.328 -0.1314 -0.2390  0.3661
 5658TIP3    H138389   4.835   6.537   1.282 -0.1757  0.5378 -0.8667
 5658TIP3    H238390   4.954   6.631   1.273 -0.6982  1.3141  0.1291
 5659TIP3   OH238391   5.844   5.653  17.008 -0.4412 -0.2818 -0.5783
 5659TIP3    H138392   5.796   5.716  17.062 -0.2000  0.6914 -1.4602
 5659TIP3    H238393   5.930   5.693  16.996  0.1980 -1.4545  0.0077
 5660TIP3   OH238394   0.871   3.731  14.205  0.6436  0.3862  0.1815
 5660TIP3    H138395   0.922   3.693  14.133  1.7812  1.4910  0.3764
 5660TIP3    H238396   0.921   3.710  14.284  0.2329  0.5634  0.4921
 5661TIP3   OH238397   0.355   0.018   2.420 -0.0613 -0.1232 -0.2913
 5661TIP3    H138398   0.324  -0.066   2.387 -1.1937 -0.7840  2.2016
 5661TIP3    H238399   0.399   0.059   2.346 -1.0638 -2.1251 -2.0754
 5662TIP3   OH238400   2.037   0.512   5.109  0.0150 -0.0381  0.1931
 5662TIP3    H138401   2.059   0.568   5.034 -0.0790  3.7454  2.7038
 5662TIP3    H238402   2.117   0.511   5.162 -0.7207 -0.3488  1.3338
 5663TIP3   OH238403   3.827   0.205   1.792 -0.1626  0.5428 -0.2324
 5663TIP3    H138404   3.882   0.225   1.868  0.5445 -1.3210 -0.2171
 5663TIP3    H238405   3.737   0.222   1.822  0.1398  0.2423  0.8734
 5664TIP3   OH238406   6.214   3.899   1.727  0.0483 -0.1545 -0.2991
 5664TIP3    H138407   6.192   3.992   1.731 -1.3999 -0.4864  0.0014
 5664TIP3    H238408   6.188   3.873   1.638  0.2857 -0.3172 -0.3216
 5665TIP3   OH238409   5.353   0.114   3.392  0.2678  0.0684 -0.3067
 5665TIP3    H138410   5.275   0.121   3.447  0.5362 -0.0197  0.0923
 5665TIP3    H238411   5.320   0.093   3.305 -0.2265  1.1071 -0.3817
 5666TIP3   OH238412   3.161   5.523  10.491 -0.0346  0.0867  0.3295
 5666TIP3    H138413   3.210   5.534  10.409  1.0878  0.6557  1.0396
 5666TIP3    H238414   3.167   5.430  10.511  1.2184  0.2010  0.6330
 5667TIP3   OH238415   6.040   3.170   5.160  0.1249 -0.2519  0.1336
 5667TIP3    H138416   6.111   3.172   5.224  0.6113 -0.8856 -0.3781
 5667TIP3    H238417   6.030   3.078   5.138 -1.3976 -0.2672  0.7795
 5668TIP3   OH238418   1.876   6.458   6.106 -0.5012 -0.3233  0.3620
 5668TIP3    H138419   1.916   6.375   6.128  0.9827  0.2413 -0.0842
 5668TIP3    H238420   1.877   6.461   6.011 -0.5147  0.2053  0.3744
 5669TIP3   OH238421   3.342   0.322   4.134 -0.3720 -0.6192  0.2551
 5669TIP3    H138422   3.328   0.334   4.228 -1.6297  1.5595 -0.1568
 5669TIP3    H238423   3.285   0.248   4.111 -1.6993  0.1816  0.8541
 5670TIP3   OH238424   4.136   3.940  14.243 -0.0726 -0.0414  0.7964
 5670TIP3    H138425   4.096   4.003  14.303  1.8526  1.1604  0.8849
 5670TIP3    H238426   4.230   3.946  14.260  0.3735 -1.0068 -1.0572
 5671TIP3   OH238427   1.795   5.929   5.970  0.3402  0.2831 -0.1420
 5671TIP3    H138428   1.854   5.870   6.017 -0.4649 -0.6622 -0.2927
 5671TIP3    H238429   1.788   5.891   5.882 -2.3236 -1.0110  0.5259
 5672TIP3   OH238430   1.509   1.809   1.474 -0.1208  0.4247  0.3708
 5672TIP3    H138431   1.483   1.860   1.397 -1.1957  1.0481  1.1294
 5672TIP3    H238432   1.562   1.869   1.526  0.0007  0.2267  0.4762
 5673TIP3   OH238433   4.524   4.041   0.143 -0.1822 -0.4674  0.1760
 5673TIP3    H138434   4.429   4.041   0.135 -0.0786 -1.0225 -1.2511
 5673TIP3    H238435   4.552   4.118   0.095  0.0778 -0.0288  1.0092
 5674TIP3   OH238436   1.997   3.511  14.173  0.1333 -0.6831  0.4577
 5674TIP3    H138437   2.063   3.507  14.104  0.6569  0.5476  0.8702
 5674TIP3    H238438   1.955   3.596  14.161 -1.0734 -1.2499  0.4981
 5675TIP3   OH238439   4.614   3.246   0.510 -0.9134  0.1968  0.1329
 5675TIP3    H138440   4.652   3.164   0.479 -1.3090 -0.0972  0.4261
 5675TIP3    H238441   4.555   3.221   0.580 -0.7630  0.7683  0.4765
 5676TIP3   OH238442   5.489   3.578   2.095 -0.1411  0.2117  0.1625
 5676TIP3    H138443   5.552   3.595   2.165  1.7055 -0.2806 -1.2864
 5676TIP3    H238444   5.532   3.513   2.040 -0.7441  1.8362 -2.3770
 5677TIP3   OH238445   3.845   3.795  11.230  0.3904  0.2596 -0.0108
 5677TIP3    H138446   3.841   3.889  11.216  0.7502  0.0782 -1.5129
 5677TIP3    H238447   3.838   3.757  11.143  3.4136 -0.9821  0.1666
 5678TIP3   OH238448   2.976   2.380  16.457  0.1228 -0.2611  0.7288
 5678TIP3    H138449   2.889   2.412  16.433  0.7983  0.0945 -1.4764
 5678TIP3    H238450   2.964   2.288  16.477 -0.5988 -0.4807 -0.6542
 5679TIP3   OH238451   2.010   4.045  12.907 -0.3157 -0.4755 -0.2784
 5679TIP3    H138452   1.968   3.968  12.946  0.9789 -0.9259  0.3010
 5679TIP3    H238453   2.015   4.108  12.979 -1.6364  0.2872 -0.8278
 5680TIP3   OH238454   4.800   4.399  11.431  0.1634  0.3391 -0.2090
 5680TIP3    H138455   4.786   4.353  11.514 -2.9896  0.8160 -0.3615
 5680TIP3    H238456   4.893   4.384  11.411  0.4521 -1.7904  2.1697
 5681TIP3   OH238457   0.674   2.063  11.401  0.0070  0.2733  0.0649
 5681TIP3    H138458   0.617   2.117  11.345  0.4610 -1.0596 -1.7690
 5681TIP3    H238459   0.650   2.088  11.490 -3.5469 -0.2663 -0.5723
 5682TIP3   OH238460   2.771   3.514   1.751  0.5874  0.1520  0.5021
 5682TIP3    H138461   2.712   3.512   1.676 -0.8101 -1.3148  1.5516
 5682TIP3    H238462   2.713   3.525   1.827  1.5947 -1.5359  1.5931
 5683TIP3   OH238463   6.018   4.429   3.471 -0.2607 -0.2886  0.1899
 5683TIP3    H138464   5.984   4.341   3.452 -0.6114 -0.1052 -0.0514
 5683TIP3    H238465   5.995   4.480   3.394  2.7268 -0.7257 -1.1067
 5684TIP3   OH238466   6.035   1.099   4.153  0.3359  0.4204 -0.0780
 5684TIP3    H138467   6.102   1.085   4.086 -1.4395 -1.0806 -1.6575
 5684TIP3    H238468   5.995   1.183   4.130  0.7175  0.6339  0.0252
 5685TIP3   OH238469   3.714   1.915   4.875  0.1919 -0.0114 -0.2200
 5685TIP3    H138470   3.718   1.853   4.802  1.9729 -0.7316  0.4638
 5685TIP3    H238471   3.754   1.995   4.840  0.3636 -0.1122 -0.2521
 5686TIP3   OH238472   6.681   6.293  12.541  0.4608  0.0261 -0.3044
 5686TIP3    H138473   6.590   6.274  12.521  1.0225 -0.9494 -2.1467
 5686TIP3    H238474   6.710   6.221  12.596  0.0297  0.5844  0.6919
 5687TIP3   OH238475   5.968   1.613  13.348  0.1180  0.6087 -0.3014
 5687TIP3    H138476   5.986   1.704  13.369  0.9170  0.2138  0.8499
 5687TIP3    H238477   5.998   1.602  13.258 -0.0352  1.4860 -0.4643
 5688TIP3   OH238478   3.217   5.025   1.148  0.7485  0.4231 -0.7234
 5688TIP3    H138479   3.181   4.969   1.079 -0.4677  0.6572 -0.2901
 5688TIP3    H238480   3.238   5.107   1.103  1.1752  0.1317 -1.0659
 5689TIP3   OH238481   4.779   6.509   3.420 -0.0138  0.1050  0.2765
 5689TIP3    H138482   4.775   6.455   3.340  0.5736 -2.7202  2.0086
 5689TIP3    H238483   4.689   6.542   3.430 -0.6597 -1.3040 -0.4513
 5690TIP3   OH238484   1.939   6.235   1.033  0.2740  0.1210 -0.2127
 5690TIP3    H138485   1.859   6.243   0.980  0.9701  1.5617 -1.1239
 5690TIP3    H238486   1.967   6.325   1.047  0.9933 -0.3081  1.3023
 5691TIP3   OH238487   1.468   6.359  13.984 -0.5387 -0.2427  0.3840
 5691TIP3    H138488   1.387   6.370  14.033  0.2744  1.5548  1.3902
 5691TIP3    H238489   1.469   6.432  13.922  0.4817 -0.0465  0.6205
 5692TIP3   OH238490   1.328   5.026  10.709 -0.3607  0.1877 -0.0479
 5692TIP3    H138491   1.353   5.111  10.744 -0.6947  0.3949 -0.3104
 5692TIP3    H238492   1.402   4.969  10.729 -0.2282  0.4879  0.3176
 5693TIP3   OH238493   3.635   0.456   2.990  0.0587  0.0198  0.5016
 5693TIP3    H138494   3.582   0.429   2.915  1.4730 -1.1403 -0.1342
 5693TIP3    H238495   3.726   0.441   2.962  0.7720  2.1762  1.4538
 5694TIP3   OH238496   2.301   0.763  11.565  0.0087 -0.4767  0.3072
 5694TIP3    H138497   2.209   0.742  11.549  0.3075 -1.7183  0.1450
 5694TIP3    H238498   2.342   0.679  11.585  1.0844  0.0797  0.5073
 5695TIP3   OH238499   6.489   0.849   5.417  0.1648 -0.1943  0.6471
 5695TIP3    H138500   6.457   0.927   5.373  0.0799 -0.7063 -0.2259
 5695TIP3    H238501   6.444   0.849   5.502  1.1724  1.3878  1.2140
 5696TIP3   OH238502   6.008   0.569  14.423  0.3197 -0.8424 -0.0402
 5696TIP3    H138503   6.027   0.650  14.375  0.8937 -0.4016  0.9111
 5696TIP3    H238504   5.916   0.550  14.401 -0.8120  1.6877  1.9935
 5697TIP3   OH238505   6.512   2.651  14.533 -0.3579  0.2870 -0.1361
 5697TIP3    H138506   6.477   2.562  14.529  1.7444 -0.6316  0.6045
 5697TIP3    H238507   6.500   2.685  14.444 -2.1015 -0.3343 -0.1795
 5698TIP3   OH238508   3.988   2.117  14.578  0.3297 -0.4191 -0.0962
 5698TIP3    H138509   3.954   2.088  14.663 -2.0145  2.0707 -0.0332
 5698TIP3    H238510   4.015   2.207  14.593  0.3614 -0.1051 -1.8927
 5699TIP3   OH238511   6.645   6.010  13.433 -0.3253 -0.1290  0.9433
 5699TIP3    H138512   6.569   5.977  13.384  1.1856 -0.1693 -1.5794
 5699TIP3    H238513   6.631   6.105  13.438  0.2587  0.1250 -1.1910
 5700TIP3   OH238514   4.458   3.244   4.766 -0.4991 -0.7595 -0.3650
 5700TIP3    H138515   4.541   3.274   4.730 -1.1511  0.4587 -0.9420
 5700TIP3    H238516   4.482   3.195   4.845  0.6982  2.1137  1.2328
 5701TIP3   OH238517   0.275   4.606   5.664 -0.1995  0.4709 -0.4512
 5701TIP3    H138518   0.367   4.626   5.682 -0.2939 -0.1348  0.7855
 5701TIP3    H238519   0.249   4.671   5.598  0.4726  2.1952  0.8987
 5702TIP3   OH238520   2.154   3.969  17.033 -0.0839 -0.4114 -0.3573
 5702TIP3    H138521   2.212   4.018  16.974 -0.0763 -1.0328 -0.8728
 5702TIP3    H238522   2.103   3.912  16.975 -0.9771 -0.1152  0.1220
 5703TIP3   OH238523   6.695   6.027   4.434 -0.5769 -1.1003 -0.1487
 5703TIP3    H138524   6.616   6.072   4.463 -0.5787 -0.2210 -1.4350
 5703TIP3    H238525   6.665   5.942   4.402 -0.6410 -1.8522  1.8052
 5704TIP3   OH238526   1.070   3.548   6.480  0.6558 -0.0537  0.1532
 5704TIP3    H138527   1.035   3.568   6.566 -0.5518  1.0170 -0.5554
 5704TIP3    H238528   1.011   3.592   6.419  1.1358 -1.2733 -1.2537
 5705TIP3   OH238529   0.815   0.362  13.081  0.2261  0.0799  0.2599
 5705TIP3    H138530   0.860   0.289  13.122  0.8244 -0.1074 -0.7064
 5705TIP3    H238531   0.847   0.439  13.128 -0.1222 -0.2271  1.0291
 5706TIP3   OH238532   5.684   6.206  16.524 -0.4763  0.0335 -0.1895
 5706TIP3    H138533   5.611   6.259  16.555 -0.3034  1.3622 -1.9040
 5706TIP3    H238534   5.648   6.158  16.449  0.1299 -0.0634 -0.4248
 5707TIP3   OH238535   3.917   2.885  14.810 -0.1910 -0.0498  0.1550
 5707TIP3    H138536   3.998   2.886  14.759 -0.1315 -0.3185  0.2458
 5707TIP3    H238537   3.848   2.881  14.744 -0.1145 -0.3619  0.0905
 5708TIP3   OH238538   5.941   6.404  14.347  0.0089 -0.5322 -0.0928
 5708TIP3    H138539   5.975   6.411  14.257  1.2705 -0.7133  0.3572
 5708TIP3    H238540   5.860   6.454  14.345  0.5371  0.3359 -1.0827
 5709TIP3   OH238541   2.605   4.969   1.036 -0.1222 -0.2041 -0.5565
 5709TIP3    H138542   2.592   5.064   1.027 -1.5835 -0.4218 -0.9490
 5709TIP3    H238543   2.652   4.944   0.957  0.7131  0.2492 -0.2235
 5710TIP3   OH238544   4.130   1.389  16.197  0.1133 -0.4941 -0.3908
 5710TIP3    H138545   4.064   1.320  16.203  0.3881 -0.7279  0.0661
 5710TIP3    H238546   4.195   1.365  16.264  0.1615  0.2634 -0.1598
 5711TIP3   OH238547   2.281   1.042   3.391  0.0841 -0.2210 -0.2160
 5711TIP3    H138548   2.197   0.997   3.392 -0.5125  0.8190  1.7948
 5711TIP3    H238549   2.289   1.076   3.301 -1.0550 -1.3509 -0.7742
 5712TIP3   OH238550   3.563   5.349   2.183 -0.1873 -0.3940 -0.5885
 5712TIP3    H138551   3.625   5.282   2.156 -0.1142 -0.8802  0.6956
 5712TIP3    H238552   3.611   5.432   2.176 -0.3968 -0.4057 -2.5406
 5713TIP3   OH238553   2.111   2.865   0.663 -1.0263 -0.1255  0.1428
 5713TIP3    H138554   2.131   2.900   0.749  0.0527 -1.4246  0.4698
 5713TIP3    H238555   2.116   2.770   0.674  0.2768 -0.3095 -1.5747
 5714TIP3   OH238556   3.044   3.304   3.821 -0.4986 -0.5518 -0.2262
 5714TIP3    H138557   3.085   3.262   3.745  0.4053 -0.2783  0.0903
 5714TIP3    H238558   3.066   3.397   3.811  1.5500 -0.7647  1.4718
 5715TIP3   OH238559   0.793   0.703   2.079  0.1944 -0.3250  0.1574
 5715TIP3    H138560   0.711   0.685   2.032 -0.1930 -0.6453  0.9379
 5715TIP3    H238561   0.769   0.771   2.142  0.5969 -0.2413  0.2211
 5716TIP3   OH238562   3.051   2.390  16.776  0.2203 -0.1607 -0.0888
 5716TIP3    H138563   3.021   2.460  16.718  2.0211  1.1753  0.4791
 5716TIP3    H238564   2.981   2.380  16.840  0.2695  1.7330  0.3066
 5717TIP3   OH238565   3.085   4.919  13.728  0.7044  0.3308  0.2871
 5717TIP3    H138566   3.114   4.855  13.793  0.1501 -0.6361 -0.4101
 5717TIP3    H238567   3.123   5.002  13.758  1.4243 -0.3147  1.1984
 5718TIP3   OH238568   2.840   4.221   5.419 -0.0593 -0.5166  0.5261
 5718TIP3    H138569   2.763   4.227   5.363  0.6244 -0.3294 -0.4232
 5718TIP3    H238570   2.845   4.129   5.443  0.8767 -1.0733 -1.5732
 5719TIP3   OH238571   2.773   0.401   0.212 -0.5594 -0.8456  0.7159
 5719TIP3    H138572   2.685   0.436   0.205 -1.1639 -2.0901  1.6729
 5719TIP3    H238573   2.779   0.368   0.302  1.4636  0.7030  1.2281
 5720TIP3   OH238574   0.298   6.142  11.604 -0.1304 -0.3734  0.4256
 5720TIP3    H138575   0.351   6.086  11.661  0.0386  0.4400  1.0814
 5720TIP3    H238576   0.307   6.102  11.517 -0.0628 -1.3918  0.8850
 5721TIP3   OH238577   5.622   2.437   4.987 -0.6081  0.3146 -0.1137
 5721TIP3    H138578   5.680   2.371   5.025 -1.3196 -1.6624 -2.2360
 5721TIP3    H238579   5.579   2.478   5.062 -0.1587 -1.6659  1.3016
 5722TIP3   OH238580   4.382   5.646   4.986 -0.0917 -0.8072  0.7656
 5722TIP3    H138581   4.456   5.586   4.995 -1.1570 -2.6550 -1.6657
 5722TIP3    H238582   4.326   5.627   5.061  1.1455 -0.3970  1.8410
 5723TIP3   OH238583   4.926   0.085   5.123  0.0655 -0.5125  0.0209
 5723TIP3    H138584   4.845   0.040   5.100 -0.0945 -0.8815  1.2427
 5723TIP3    H238585   4.916   0.108   5.215  0.8524  0.5277 -0.1320
 5724TIP3   OH238586   4.554   2.138   2.808  0.2923 -0.0454 -0.4839
 5724TIP3    H138587   4.470   2.161   2.847  1.6264  1.4865  1.6642
 5724TIP3    H238588   4.619   2.165   2.872  2.4334 -2.0524 -1.6452
 5725TIP3   OH238589   4.478   4.108  15.678 -0.2256  0.5149  0.1826
 5725TIP3    H138590   4.403   4.144  15.631 -0.0036 -0.0227 -0.6247
 5725TIP3    H238591   4.548   4.173  15.667 -0.1893  0.4136 -0.2085
 5726TIP3   OH238592   5.513   4.726   6.447 -0.2961 -0.0898 -0.3551
 5726TIP3    H138593   5.543   4.657   6.388 -0.9181 -0.9180  0.2769
 5726TIP3    H238594   5.455   4.780   6.394  2.4545  1.7501 -1.7105
 5727TIP3   OH238595   1.296   2.952  16.706 -0.1222 -0.6354  0.6100
 5727TIP3    H138596   1.323   3.043  16.720  1.5551 -1.0729  0.4077
 5727TIP3    H238597   1.204   2.958  16.681 -0.3215  0.9291  1.5664
 5728TIP3   OH238598   3.884   4.654   1.125  0.0450 -0.1473  0.2688
 5728TIP3    H138599   3.810   4.684   1.179 -1.0307 -1.8569 -0.1601
 5728TIP3    H238600   3.845   4.591   1.064  1.7130 -0.3787 -0.6173
 5729TIP3   OH238601   1.209   3.272  11.765 -0.1837 -0.0136  0.0563
 5729TIP3    H138602   1.117   3.294  11.771 -0.2451  0.1828 -1.2882
 5729TIP3    H238603   1.215   3.211  11.691  0.5629 -1.2579  1.0852
 5730TIP3   OH238604   0.121   4.938   1.471  0.2223 -0.3225  0.0835
 5730TIP3    H138605   0.108   4.868   1.408 -1.3691  0.1564 -0.1871
 5730TIP3    H238606   0.034   4.952   1.509  1.0658 -0.4037  2.1968
 5731TIP3   OH238607   4.241   0.688   4.779 -0.5117  0.5147  0.1301
 5731TIP3    H138608   4.307   0.757   4.770  1.3636 -1.1562  0.3240
 5731TIP3    H238609   4.176   0.724   4.840  0.7165  1.8775  0.6815
 5732TIP3   OH238610   4.969   3.091  15.039 -0.4838 -0.8739  0.1125
 5732TIP3    H138611   4.992   2.998  15.032 -0.3097 -0.8908  0.8449
 5732TIP3    H238612   4.952   3.105  15.132 -0.2856 -0.1142  0.0404
 5733TIP3   OH238613   0.165   5.769   5.083  0.1171  0.3661 -0.1700
 5733TIP3    H138614   0.108   5.846   5.080 -0.5742 -0.1657 -1.4680
 5733TIP3    H238615   0.166   5.743   5.175 -1.0297  0.9215  0.0145
 5734TIP3   OH238616   5.747   1.038  16.138 -0.4261  0.8198  0.1508
 5734TIP3    H138617   5.813   1.092  16.180 -0.2873  1.3096 -0.6646
 5734TIP3    H238618   5.670   1.095  16.130 -1.1860  0.0731  1.6379
 5735TIP3   OH238619   0.877   1.744  16.545  0.0995 -0.5556  0.4244
 5735TIP3    H138620   0.785   1.751  16.520  0.2340  0.5321  0.2063
 5735TIP3    H238621   0.908   1.667  16.497 -0.6623 -0.8652  0.4087
 5736TIP3   OH238622   6.073   2.659   2.571  0.1517 -0.3962  0.0142
 5736TIP3    H138623   6.062   2.623   2.659  0.8084  0.3518  0.4131
 5736TIP3    H238624   6.062   2.753   2.582 -0.7604 -0.3791 -0.8863
 5737TIP3   OH238625   6.783   5.060   4.382 -0.4753 -0.6501 -0.3875
 5737TIP3    H138626   6.732   5.020   4.452 -1.3678  0.3321 -0.4571
 5737TIP3    H238627   6.720   5.109   4.330  0.5105  0.4406 -0.5965
 5738TIP3   OH238628   6.672   5.143  11.995 -0.7181  0.2633 -0.5319
 5738TIP3    H138629   6.644   5.077  12.058  0.1010  0.7164  0.3180
 5738TIP3    H238630   6.755   5.176  12.028  0.1000  0.0211 -2.2229
 5739TIP3   OH238631   5.971   4.255   0.440  0.4372 -0.2727  0.2197
 5739TIP3    H138632   5.988   4.260   0.346  0.8566  0.5576  0.3345
 5739TIP3    H238633   5.919   4.332   0.460  1.5304  0.3098  0.9050
 5740TIP3   OH238634   6.142   4.626  16.358  0.6388 -0.7170  0.3602
 5740TIP3    H138635   6.050   4.625  16.384  0.6209 -0.7519  0.2946
 5740TIP3    H238636   6.180   4.699  16.408  0.3245  0.0505 -0.4848
 5741TIP3   OH238637   3.766   6.513   2.137  0.1761  0.4186  0.0581
 5741TIP3    H138638   3.759   6.454   2.212  2.6967 -1.4364 -1.0341
 5741TIP3    H238639   3.840   6.569   2.157 -0.2823  1.1549 -0.2715
 5742TIP3   OH238640   4.346   4.525  11.719  0.0456 -0.8434  0.1732
 5742TIP3    H138641   4.370   4.578  11.643  1.2262 -0.7822  0.5634
 5742TIP3    H238642   4.256   4.549  11.738  0.4956  0.9189  0.2377
 5743TIP3   OH238643   3.307   0.996   4.787 -0.3088  0.1013  0.1318
 5743TIP3    H138644   3.340   0.966   4.872 -1.1205  0.3750  0.5518
 5743TIP3    H238645   3.231   0.941   4.771 -1.7459  1.7969  0.8425
 5744TIP3   OH238646   1.965   2.439  13.365 -0.6535 -0.4227  0.4860
 5744TIP3    H138647   1.899   2.390  13.414 -2.9077  2.1009  0.1852
 5744TIP3    H238648   1.953   2.530  13.393  1.5425  0.3766 -0.9155
 5745TIP3   OH238649   2.411   2.705   4.413  0.1129 -0.0471  0.4444
 5745TIP3    H138650   2.472   2.737   4.347  2.3136 -0.9648  1.9012
 5745TIP3    H238651   2.334   2.760   4.403  0.7588  0.5081 -2.1661
 5746TIP3   OH238652   2.108   6.424  15.945  0.1567  0.0793  0.1775
 5746TIP3    H138653   2.122   6.402  16.038 -0.5342 -1.3150 -0.0181
 5746TIP3    H238654   2.159   6.359  15.897  0.9451  1.1188 -0.4561
 5747TIP3   OH238655   1.829   3.298  11.764 -0.2579  0.1250 -0.1907
 5747TIP3    H138656   1.748   3.296  11.714 -0.9041 -0.0726  0.8332
 5747TIP3    H238657   1.811   3.359  11.836 -0.2737 -1.5284  1.2726
 5748TIP3   OH238658   1.560   6.328   3.368 -0.0268 -0.3940  0.9068
 5748TIP3    H138659   1.580   6.267   3.297 -2.6838 -0.5985  0.2330
 5748TIP3    H238660   1.519   6.403   3.324  0.3232  0.4778  2.0261
 5749TIP3   OH238661   3.286   2.821   1.258 -0.0444 -0.3302 -0.3206
 5749TIP3    H138662   3.222   2.768   1.210  0.8575  0.2040 -2.1902
 5749TIP3    H238663   3.366   2.769   1.257 -0.1874 -0.6200  1.2648
 5750TIP3   OH238664   1.629   2.942  14.914  0.1502  0.3179 -0.4200
 5750TIP3    H138665   1.704   2.992  14.946  1.2397  0.5377 -3.1076
 5750TIP3    H238666   1.655   2.851  14.922 -0.1036  0.3076  0.4279
 5751TIP3   OH238667   4.840   5.143   1.067 -0.1009  0.2469  0.7178
 5751TIP3    H138668   4.753   5.103   1.059 -0.0110  0.1657  0.1422
 5751TIP3    H238669   4.901   5.071   1.053  0.0604  0.4569  0.3400
 5752TIP3   OH238670   4.412   4.163   5.092 -0.1235 -0.0768  0.1827
 5752TIP3    H138671   4.427   4.257   5.076  0.9117 -0.1235  0.7685
 5752TIP3    H238672   4.500   4.127   5.105 -0.4410 -1.2869 -0.7820
 5753TIP3   OH238673   4.649   3.934   2.956 -0.2309  0.6362 -0.3990
 5753TIP3    H138674   4.647   3.918   2.862 -2.8199  2.1973 -0.7128
 5753TIP3    H238675   4.630   4.028   2.965  0.6534  0.6746  1.6551
 5754TIP3   OH238676   1.627   4.922  16.898 -0.2199 -0.7621  0.0907
 5754TIP3    H138677   1.698   4.929  16.962 -0.7905  0.5898  0.6244
 5754TIP3    H238678   1.640   4.838  16.856  1.3892 -0.7696  0.5513
 5755TIP3   OH238679   2.071   4.571   2.765 -0.2801  0.0590  0.2771
 5755TIP3    H138680   2.103   4.538   2.681  0.3709  0.0187  0.5305
 5755TIP3    H238681   2.086   4.666   2.760  0.7191 -0.0550  0.7276
 5756TIP3   OH238682   1.297   2.500   5.814 -0.2557 -0.3705 -0.6254
 5756TIP3    H138683   1.355   2.554   5.761  1.4832 -1.9824 -0.4520
 5756TIP3    H238684   1.337   2.413   5.813 -2.3036 -1.3798  0.1022
 5757TIP3   OH238685   2.619   6.313   3.151 -0.3581 -0.0962 -0.7784
 5757TIP3    H138686   2.610   6.239   3.091 -0.4182 -0.9822  0.3118
 5757TIP3    H238687   2.613   6.275   3.238  0.7335  1.0381 -0.1793
 5758TIP3   OH238688   2.406   0.330  13.746  0.0608  0.5108  0.7859
 5758TIP3    H138689   2.489   0.348  13.791 -0.8835 -0.0088  2.8547
 5758TIP3    H238690   2.429   0.264  13.680  1.2019 -0.0894  1.7355
 5759TIP3   OH238691   0.760   2.043   1.691 -0.1483 -0.2193 -0.0716
 5759TIP3    H138692   0.832   2.001   1.738  1.0435  1.0082 -0.7317
 5759TIP3    H238693   0.693   2.058   1.758  0.7554 -0.1631  0.8405
 5760TIP3   OH238694   4.164   6.250   4.993  0.1839 -0.7579  0.6726
 5760TIP3    H138695   4.153   6.155   4.991  1.2835 -0.8971  0.5084
 5760TIP3    H238696   4.242   6.266   4.940 -0.5638  0.3382 -0.1488
 5761TIP3   OH238697   3.586   1.088  10.848  0.1324 -0.5325  0.1128
 5761TIP3    H138698   3.588   1.184  10.852  1.1569 -0.5699  0.6412
 5761TIP3    H238699   3.541   1.069  10.765 -2.6079  0.3716  1.2574
 5762TIP3   OH238700   2.099   6.034   6.315  0.4393  0.4292 -0.1389
 5762TIP3    H138701   2.101   6.119   6.359  3.2058  0.7347 -0.6394
 5762TIP3    H238702   2.030   6.042   6.250  1.0226  2.5311 -0.5793
 5763TIP3   OH238703   4.682   6.500  12.367 -0.1177  0.0725  0.6703
 5763TIP3    H138704   4.596   6.534  12.391 -0.3021  1.6233 -1.8119
 5763TIP3    H238705   4.662   6.415  12.325 -0.4847  0.4994 -0.0426
 5764TIP3   OH238706   2.253   2.296   0.108  0.3283 -0.0955  0.1077
 5764TIP3    H138707   2.228   2.207   0.131  0.6658 -0.2594 -0.1631
 5764TIP3    H238708   2.237   2.302   0.014  0.0632  0.2118  0.1689
 5765TIP3   OH238709   1.200   6.101   1.315  0.5074  0.0706  0.1901
 5765TIP3    H138710   1.252   6.031   1.277 -2.6409 -2.1569 -0.3982
 5765TIP3    H238711   1.151   6.059   1.386 -1.3684  1.6498 -0.0610
 5766TIP3   OH238712   0.685   1.663   4.742 -0.2843  0.2917  0.2445
 5766TIP3    H138713   0.664   1.723   4.671  0.4931  1.3221  0.8572
 5766TIP3    H238714   0.624   1.687   4.812  0.3121  0.6573  0.6416
 5767TIP3   OH238715   3.769   1.065  12.159 -1.0043  0.5963 -0.2024
 5767TIP3    H138716   3.682   1.026  12.156 -1.4281  1.5170 -0.2478
 5767TIP3    H238717   3.823   1.001  12.206 -1.5963 -0.1718 -0.5592
 5768TIP3   OH238718   3.226   5.901   1.533  0.2253 -0.5107  0.0210
 5768TIP3    H138719   3.220   5.958   1.456 -1.2700 -1.6459 -0.7603
 5768TIP3    H238720   3.172   5.944   1.599 -0.6642 -0.8441 -0.4700
 5769TIP3   OH238721   4.193   4.099  10.757 -0.1238  0.0970 -0.2061
 5769TIP3    H138722   4.200   4.159  10.682  0.9150 -0.0728 -0.2557
 5769TIP3    H238723   4.192   4.012  10.717  0.0448  0.0197 -0.0405
 5770TIP3   OH238724   0.486   2.332   0.184  0.6611 -0.0574 -0.3607
 5770TIP3    H138725   0.501   2.240   0.203  0.7643  0.4277  2.2453
 5770TIP3    H238726   0.547   2.379   0.242 -1.9298  1.6944  1.1285
 5771TIP3   OH238727   4.707   1.672   0.400  1.1341  0.0031  0.0686
 5771TIP3    H138728   4.734   1.695   0.489 -0.5838  0.9560  0.3896
 5771TIP3    H238729   4.764   1.724   0.343  1.5330  0.1981  0.6343
 5772TIP3   OH238730   1.652   6.129   5.141  0.2555 -0.1441  0.4636
 5772TIP3    H138731   1.569   6.116   5.187  0.2468 -0.2837  0.4092
 5772TIP3    H238732   1.699   6.046   5.152  0.8603  0.2995  1.4434
 5773TIP3   OH238733   1.607   4.383  16.392  0.9432 -0.0341  0.9951
 5773TIP3    H138734   1.579   4.454  16.333  1.4996 -0.5548  0.0743
 5773TIP3    H238735   1.644   4.428  16.468  2.1891  0.7088 -0.0053
 5774TIP3   OH238736   5.191   2.918   1.219  0.5222  0.1152  0.2981
 5774TIP3    H138737   5.221   2.932   1.129  0.2787  0.4880  0.2735
 5774TIP3    H238738   5.133   2.841   1.213  1.5054 -0.6406  0.3569
 5775TIP3   OH238739   2.826   4.969  12.131 -0.4587 -0.0832  0.1800
 5775TIP3    H138740   2.795   4.947  12.043 -2.0447  0.2772  0.6082
 5775TIP3    H238741   2.921   4.969  12.124 -0.5210  2.0531 -2.1043
 5776TIP3   OH238742   4.269   5.109  11.653 -0.3294  0.4994  0.1787
 5776TIP3    H138743   4.205   5.136  11.588  1.2186  1.9296 -0.8429
 5776TIP3    H238744   4.226   5.125  11.737 -2.1268 -0.7884 -0.4235
 5777TIP3   OH238745   4.356   0.343   4.451  0.7546  0.5479  0.1331
 5777TIP3    H138746   4.410   0.287   4.395  2.2710  0.6265  1.4394
 5777TIP3    H238747   4.358   0.429   4.410  2.2743  0.7257  0.5434
 5778TIP3   OH238748   3.365   1.156   3.151 -0.0774 -0.1447 -0.2358
 5778TIP3    H138749   3.373   1.230   3.091 -1.3682  2.1361  2.2199
 5778TIP3    H238750   3.452   1.116   3.151  0.3634  0.6687 -2.4209
 5779TIP3   OH238751   5.457   2.721  11.368  0.6393  0.2483  0.0010
 5779TIP3    H138752   5.379   2.756  11.327  1.3127  0.1803 -1.3846
 5779TIP3    H238753   5.528   2.741  11.307  1.8156  0.8376  1.4821
 5780TIP3   OH238754   1.601   2.070  16.787 -0.5753 -0.0418  0.0954
 5780TIP3    H138755   1.623   2.160  16.811  0.0506 -0.2487  0.3011
 5780TIP3    H238756   1.527   2.080  16.726 -0.2812  0.6286 -0.1699
 5781TIP3   OH238757   2.916   4.385   0.482  0.3896 -0.3528  0.3926
 5781TIP3    H138758   2.822   4.390   0.496  0.4530 -1.2504  1.2351
 5781TIP3    H238759   2.927   4.403   0.389 -0.5304  0.5814  0.4509
 5782TIP3   OH238760   0.812   0.241   2.107 -0.4159 -0.6279  0.5561
 5782TIP3    H138761   0.735   0.239   2.050  0.1985 -2.1488 -0.2703
 5782TIP3    H238762   0.886   0.228   2.048  0.6286  1.7820  1.1957
 5783TIP3   OH238763   6.640   1.834  13.440  0.1685 -0.2624 -0.5388
 5783TIP3    H138764   6.718   1.786  13.466  0.0049 -1.1703 -1.6600
 5783TIP3    H238765   6.672   1.903  13.383  0.2157 -0.1900 -0.4261
 5784TIP3   OH238766   1.511   6.364  12.678 -0.2667 -0.1501 -0.0439
 5784TIP3    H138767   1.452   6.405  12.614  1.6271  2.0295 -0.5475
 5784TIP3    H238768   1.588   6.338  12.627  0.6907  0.3326  1.0972
 5785TIP3   OH238769   1.325   2.064   6.153 -0.0822  0.2624  0.0400
 5785TIP3    H138770   1.230   2.060   6.139  0.1448  0.6767 -2.0206
 5785TIP3    H238771   1.345   1.986   6.205 -1.5094 -0.0075  0.2295
 5786TIP3   OH238772   4.953   4.206   1.222 -0.6056  0.2501  0.5375
 5786TIP3    H138773   4.885   4.263   1.185 -1.7869 -1.0573  0.6379
 5786TIP3    H238774   5.002   4.264   1.281 -1.5694  1.2572  0.3886
 5787TIP3   OH238775   0.045   3.131  14.200  0.7994 -0.1865 -0.0406
 5787TIP3    H138776   0.038   3.151  14.107 -1.9399 -0.5342  0.0114
 5787TIP3    H238777  -0.004   3.049  14.211 -2.5199  1.8502  2.2136
 5788TIP3   OH238778   4.680   2.538  17.064 -0.4191 -0.0844 -0.3390
 5788TIP3    H138779   4.728   2.539  17.147 -1.5586 -1.0834  0.3636
 5788TIP3    H238780   4.732   2.594  17.006  0.1955  0.9796  1.1541
 5789TIP3   OH238781   0.465   3.482  13.360  0.2891  0.0945 -0.2566
 5789TIP3    H138782   0.403   3.550  13.388 -0.0213 -0.9083  1.6344
 5789TIP3    H238783   0.438   3.404  13.408  1.6019 -0.9698 -1.1924
 5790TIP3   OH238784   2.586   6.741   6.001  0.0839  0.5162 -0.5533
 5790TIP3    H138785   2.591   6.835   5.984 -0.5407  0.8476  0.9893
 5790TIP3    H238786   2.625   6.731   6.088 -3.0415 -0.1253  0.9070
 5791TIP3   OH238787   3.458   6.625   3.693 -0.1361 -0.8271 -0.1025
 5791TIP3    H138788   3.365   6.609   3.678 -0.2041 -2.3153  1.6178
 5791TIP3    H238789   3.471   6.717   3.669 -1.4522 -1.2670 -2.8821
 5792TIP3   OH238790   6.026   6.605  16.175  0.6062 -0.8836  0.3596
 5792TIP3    H138791   5.943   6.580  16.216 -0.6121 -0.2988 -1.6184
 5792TIP3    H238792   6.033   6.547  16.099  1.2637  0.0640 -0.3223
 5793TIP3   OH238793   1.692   2.384   1.526 -0.3178  0.2029 -0.2090
 5793TIP3    H138794   1.597   2.395   1.535 -0.4230 -0.1199 -0.8755
 5793TIP3    H238795   1.721   2.360   1.614 -0.4653  2.8171  0.6552
 5794TIP3   OH238796   6.169   5.389   5.634  0.1048 -0.2681 -0.3156
 5794TIP3    H138797   6.151   5.483   5.642 -1.4433 -0.6249  0.8803
 5794TIP3    H238798   6.086   5.351   5.608 -0.1447 -1.6361  2.1501
 5795TIP3   OH238799   4.688   1.773  14.190 -0.2463  0.3134  0.4073
 5795TIP3    H138800   4.711   1.853  14.238  0.0836  0.1265  0.5656
 5795TIP3    H238801   4.752   1.768  14.119  0.2809 -0.2652  0.9131
 5796TIP3   OH238802   4.580   1.112   3.013 -0.1684 -0.0492 -0.2277
 5796TIP3    H138803   4.491   1.076   3.005  0.2162 -1.0368 -0.1446
 5796TIP3    H238804   4.567   1.200   3.050 -1.1871  0.2770 -1.3064
 5797TIP3   OH238805   3.619   3.040  11.241 -0.6443 -0.2756 -0.0312
 5797TIP3    H138806   3.681   3.064  11.310  0.8500  0.5023 -1.5543
 5797TIP3    H238807   3.660   2.965  11.197  0.0006  1.0793 -1.9123
 5798TIP3   OH238808   1.657   2.620  16.632 -0.3654 -0.0538  0.0403
 5798TIP3    H138809   1.732   2.665  16.671 -0.7717  1.8391 -1.2652
 5798TIP3    H238810   1.677   2.614  16.539 -2.5831  2.2172 -0.6796
 5799TIP3   OH238811   5.001   6.386  15.159  0.2185  0.2954  0.3448
 5799TIP3    H138812   5.096   6.378  15.149  0.2263  2.1614 -1.7632
 5799TIP3    H238813   4.988   6.415  15.249  1.4806 -1.5909  1.2008
 5800TIP3   OH238814   5.338   3.048   3.330 -0.5639  0.0815  0.2858
 5800TIP3    H138815   5.353   2.957   3.355 -1.1216 -0.6073 -1.7265
 5800TIP3    H238816   5.407   3.097   3.376 -1.9866 -0.8859  3.7835
 5801TIP3   OH238817   5.985   6.690  14.412  0.1295 -0.1973  0.3875
 5801TIP3    H138818   5.952   6.675  14.324  0.0254  0.5659  0.2913
 5801TIP3    H238819   6.073   6.653  14.412  0.2737  0.1454 -0.1516
 5802TIP3   OH238820   3.930   1.800  12.948 -0.6036  0.3189  0.2666
 5802TIP3    H138821   3.838   1.795  12.923 -0.7882 -1.1980  1.0918
 5802TIP3    H238822   3.946   1.893  12.963 -1.7939  0.6844 -0.5862
 5803TIP3   OH238823   4.765   4.855  15.247  0.7173 -0.5810  0.0912
 5803TIP3    H138824   4.783   4.832  15.338 -2.0502  1.0120  1.1663
 5803TIP3    H238825   4.712   4.783  15.213  2.6740 -1.7215 -0.7092
 5804TIP3   OH238826   5.122   0.308  15.125 -0.1285 -0.5613  0.1566
 5804TIP3    H138827   5.061   0.371  15.163 -0.5455 -1.1163  0.4030
 5804TIP3    H238828   5.071   0.228  15.114 -0.9830  0.3278 -4.3480
 5805TIP3   OH238829   2.599   6.118  16.055  0.1166 -0.3865  0.5081
 5805TIP3    H138830   2.591   6.125  16.150 -1.5648 -1.5488  0.5064
 5805TIP3    H238831   2.572   6.203  16.022 -1.0950 -0.5305  1.0459
 5806TIP3   OH238832   5.706   4.106   1.911  0.6642  0.1734 -0.0733
 5806TIP3    H138833   5.678   4.023   1.947  1.4673 -0.4660 -0.8488
 5806TIP3    H238834   5.751   4.150   1.983  0.2629 -0.0754  0.3309
 5807TIP3   OH238835   6.300   5.225  14.498 -0.2099 -0.2454  0.7205
 5807TIP3    H138836   6.278   5.228  14.405 -0.4325  1.0368  0.7988
 5807TIP3    H238837   6.390   5.259  14.502 -0.4108  0.2594  1.0258
 5808TIP3   OH238838   5.976   2.725   2.133  0.2385  0.6189 -0.1079
 5808TIP3    H138839   6.054   2.696   2.179 -0.1104 -0.5184 -0.1881
 5808TIP3    H238840   5.904   2.676   2.175 -0.6891  2.8516  1.0939
 5809TIP3   OH238841   1.890   3.043   0.698 -0.0149 -0.2592 -0.0067
 5809TIP3    H138842   1.978   3.023   0.664  0.6519  0.0736  1.4562
 5809TIP3    H238843   1.832   3.028   0.623  1.2239 -0.9747 -0.8691
 5810TIP3   OH238844   3.053   3.125  16.684 -0.0088  0.0496  0.3097
 5810TIP3    H138845   3.053   3.177  16.764 -1.4205  3.0258 -1.4344
 5810TIP3    H238846   2.972   3.150  16.639  0.4505 -1.8973 -1.7915
 5811TIP3   OH238847   0.937   3.021   3.131  0.2621  0.4652  0.4045
 5811TIP3    H138848   0.874   2.980   3.190 -0.2748  2.1010  1.0082
 5811TIP3    H238849   0.889   3.093   3.090  0.2864 -1.1908 -2.8578
 5812TIP3   OH238850   1.492   6.174   4.294 -0.3760 -0.6717 -0.4032
 5812TIP3    H138851   1.400   6.175   4.270 -0.6064 -0.7798  0.4295
 5812TIP3    H238852   1.506   6.259   4.336 -0.5437 -1.3132  1.0211
 5813TIP3   OH238853   3.881   1.896  11.112  0.0127  0.3737  0.6722
 5813TIP3    H138854   3.805   1.954  11.116 -1.6531 -1.6447  0.4088
 5813TIP3    H238855   3.886   1.871  11.020  2.2171  1.8922  0.3013
 5814TIP3   OH238856   3.983   4.118  15.894 -0.5572 -0.3741 -0.3103
 5814TIP3    H138857   3.907   4.162  15.932 -0.4480 -0.5865  0.1661
 5814TIP3    H238858   4.035   4.091  15.970  1.1053  1.6644 -0.6234
 5815TIP3   OH238859   6.021   0.247  14.081  0.3137  0.1003  0.2572
 5815TIP3    H138860   5.982   0.334  14.078 -1.0084 -0.4191  1.5130
 5815TIP3    H238861   6.045   0.228  13.990 -2.4468  0.4201 -0.6074
 5816TIP3   OH238862   6.212   5.243  16.957  0.0077 -0.4008 -0.9428
 5816TIP3    H138863   6.202   5.259  16.863  1.1513  0.8523 -0.8766
 5816TIP3    H238864   6.262   5.318  16.989 -0.4001 -0.7880  0.6821
 5817TIP3   OH238865   0.617   3.636   2.727 -0.4143  0.6117  0.1598
 5817TIP3    H138866   0.617   3.638   2.631 -1.2786  1.0461  0.1601
 5817TIP3    H238867   0.542   3.581   2.750  0.0364  0.1734  0.5867
 5818TIP3   OH238868   3.052   6.620   3.825 -0.5449  0.0350  0.2911
 5818TIP3    H138869   3.133   6.661   3.858 -1.6873  0.4512  2.7886
 5818TIP3    H238870   3.046   6.538   3.873 -1.1715 -0.4187 -0.5518
 5819TIP3   OH238871   3.989   4.477   2.501  0.1178 -0.1391  1.1035
 5819TIP3    H138872   3.943   4.407   2.456  0.1700 -1.3755  2.9002
 5819TIP3    H238873   4.059   4.503   2.440 -0.5707 -0.8763 -0.0232
 5820TIP3   OH238874   1.709   1.776  12.482  0.1633 -0.2547 -0.1084
 5820TIP3    H138875   1.771   1.819  12.540  0.3612 -1.1578  0.3584
 5820TIP3    H238876   1.738   1.801  12.394  0.0319  0.8851  0.1528
 5821TIP3   OH238877   2.084   5.116   0.109 -0.3004  0.0384  0.0600
 5821TIP3    H138878   2.113   5.205   0.090 -1.4879  0.7702  1.5315
 5821TIP3    H238879   2.120   5.097   0.196 -0.6669 -0.6339  0.0722
 5822TIP3   OH238880   2.743   6.336  11.900 -0.5520  0.1185  0.4077
 5822TIP3    H138881   2.712   6.247  11.880 -1.1778  0.1807  1.0216
 5822TIP3    H238882   2.737   6.383  11.818 -1.8110  0.0302  0.4286
 5823TIP3   OH238883   1.394   1.650   6.069 -0.6473 -0.5821 -0.1828
 5823TIP3    H138884   1.470   1.680   6.019  0.0036  0.2706  1.2307
 5823TIP3    H238885   1.414   1.559   6.092 -1.2431 -1.1872 -1.9519
 5824TIP3   OH238886   1.902   1.173  12.966  0.1918 -0.3464 -0.0330
 5824TIP3    H138887   1.849   1.118  13.023 -0.5080 -0.2676 -0.6006
 5824TIP3    H238888   1.860   1.167  12.880  0.1631  1.0100 -0.1286
 5825TIP3   OH238889   3.985   1.151  16.100  0.8123  0.2357  0.0713
 5825TIP3    H138890   4.074   1.119  16.082  0.7890  1.1157 -1.8232
 5825TIP3    H238891   3.943   1.079  16.147  2.1736 -0.6492 -0.0008
 5826TIP3   OH238892   4.667   5.410   1.760 -0.5239 -0.1874 -0.0368
 5826TIP3    H138893   4.614   5.373   1.688  0.2895  0.7951 -1.1831
 5826TIP3    H238894   4.757   5.407   1.727 -0.2957  1.5935  0.3490
 5827TIP3   OH238895   0.431   4.825   2.558 -0.1880 -0.1388 -0.1356
 5827TIP3    H138896   0.375   4.749   2.577  0.8714 -1.0844 -0.6578
 5827TIP3    H238897   0.370   4.892   2.528 -0.9452 -1.6242 -2.1718
 5828TIP3   OH238898   1.506   3.830   2.646  0.2624  0.1539 -0.6824
 5828TIP3    H138899   1.536   3.752   2.692 -1.7089 -0.4104 -0.2560
 5828TIP3    H238900   1.529   3.903   2.704  2.8777  0.0483 -1.4678
 5829TIP3   OH238901   5.454   1.519  13.416 -0.4367 -0.0278 -0.5325
 5829TIP3    H138902   5.480   1.569  13.339 -0.8699 -2.4496 -2.3251
 5829TIP3    H238903   5.382   1.464  13.387  1.0880 -2.9779  0.8141
 5830TIP3   OH238904   1.864   2.480  15.989  0.4579  0.1481  0.0476
 5830TIP3    H138905   1.771   2.462  15.974  0.9826 -2.4751 -0.6357
 5830TIP3    H238906   1.866   2.568  16.027 -2.3307  0.0961  0.5264
 5831TIP3   OH238907   5.763   1.937  12.189 -0.3815 -0.6306  0.2568
 5831TIP3    H138908   5.745   1.953  12.097 -3.6829  1.3585  1.0754
 5831TIP3    H238909   5.836   1.994  12.210 -1.2022  0.8198 -0.6463
 5832TIP3   OH238910   2.155   0.286  11.467 -0.4176 -0.2451  0.1596
 5832TIP3    H138911   2.210   0.233  11.409 -0.2077  0.4710 -0.3074
 5832TIP3    H238912   2.095   0.223  11.508 -0.8975 -0.7061 -1.2056
 5833TIP3   OH238913   2.006   0.450  15.282 -0.3027 -0.0428  0.5431
 5833TIP3    H138914   1.983   0.368  15.325  1.7448 -0.3076  1.2269
 5833TIP3    H238915   2.056   0.498  15.347 -0.9671  1.5288 -0.0525
 5834TIP3   OH238916   4.820   1.499   1.486  0.3708  0.5037 -0.1833
 5834TIP3    H138917   4.848   1.498   1.395  0.7698 -1.3564 -0.0857
 5834TIP3    H238918   4.849   1.583   1.519  1.8328  0.4835 -1.3073
 5835TIP3   OH238919   0.821   4.988   1.839  0.2759  0.1913 -0.2524
 5835TIP3    H138920   0.854   4.967   1.926  0.4593 -0.1567 -0.4005
 5835TIP3    H238921   0.855   5.075   1.819 -0.3464  0.5687  0.3058
 5836TIP3   OH238922   2.182   2.562   4.201  0.3660 -0.3755 -0.7623
 5836TIP3    H138923   2.176   2.642   4.254  1.2084 -0.7766 -0.0278
 5836TIP3    H238924   2.234   2.587   4.125 -0.4477  0.0856 -1.1826
 5837TIP3   OH238925   3.946   4.606   4.771 -0.3390  0.0157 -0.2876
 5837TIP3    H138926   3.963   4.650   4.688 -1.3444  0.8256 -0.0875
 5837TIP3    H238927   3.851   4.594   4.772 -0.1115 -1.9966 -0.2352
 5838TIP3   OH238928   4.251   2.937   2.600 -0.4596 -0.5191 -0.7831
 5838TIP3    H138929   4.168   2.917   2.643 -0.5745 -0.8397 -1.1466
 5838TIP3    H238930   4.289   3.008   2.652 -1.2338  0.0329 -0.9650
 5839TIP3   OH238931   3.581   3.934  12.818  0.0740  0.0909  0.4732
 5839TIP3    H138932   3.669   3.958  12.849  0.1648 -0.6163  0.7687
 5839TIP3    H238933   3.544   4.017  12.786  0.6608  0.4886  0.8022
 5840TIP3   OH238934   3.162   1.788  12.249 -0.0832  0.0603 -0.2018
 5840TIP3    H138935   3.090   1.724  12.243 -0.1448  0.2113 -1.5005
 5840TIP3    H238936   3.117   1.872  12.259 -0.1047  0.1609 -1.0710
 5841TIP3   OH238937   4.348   3.358  10.074  0.0041 -0.2012  0.3512
 5841TIP3    H138938   4.357   3.283  10.133  0.5056  1.1459  2.0838
 5841TIP3    H238939   4.351   3.435  10.132 -3.4549  1.1344 -0.9318
 5842TIP3   OH238940   4.203   0.453   1.289  0.5634 -0.0120 -0.4631
 5842TIP3    H138941   4.246   0.368   1.278  0.9999  0.2965 -1.1138
 5842TIP3    H238942   4.109   0.432   1.290  0.6765 -0.5220 -0.4011
 5843TIP3   OH238943   3.605   3.699   4.337  0.1499  0.3253  0.3183
 5843TIP3    H138944   3.612   3.788   4.300  0.9186  0.0576 -0.2091
 5843TIP3    H238945   3.668   3.698   4.409 -0.6248  0.5329  1.0031
 5844TIP3   OH238946   3.535   3.048  15.481  0.4934  0.1503 -0.3665
 5844TIP3    H138947   3.630   3.051  15.470  0.6926  0.9433  1.2769
 5844TIP3    H238948   3.506   3.137  15.459  0.1310 -0.0890 -0.8557
 5845TIP3   OH238949   4.133   4.245  16.668 -0.6562 -0.1448 -0.2638
 5845TIP3    H138950   4.133   4.256  16.763 -1.1005 -1.2985 -0.1074
 5845TIP3    H238951   4.125   4.150  16.655  3.5850 -0.5606 -1.4080
 5846TIP3   OH238952   6.656   1.528   2.773 -0.5147 -0.0096 -0.1162
 5846TIP3    H138953   6.726   1.471   2.806 -1.0767 -0.8748 -0.3751
 5846TIP3    H238954   6.577   1.496   2.817 -0.8562  0.5117 -0.3425
 5847TIP3   OH238955   1.337   6.030  12.604 -0.5521  0.4924  0.1365
 5847TIP3    H138956   1.344   5.972  12.680  0.0093  1.7767  1.1064
 5847TIP3    H238957   1.427   6.049  12.580 -0.7285  0.3014 -0.7154
 5848TIP3   OH238958   4.772   3.059   0.814  0.2371 -0.7153 -0.3045
 5848TIP3    H138959   4.819   3.137   0.785  0.3239 -1.2247 -1.6150
 5848TIP3    H238960   4.680   3.078   0.795  0.1152 -0.4586  0.5139
 5849TIP3   OH238961   5.510   4.263   4.284 -0.2183 -0.2528  0.2313
 5849TIP3    H138962   5.574   4.327   4.315 -0.8015  0.3211  0.2496
 5849TIP3    H238963   5.556   4.215   4.216  0.0107  0.6259 -0.2443
 5850TIP3   OH238964   4.408   4.171   6.398 -0.1647 -0.6538  0.0500
 5850TIP3    H138965   4.502   4.178   6.415 -0.1728 -0.0422 -0.1636
 5850TIP3    H238966   4.386   4.081   6.424  0.2088 -0.3699  1.4232
 5851TIP3   OH238967   2.027   0.270  17.118 -0.0818  0.0248  0.0898
 5851TIP3    H138968   1.953   0.322  17.088 -0.3905 -0.3294  0.2308
 5851TIP3    H238969   2.005   0.246  17.208 -0.4778 -1.3138 -0.3427
 5852TIP3   OH238970   4.054   0.852  13.858 -0.4614 -0.1027  0.1759
 5852TIP3    H138971   3.999   0.930  13.856 -0.3253 -0.0270 -0.7386
 5852TIP3    H238972   3.999   0.785  13.898 -0.1463  0.7686  2.2549
 5853TIP3   OH238973   4.159   5.442   0.880  0.0531 -0.7253 -0.2067
 5853TIP3    H138974   4.240   5.400   0.851  0.1437 -0.4542 -0.3479
 5853TIP3    H238975   4.119   5.379   0.940  0.3126 -0.9065 -0.2248
 5854TIP3   OH238976   2.530   5.579   3.247  0.2928  0.5860  0.2994
 5854TIP3    H138977   2.535   5.590   3.152  0.7951  0.1291  0.2676
 5854TIP3    H238978   2.564   5.491   3.262 -1.9899 -0.2848  0.6864
 5855TIP3   OH238979   6.100   0.245  15.931 -0.6078 -0.1496 -0.1583
 5855TIP3    H138980   6.180   0.202  15.902  0.5110  0.9459  1.1434
 5855TIP3    H238981   6.049   0.175  15.971  0.8469 -0.4491  1.2778
 5856TIP3   OH238982   2.591   2.156  13.755  0.2496 -0.2777 -0.7220
 5856TIP3    H138983   2.501   2.129  13.775  1.1394 -1.6541  2.0090
 5856TIP3    H238984   2.620   2.203  13.833  2.2437 -0.9053 -1.0129
 5857TIP3   OH238985   0.139   5.309   4.401 -0.3715  0.3987  0.4501
 5857TIP3    H138986   0.045   5.317   4.386 -0.5278 -1.5793  0.1910
 5857TIP3    H238987   0.179   5.351   4.325 -1.0709 -0.1073 -0.2124
 5858TIP3   OH238988   2.295   6.044   6.844  0.5987 -0.2106 -0.5172
 5858TIP3    H138989   2.285   6.026   6.750 -1.0182 -0.0112 -0.4125
 5858TIP3    H238990   2.236   6.118   6.860  1.1084 -0.0306  0.6075
 5859TIP3   OH238991   4.729   5.738   2.777 -0.0993 -0.5293  0.4034
 5859TIP3    H138992   4.767   5.777   2.699  1.6363 -2.7792 -0.0016
 5859TIP3    H238993   4.659   5.681   2.744  1.1968 -2.1500  0.3043
 5860TIP3   OH238994   0.661   1.951  13.610  0.3425 -0.2455  0.1675
 5860TIP3    H138995   0.672   1.869  13.564  1.3585 -0.3406  0.5638
 5860TIP3    H238996   0.742   2.000  13.594  1.0389 -0.5652  2.3795
 5861TIP3   OH238997   3.949   6.329   3.807  0.7454 -0.3566  0.2041
 5861TIP3    H138998   4.028   6.300   3.852  0.9087 -0.2335 -0.0007
 5861TIP3    H238999   3.917   6.403   3.858  1.4469  0.3789 -0.3924
 5862TIP3   OH239000   1.798   2.720  12.658  0.4442 -0.2801  0.0627
 5862TIP3    H139001   1.766   2.788  12.600 -0.0893  0.2914  1.0030
 5862TIP3    H239002   1.853   2.766  12.721 -2.3297 -0.1440  2.6066
 5863TIP3   OH239003   3.227   3.750  13.442 -0.4690 -0.3371  0.2333
 5863TIP3    H139004   3.224   3.753  13.537 -1.4647  0.0695  0.1989
 5863TIP3    H239005   3.199   3.837  13.414 -0.8392 -0.6604 -0.4374
 5864TIP3   OH239006   1.995   3.597   3.984  0.3901  0.0783 -0.0376
 5864TIP3    H139007   1.950   3.644   4.054 -1.6809 -2.6541  0.6409
 5864TIP3    H239008   1.929   3.587   3.915  1.8326  1.0854 -1.6403
 5865TIP3   OH239009   2.899   0.692  12.699  0.4607  0.3475 -0.1243
 5865TIP3    H139010   2.989   0.659  12.702  0.8625  0.9531 -2.9323
 5865TIP3    H239011   2.907   0.782  12.667 -1.1486  0.4607 -0.2957
 5866TIP3   OH239012   4.653   4.407   2.318  0.2666 -0.0099 -0.0630
 5866TIP3    H139013   4.690   4.490   2.289 -1.3108  0.5297 -0.6631
 5866TIP3    H239014   4.722   4.343   2.302  0.8134  0.8773 -1.4952
 5867TIP3   OH239015   3.359   2.365  13.026 -0.2871 -0.0109  0.0218
 5867TIP3    H139016   3.410   2.411  12.960 -3.3852  3.3682 -0.3251
 5867TIP3    H239017   3.346   2.430  13.095 -1.9785 -1.5566  1.2299
 5868TIP3   OH239018   4.645   1.414  14.964  0.1523 -0.1438  0.2585
 5868TIP3    H139019   4.557   1.399  14.931  0.0139  1.2221 -0.0721
 5868TIP3    H239020   4.634   1.480  15.032  1.0371  0.9818 -0.6464
 5869TIP3   OH239021   5.099   1.789   3.237 -0.6659  0.5258  0.2318
 5869TIP3    H139022   5.076   1.702   3.205  0.9018  0.0942  0.1983
 5869TIP3    H239023   5.193   1.785   3.250 -0.3921  2.5607 -0.8124
 5870TIP3   OH239024   6.701   1.661  16.305  0.2176 -0.3593 -0.0028
 5870TIP3    H139025   6.753   1.707  16.239  1.1053  0.8191  1.4706
 5870TIP3    H239026   6.675   1.728  16.368 -0.9360 -1.3837  0.6756
 5871TIP3   OH239027   6.391   2.618   2.459  0.4322  0.1827  0.2010
 5871TIP3    H139028   6.479   2.582   2.473  0.1040  0.0034  2.0345
 5871TIP3    H239029   6.346   2.550   2.408  0.9824 -0.2872  0.3214
 5872TIP3   OH239030   2.064   3.768   6.610  0.5565  0.3504 -0.2688
 5872TIP3    H139031   2.003   3.710   6.564 -0.9722  0.7589  1.1521
 5872TIP3    H239032   2.140   3.712   6.629  1.2310  0.1497 -3.1210
 5873TIP3   OH239033   6.467   4.442  13.024 -0.1400  0.0032 -0.2368
 5873TIP3    H139034   6.523   4.514  13.051  2.8841 -1.2069 -2.6933
 5873TIP3    H239035   6.438   4.465  12.936  1.1764 -1.8263 -1.2191
 5874TIP3   OH239036   1.131   2.049   0.059 -0.1881 -0.3201 -0.8296
 5874TIP3    H139037   1.128   2.107   0.135 -0.6882  0.6076 -1.5409
 5874TIP3    H239038   1.204   2.083   0.006  0.1066 -0.9134 -0.8140
 5875TIP3   OH239039   2.600   5.037  12.865  0.3116 -0.0287  0.0578
 5875TIP3    H139040   2.669   5.102  12.851  0.3655  0.1951  1.2539
 5875TIP3    H239041   2.612   5.008  12.956 -2.8514  2.0728  1.3238
 5876TIP3   OH239042   3.403   0.312   3.625  0.3408  0.5460  0.1462
 5876TIP3    H139043   3.325   0.292   3.575  0.5206 -0.6886  0.3137
 5876TIP3    H239044   3.395   0.404   3.649 -0.0433  0.9904 -1.5982
 5877TIP3   OH239045   4.121   3.782   0.448  0.0752  0.1396 -0.1057
 5877TIP3    H139046   4.076   3.756   0.368  1.9417 -1.5705 -0.6917
 5877TIP3    H239047   4.058   3.766   0.518 -0.5451 -1.3416 -0.9576
 5878TIP3   OH239048   3.478   3.975   0.592  0.0383  0.1986 -0.8531
 5878TIP3    H139049   3.553   3.915   0.603  0.5816  0.8087 -1.1664
 5878TIP3    H239050   3.415   3.947   0.658  0.4504 -0.4707 -0.7330
 5879TIP3   OH239051   4.570   5.468  17.127  0.2131 -0.0757  0.4400
 5879TIP3    H139052   4.557   5.447  17.034  0.7677  0.4580  0.2389
 5879TIP3    H239053   4.640   5.409  17.155 -0.1914 -0.4773  0.6103
 5880TIP3   OH239054   3.423   3.822  15.469  0.3869 -0.8120 -0.5486
 5880TIP3    H139055   3.401   3.770  15.391 -1.1884 -0.3490 -0.4604
 5880TIP3    H239056   3.422   3.759  15.541  1.1306 -1.1130 -0.7901
 5881TIP3   OH239057   3.332   1.018  13.023 -0.3943  0.2616 -0.1498
 5881TIP3    H139058   3.409   1.073  13.014  1.2164 -1.7398  0.7204
 5881TIP3    H239059   3.321   0.979  12.936 -0.0433  0.0669 -0.1074
 5882TIP3   OH239060   3.262   4.745   5.820 -0.0437  0.2783 -0.1033
 5882TIP3    H139061   3.248   4.686   5.894 -0.9331  1.0488  0.3662
 5882TIP3    H239062   3.252   4.689   5.743  0.4913 -0.4491  0.3443
 5883TIP3   OH239063   6.523   0.053  15.046  0.0819 -0.1043 -0.0894
 5883TIP3    H139064   6.571   0.014  14.973 -2.0208 -0.1994 -1.5239
 5883TIP3    H239065   6.541  -0.004  15.121  0.2623 -1.5000 -1.1719
 5884TIP3   OH239066   6.716   4.326   0.162 -0.1551  0.5059 -0.7258
 5884TIP3    H139067   6.653   4.331   0.091 -0.8430 -0.1279 -0.1757
 5884TIP3    H239068   6.784   4.267   0.130 -2.1252 -2.5955  0.3088
 5885TIP3   OH239069   0.113   0.880   3.656  0.2631  0.2256  0.2169
 5885TIP3    H139070   0.185   0.923   3.703  2.7684 -1.0697 -2.1563
 5885TIP3    H239071   0.136   0.890   3.564 -1.0986 -2.7655 -0.5443
 5886TIP3   OH239072   4.445   1.501  11.887  0.2534 -0.2358  0.1894
 5886TIP3    H139073   4.408   1.511  11.799 -1.9047 -1.8470  0.8083
 5886TIP3    H239074   4.446   1.589  11.924 -1.7467  0.0873 -0.4138
 5887TIP3   OH239075   0.499   3.729   5.445 -0.3043  0.1778 -0.0035
 5887TIP3    H139076   0.473   3.715   5.536  0.9957 -0.9384  0.2288
 5887TIP3    H239077   0.464   3.654   5.398 -3.5889  2.1513 -1.1009
 5888TIP3   OH239078   0.441   3.361   4.917  0.2810 -0.1755  0.0576
 5888TIP3    H139079   0.501   3.391   4.849  0.4982 -2.4892 -0.8558
 5888TIP3    H239080   0.489   3.293   4.964 -0.9069 -0.6550  0.6318
 5889TIP3   OH239081   1.028   0.157  12.309  0.2124 -0.4306 -0.5504
 5889TIP3    H139082   1.081   0.232  12.283  1.3879 -1.9247 -2.8011
 5889TIP3    H239083   1.089   0.083  12.309 -0.9410 -1.4907  1.3909
 5890TIP3   OH239084   3.075   2.319  14.399  0.3605  0.0198 -0.0820
 5890TIP3    H139085   3.157   2.339  14.445 -0.0489 -0.1966  0.7547
 5890TIP3    H239086   3.099   2.323  14.307  1.2797  0.1338  0.1436
 5891TIP3   OH239087   0.679   3.502   3.278 -0.0211 -0.1212  0.0640
 5891TIP3    H139088   0.686   3.577   3.337  1.0024  0.4655 -0.7778
 5891TIP3    H239089   0.762   3.500   3.231  0.1216 -2.0129  0.3176
 5892TIP3   OH239090   5.225   5.043   5.337 -0.5168  0.4574 -0.0197
 5892TIP3    H139091   5.179   5.071   5.258  0.0989  1.0168 -0.1978
 5892TIP3    H239092   5.156   5.029   5.402 -0.9800  0.6698 -0.4576
 5893TIP3   OH239093   0.298   4.249   4.540 -0.0222 -0.0480 -0.0419
 5893TIP3    H139094   0.291   4.196   4.461 -1.0266 -1.2999  0.8265
 5893TIP3    H239095   0.272   4.189   4.611  1.7267  0.7454  1.3575
 5894TIP3   OH239096   2.052   3.360   1.420 -0.4635  0.1664  0.6480
 5894TIP3    H139097   2.041   3.381   1.513  1.5472  0.3111  0.8978
 5894TIP3    H239098   1.975   3.398   1.378 -1.4614  0.0107  2.2646
 5895TIP3   OH239099   2.987   2.142  13.063 -0.3861 -0.2275 -0.2111
 5895TIP3    H139100   3.045   2.166  12.992  1.0393 -0.5430  0.8052
 5895TIP3    H239101   2.995   2.047  13.070 -0.6940 -0.2275  0.2268
 5896TIP3   OH239102   1.103   2.461   3.130  0.4002 -0.1625  0.0483
 5896TIP3    H139103   1.067   2.373   3.121  1.2124 -0.4711 -0.2936
 5896TIP3    H239104   1.087   2.502   3.046  0.4199 -0.1363  0.0575
 5897TIP3   OH239105   0.891   4.319   3.374 -0.4442  0.2909 -0.3748
 5897TIP3    H139106   0.938   4.331   3.457 -0.7016  0.1182 -0.2055
 5897TIP3    H239107   0.872   4.408   3.345 -0.1112  0.3612 -0.3881
 5898TIP3   OH239108   6.274   5.262  15.312  0.4017 -0.0091  0.1105
 5898TIP3    H139109   6.211   5.243  15.381  0.6131  0.4037  0.4184
 5898TIP3    H239110   6.260   5.193  15.247  1.6794 -1.7109  1.5453
 5899TIP3   OH239111   2.647   1.958   5.716  0.5357  0.4518  0.5097
 5899TIP3    H139112   2.664   1.917   5.801 -1.0114  1.1303  1.1931
 5899TIP3    H239113   2.732   1.989   5.686  1.2246 -0.4689  1.4451
 5900TIP3   OH239114   5.659   3.225   3.955 -0.0985  0.4548  0.0011
 5900TIP3    H139115   5.671   3.316   3.982  0.3517  0.1195  0.9509
 5900TIP3    H239116   5.575   3.200   3.994 -0.7703  0.7844 -1.1795
 5901TIP3   OH239117   4.534   3.328  11.402 -0.7506 -0.1092 -0.7510
 5901TIP3    H139118   4.595   3.258  11.377 -0.2803 -0.2463  0.6488
 5901TIP3    H239119   4.579   3.409  11.379 -0.4320 -0.2324 -0.5735
 5902TIP3   OH239120   2.939   6.452  15.424 -0.3158  0.2103 -0.1240
 5902TIP3    H139121   2.914   6.542  15.447 -1.9092  0.4221 -2.3845
 5902TIP3    H239122   2.856   6.404  15.425 -0.1949 -0.2224 -3.0522
 5903TIP3   OH239123   2.161   2.284  16.829  0.3115  0.7389  0.1486
 5903TIP3    H139124   2.085   2.288  16.771  0.2105  1.4318  0.3107
 5903TIP3    H239125   2.213   2.361  16.804  1.0220  0.2059 -0.0424
 5904TIP3   OH239126   0.135   3.220  15.398 -0.3746 -0.1249 -0.0334
 5904TIP3    H139127   0.110   3.301  15.354 -0.8205  0.0685  0.5559
 5904TIP3    H239128   0.061   3.161  15.384 -0.5123 -0.0681  0.4327
 5905TIP3   OH239129   4.648   6.079   2.413 -0.4333 -0.4675  0.5856
 5905TIP3    H139130   4.732   6.121   2.430 -1.0450  0.4931  1.3323
 5905TIP3    H239131   4.586   6.151   2.405 -0.8631 -1.0197 -2.1532
 5906TIP3   OH239132   4.522   3.109   5.512  0.2006  0.2567  0.0985
 5906TIP3    H139133   4.543   3.188   5.463  3.2112  0.2044  1.1401
 5906TIP3    H239134   4.471   3.140   5.587  0.1199  0.9942 -0.2488
 5907TIP3   OH239135   0.531   4.839  15.611 -1.0778 -0.2226 -0.3981
 5907TIP3    H139136   0.447   4.799  15.634 -1.2392  0.6301  0.6051
 5907TIP3    H239137   0.596   4.785  15.657 -1.2548  0.3469  0.5475
 5908TIP3   OH239138   4.780   5.674   0.033 -0.5316  0.3408 -0.2602
 5908TIP3    H139139   4.733   5.618  -0.029 -1.2249 -1.2586  1.5810
 5908TIP3    H239140   4.717   5.742   0.056 -0.6868  0.2632 -0.4525
 5909TIP3   OH239141   2.312   4.261  12.116 -0.0367  0.0741 -0.9281
 5909TIP3    H139142   2.252   4.195  12.151  0.2761  0.3578  0.1878
 5909TIP3    H239143   2.256   4.336  12.095 -0.1876  0.0394 -0.6569
 5910TIP3   OH239144   0.976   2.064  15.216 -0.1700 -0.5243  0.2306
 5910TIP3    H139145   0.996   2.069  15.310 -1.8733 -2.6437  0.7925
 5910TIP3    H239146   1.009   1.979  15.189  0.0898 -0.0310 -1.0610
 5911TIP3   OH239147   2.888   1.920   3.522  0.0262 -0.0336  0.1031
 5911TIP3    H139148   2.974   1.962   3.518  1.3213 -2.2133  2.1388
 5911TIP3    H239149   2.907   1.831   3.550 -2.9281 -0.6509  0.4298
 5912TIP3   OH239150   3.627   1.974  14.785 -0.6979 -0.0456 -0.4088
 5912TIP3    H139151   3.660   2.008  14.868 -1.1707  1.0678 -0.6464
 5912TIP3    H239152   3.636   1.879  14.792 -0.8059  0.0237  0.9487
 5913TIP3   OH239153   1.579   4.845   6.650 -0.0411  0.1065  0.9235
 5913TIP3    H139154   1.497   4.887   6.622  0.2102 -0.2915 -0.4781
 5913TIP3    H239155   1.620   4.910   6.707 -1.2322  0.3959  1.4929
 5914TIP3   OH239156   3.268   1.915   1.203 -0.6884 -0.1180 -0.3469
 5914TIP3    H139157   3.189   1.930   1.152 -1.1733  1.4033  0.7690
 5914TIP3    H239158   3.332   1.977   1.168 -0.2328 -0.7730 -0.7046
 5915TIP3   OH239159   2.799   4.530   5.698  0.5184  0.3565  0.2336
 5915TIP3    H139160   2.770   4.506   5.786  0.8542  1.2702  0.5950
 5915TIP3    H239161   2.725   4.577   5.660  0.1567 -0.5219 -0.1966
 5916TIP3   OH239162   3.789   6.097   6.283 -0.0287  0.3174 -0.1628
 5916TIP3    H139163   3.840   6.177   6.271 -0.6536  0.8649  0.6538
 5916TIP3    H239164   3.700   6.128   6.304 -0.3117 -0.5841  0.0365
 5917TIP3   OH239165   4.522   1.424   6.073 -0.4591  0.0086 -0.0084
 5917TIP3    H139166   4.543   1.475   6.151 -0.7393  0.4434 -0.2140
 5917TIP3    H239167   4.428   1.438   6.060 -0.5970 -0.7911  0.0978
 5918TIP3   OH239168   5.185   6.372  14.042 -0.0965  0.4246  0.3758
 5918TIP3    H139169   5.255   6.406  14.098 -0.6702 -0.1567  1.4717
 5918TIP3    H239170   5.198   6.277  14.042  0.1245  0.4448 -0.8063
 5919TIP3   OH239171   4.379   5.571  11.742 -0.4954  0.3888 -0.0381
 5919TIP3    H139172   4.385   5.548  11.835 -0.9662  1.4726  0.2835
 5919TIP3    H239173   4.339   5.658  11.742 -2.0843 -0.2840 -1.3201
 5920TIP3   OH239174   3.194   1.664   2.142  0.3065 -0.5743  0.3534
 5920TIP3    H139175   3.210   1.572   2.119  0.8584 -0.4772  0.3212
 5920TIP3    H239176   3.173   1.706   2.058  0.1822 -0.6462  0.3486
 5921TIP3   OH239177   4.872   5.072   3.326  0.6752  0.5302 -0.1995
 5921TIP3    H139178   4.862   5.132   3.400  0.0645  0.1214  0.0568
 5921TIP3    H239179   4.966   5.051   3.325  1.1237  2.4147 -1.0491
 5922TIP3   OH239180   3.167   5.473  11.802  0.3417  0.2154 -0.7722
 5922TIP3    H139181   3.086   5.486  11.851  0.8231  1.6805 -0.2969
 5922TIP3    H239182   3.154   5.391  11.754 -0.7650 -0.4297  0.5658
 5923TIP3   OH239183   6.733   3.900   4.271 -0.3013  0.3575  0.2902
 5923TIP3    H139184   6.714   3.890   4.364  1.2771  1.7202  0.8143
 5923TIP3    H239185   6.816   3.854   4.259 -0.2976  0.5258 -0.3658
 5924TIP3   OH239186   0.549   0.667   1.007 -0.2769  0.3310 -0.1544
 5924TIP3    H139187   0.551   0.762   1.013 -0.8729  0.2460  2.3867
 5924TIP3    H239188   0.456   0.644   1.006 -0.2066 -0.2148 -2.9586
 5925TIP3   OH239189   5.419   4.100  14.665 -0.3704 -0.3510 -0.2802
 5925TIP3    H139190   5.429   4.117  14.572 -1.1317 -1.4335 -0.5820
 5925TIP3    H239191   5.507   4.113  14.702  0.1722 -0.9292 -1.3205
 5926TIP3   OH239192   2.219   6.239  14.252 -0.4735  0.3737  0.0688
 5926TIP3    H139193   2.299   6.192  14.278 -0.6041 -0.6482 -1.2693
 5926TIP3    H239194   2.215   6.314  14.311  1.0459 -0.0010  0.6929
 5927TIP3   OH239195   1.368   4.592  13.849 -0.3519 -0.2424  0.0901
 5927TIP3    H139196   1.376   4.526  13.918  1.8075 -1.5293 -1.2770
 5927TIP3    H239197   1.426   4.663  13.877  0.0176 -0.4800 -0.0539
 5928TIP3   OH239198   2.864   0.571   6.174  0.6730 -0.1189  0.1110
 5928TIP3    H139199   2.865   0.656   6.130  1.2226 -0.0121  0.3140
 5928TIP3    H239200   2.931   0.579   6.242 -0.8026  0.0425  1.6010
 5929TIP3   OH239201   2.698   0.213   2.806 -0.0342 -0.2025  0.5633
 5929TIP3    H139202   2.613   0.254   2.791  1.1224  2.5338  0.8535
 5929TIP3    H239203   2.760   0.269   2.759  1.5817 -2.5787 -0.3621
 5930TIP3   OH239204   5.556   4.641   4.055 -0.5170 -0.2836  0.2964
 5930TIP3    H139205   5.636   4.598   4.086 -0.4572 -0.1515  0.3247
 5930TIP3    H239206   5.514   4.576   3.999 -0.8770 -0.7061  1.0519
 5931TIP3   OH239207   0.458   0.986  11.220  0.3952  0.6933 -0.0287
 5931TIP3    H139208   0.472   1.022  11.307 -0.5349  1.0384 -0.0063
 5931TIP3    H239209   0.406   1.053  11.174  0.6487  0.4024 -0.7559
 5932TIP3   OH239210   0.303   0.353  16.187  0.1592 -0.2155  0.5474
 5932TIP3    H139211   0.266   0.338  16.274  0.3731  1.5423  0.9795
 5932TIP3    H239212   0.292   0.447  16.171 -0.9337 -0.6720 -1.8343
 5933TIP3   OH239213   1.403   0.758   2.720  0.3127  0.0483 -0.1978
 5933TIP3    H139214   1.407   0.841   2.767 -1.3297  1.0597 -1.7024
 5933TIP3    H239215   1.477   0.707   2.754  1.1302  1.9619  1.0452
 5934TIP3   OH239216   4.614   4.856  14.033  0.0531  0.8041  0.0919
 5934TIP3    H139217   4.669   4.781  14.007  0.6511  0.2839  2.5868
 5934TIP3    H239218   4.625   4.862  14.128 -2.1040  2.4170  0.3157
 5935TIP3   OH239219   6.203   1.967   1.746 -0.2937  0.1375  0.2752
 5935TIP3    H139220   6.268   1.974   1.675 -0.7509 -0.1961 -0.1809
 5935TIP3    H239221   6.255   1.973   1.826  0.2201  0.6458 -0.0843
 5936TIP3   OH239222   2.751   2.288   2.709  0.4554  0.3211  0.7922
 5936TIP3    H139223   2.729   2.381   2.715 -2.0902 -0.1877  0.7354
 5936TIP3    H239224   2.820   2.274   2.774 -1.1254  1.7384  2.9103
 5937TIP3   OH239225   4.142   5.389  12.229  0.3352  0.0070  0.2479
 5937TIP3    H139226   4.135   5.294  12.223 -1.3143  0.1366 -0.1403
 5937TIP3    H239227   4.203   5.404  12.302 -1.4013 -1.3436  2.0747
 5938TIP3   OH239228   1.402   2.789  14.148 -0.4156  0.0355  0.3923
 5938TIP3    H139229   1.447   2.822  14.226 -0.5254 -0.6203  0.7388
 5938TIP3    H239230   1.340   2.724  14.181  0.9890 -1.7919 -0.4187
 5939TIP3   OH239231   4.957   0.339  14.007  0.3255  0.1649 -0.3999
 5939TIP3    H139232   4.915   0.292  14.080 -0.1160  1.3069  0.1058
 5939TIP3    H239233   4.885   0.355  13.946  0.6778 -0.7052 -1.0598
 5940TIP3   OH239234   4.004   2.738   0.957  0.4991 -0.3165 -0.5723
 5940TIP3    H139235   4.052   2.813   0.921 -0.8796 -0.0619 -1.9644
 5940TIP3    H239236   3.913   2.755   0.935  0.1339 -2.3298 -0.7989
 5941TIP3   OH239237   6.528   4.954   4.032 -0.2780 -0.5001  0.2501
 5941TIP3    H139238   6.494   5.037   4.065  0.7390 -0.7395  2.0605
 5941TIP3    H239239   6.622   4.967   4.025 -0.2949 -0.9684 -1.1890
 5942TIP3   OH239240   5.481   2.065  14.950 -0.2169  0.4147 -0.0908
 5942TIP3    H139241   5.407   2.045  15.007 -0.5445  0.1104 -0.6220
 5942TIP3    H239242   5.543   2.111  15.008 -0.0648 -0.8506  0.8021
 5943TIP3   OH239243   1.023   0.334   1.023  0.1253  0.0723  0.0274
 5943TIP3    H139244   0.990   0.391   0.954  0.6034  0.2577 -0.0474
 5943TIP3    H239245   1.045   0.252   0.978 -0.4451 -0.1391  0.1159
 5944TIP3   OH239246   0.628   6.458   5.283 -0.3091  1.0810  0.1709
 5944TIP3    H139247   0.657   6.467   5.374 -0.7870 -0.9574  0.5700
 5944TIP3    H239248   0.709   6.445   5.233 -0.0795  1.7840  0.3492
 5945TIP3   OH239249   2.861   5.010   4.422 -0.1984  0.0523  0.1152
 5945TIP3    H139250   2.892   4.927   4.385 -1.8489 -0.2013 -0.8047
 5945TIP3    H239251   2.782   5.031   4.372  0.5930  2.6030 -0.2035
 5946TIP3   OH239252   6.222   4.207   1.665 -0.3697 -0.2676  0.2787
 5946TIP3    H139253   6.230   4.295   1.701  0.2568 -0.2441  0.0964
 5946TIP3    H239254   6.310   4.171   1.669 -0.3987 -0.4887 -0.6612
 5947TIP3   OH239255   0.909   3.429   2.260  0.3130 -0.4990  0.0075
 5947TIP3    H139256   0.880   3.520   2.255 -0.3601 -0.7531 -1.2124
 5947TIP3    H239257   0.833   3.382   2.295  0.1707 -0.7691 -0.6341
 5948TIP3   OH239258   5.383   6.355  14.988  0.8962 -0.1682 -0.0966
 5948TIP3    H139259   5.355   6.424  14.928  3.1145  0.5711 -0.3783
 5948TIP3    H239260   5.366   6.392  15.075  1.8604  0.6809 -0.2477
 5949TIP3   OH239261   6.237   2.293   3.684 -0.5255  0.2465 -0.2530
 5949TIP3    H139262   6.247   2.383   3.716 -2.4787 -0.7642  3.7918
 5949TIP3    H239263   6.309   2.245   3.725 -1.1096 -0.5367 -0.1246
 5950TIP3   OH239264   0.874   3.449   0.418  0.8042 -0.1701 -0.2491
 5950TIP3    H139265   0.914   3.375   0.464 -0.2376 -0.6546 -0.1049
 5950TIP3    H239266   0.905   3.526   0.465  0.2920 -0.6257  0.8565
 5951TIP3   OH239267   4.508   6.172  12.732 -0.3277 -0.6900 -0.3378
 5951TIP3    H139268   4.539   6.114  12.801  1.7717  0.3343 -0.3549
 5951TIP3    H239269   4.500   6.257  12.775 -0.8175 -0.4347 -0.9239
 5952TIP3   OH239270   0.973   4.238   5.551  0.1125 -0.2452  0.9895
 5952TIP3    H139271   0.991   4.151   5.586 -1.2934 -0.8889  0.1972
 5952TIP3    H239272   0.878   4.242   5.544  0.1519  1.3662  1.0079
 5953TIP3   OH239273   2.889   3.998  14.068  0.0513 -0.3994 -0.2700
 5953TIP3    H139274   2.851   3.920  14.110 -0.3026  0.0320  0.2246
 5953TIP3    H239275   2.919   4.052  14.142  0.2782 -0.0564 -0.6129
 5954TIP3   OH239276   6.668   2.171   3.564 -0.3300 -0.1624  0.4739
 5954TIP3    H139277   6.756   2.139   3.545 -0.6395  0.0137 -1.4902
 5954TIP3    H239278   6.614   2.092   3.573 -0.2323 -0.2505  0.2777
 5955TIP3   OH239279   3.562   2.392  15.319 -0.5513 -0.6628 -0.2873
 5955TIP3    H139280   3.612   2.466  15.351 -1.2730 -0.7970  1.2320
 5955TIP3    H239281   3.589   2.383  15.228  1.7739 -0.4127  0.3100
 5956TIP3   OH239282   4.662   1.130  12.172 -0.4301  0.3038 -0.6225
 5956TIP3    H139283   4.692   1.125  12.081 -1.6926  3.7304 -1.3788
 5956TIP3    H239284   4.567   1.125  12.167 -0.5614  1.2481  0.4025
 5957TIP3   OH239285   2.269   1.945   0.125  0.0762  0.2621 -0.0184
 5957TIP3    H139286   2.260   1.985   0.039 -1.0264 -1.3223 -0.6711
 5957TIP3    H239287   2.187   1.966   0.170  0.5737  0.9325  0.6255
 5958TIP3   OH239288   6.613   6.651   6.367  0.3821 -0.4071 -0.1886
 5958TIP3    H139289   6.560   6.629   6.291  0.8979  2.1582 -1.4027
 5958TIP3    H239290   6.599   6.745   6.379 -0.3061 -0.8202  3.4288
 5959TIP3   OH239291   2.658   4.085  12.790  0.5490  0.2739  0.0310
 5959TIP3    H139292   2.615   4.108  12.708  0.0903 -0.1900  0.1296
 5959TIP3    H239293   2.736   4.140  12.793  0.7699  0.0295 -0.8922
 5960TIP3   OH239294   3.804   0.648   1.278 -0.0597  0.3148 -0.1302
 5960TIP3    H139295   3.847   0.607   1.353  0.4029  1.0031 -0.0130
 5960TIP3    H239296   3.864   0.633   1.205 -0.7377 -0.7885 -0.4890
 5961TIP3   OH239297   0.045   1.073  14.349  0.2329  0.1604  0.0026
 5961TIP3    H139298  -0.048   1.049  14.352  0.3155 -0.2409  3.5309
 5961TIP3    H239299   0.089   1.003  14.397  2.4044  0.4276 -1.4787
 5962TIP3   OH239300   1.406   2.430  13.186 -0.4232  0.0733 -0.1288
 5962TIP3    H139301   1.443   2.472  13.264  0.8201  1.0788 -1.2171
 5962TIP3    H239302   1.425   2.336  13.198  2.0436  0.4668 -0.3385
 5963TIP3   OH239303   0.047   3.602   2.437 -0.5216 -0.1073  0.5321
 5963TIP3    H139304  -0.021   3.560   2.383  0.7303 -1.6437  0.0671
 5963TIP3    H239305   0.120   3.616   2.377 -0.6487  2.2483  0.8354
 5964TIP3   OH239306   3.767   5.696  14.100 -0.3925  0.3272 -0.5381
 5964TIP3    H139307   3.860   5.671  14.096 -0.4800  0.0430 -0.9106
 5964TIP3    H239308   3.721   5.622  14.060 -0.9846 -0.5182  1.5873
 5965TIP3   OH239309   1.277   5.440   2.707 -0.2223 -0.3237 -0.2782
 5965TIP3    H139310   1.286   5.345   2.702 -1.6462 -0.5770  1.3783
 5965TIP3    H239311   1.213   5.455   2.776 -0.0234  1.8551 -0.5025
 5966TIP3   OH239312   2.340   4.371  12.521  0.5626  0.1272 -1.0064
 5966TIP3    H139313   2.306   4.425  12.592  0.1760 -2.1128  0.6061
 5966TIP3    H239314   2.271   4.370  12.456  0.5400  1.4531 -1.0341
 5967TIP3   OH239315   4.046   0.989  16.513 -0.3330 -0.1973 -0.4641
 5967TIP3    H139316   4.035   0.895  16.497 -0.9953  0.0065 -1.2421
 5967TIP3    H239317   3.976   1.031  16.462 -0.7264  0.6545  0.7369
 5968TIP3   OH239318   3.397   0.343   4.413 -0.1744 -0.5123  0.0135
 5968TIP3    H139319   3.402   0.412   4.479 -0.4006  0.9561 -1.4439
 5968TIP3    H239320   3.472   0.287   4.431  0.6246  0.7161  0.6096
 5969TIP3   OH239321   0.913   3.185  14.454 -0.0613 -0.5958 -0.4472
 5969TIP3    H139322   0.865   3.254  14.410  0.7509  1.3393  1.5155
 5969TIP3    H239323   0.914   3.211  14.546  1.2177 -2.6667  0.2011
 5970TIP3   OH239324   0.027   2.332   5.401  0.2629 -0.1033 -0.2323
 5970TIP3    H139325  -0.035   2.269   5.438 -1.1014  1.0493 -0.4649
 5970TIP3    H239326  -0.027   2.409   5.380  1.5926  0.5340 -1.4576
 5971TIP3   OH239327   0.993   3.010   4.075 -0.2320 -0.0004 -0.1772
 5971TIP3    H139328   0.930   3.075   4.041 -0.3008  0.9348  1.5970
 5971TIP3    H239329   1.062   3.063   4.115  1.0413 -1.0379 -0.9497
 5972TIP3   OH239330   2.576   6.114  14.141  0.2134 -0.0844 -0.1420
 5972TIP3    H139331   2.607   6.197  14.104 -0.7826  0.3738  0.0166
 5972TIP3    H239332   2.536   6.138  14.225 -2.2639 -0.3377 -1.1705
 5973TIP3   OH239333   2.995   5.542  14.895 -0.1998  0.3912  0.6446
 5973TIP3    H139334   2.996   5.601  14.820  1.0346  0.7464  0.9093
 5973TIP3    H239335   3.001   5.600  14.971 -1.4340  0.0358  1.0363
 5974TIP3   OH239336   0.266   2.789   5.191  0.7741 -0.4042  1.4783
 5974TIP3    H139337   0.269   2.790   5.287 -0.4450  1.8498  1.5611
 5974TIP3    H239338   0.173   2.778   5.170  0.6278  1.7444  0.6702
 5975TIP3   OH239339   0.408   6.303   0.892 -0.6236 -0.1794  0.1103
 5975TIP3    H139340   0.402   6.300   0.796 -0.0402  1.3547  0.0086
 5975TIP3    H239341   0.339   6.243   0.922  0.1046 -1.8056 -1.2581
 5976TIP3   OH239342   0.871   5.886   4.745 -0.2330 -0.5488 -0.0202
 5976TIP3    H139343   0.875   5.805   4.796  0.3711  0.0280  0.8799
 5976TIP3    H239344   0.811   5.942   4.794 -1.9088 -0.9642 -1.4584
 5977TIP3   OH239345   4.092   2.855  10.558 -0.1983  0.4346  0.4971
 5977TIP3    H139346   4.130   2.767  10.561 -1.2512 -0.0835 -0.5505
 5977TIP3    H239347   4.168   2.913  10.551  0.4828 -0.5955 -2.0688
 5978TIP3   OH239348   4.353   1.445  12.418  0.9512 -0.1000  0.1363
 5978TIP3    H139349   4.282   1.476  12.474  1.6156  0.0225  0.9222
 5978TIP3    H239350   4.346   1.498  12.339 -0.5549 -0.8848 -0.3077
 5979TIP3   OH239351   2.083   6.294  13.411 -0.2854 -0.0243 -0.4874
 5979TIP3    H139352   2.041   6.221  13.365 -0.5561 -0.0663 -0.1720
 5979TIP3    H239353   2.108   6.258  13.496 -0.8286  0.3715 -0.1538
 5980TIP3   OH239354   2.662   1.676  13.580 -0.3642 -0.5390 -0.2149
 5980TIP3    H139355   2.681   1.765  13.610 -1.2679 -0.7304  0.9985
 5980TIP3    H239356   2.701   1.672  13.493 -1.1731  1.3699 -0.7339
 5981TIP3   OH239357   5.004   0.150   6.105 -0.3540  0.1279 -0.0338
 5981TIP3    H139358   5.099   0.141   6.107 -0.2881  0.6043 -0.7422
 5981TIP3    H239359   4.982   0.181   6.193  0.2573  0.9546 -0.1580
 5982TIP3   OH239360   0.844   4.562  12.507 -0.3835  1.2389  0.7910
 5982TIP3    H139361   0.755   4.527  12.515 -0.4775  1.6584  1.8841
 5982TIP3    H239362   0.852   4.588  12.416  0.2613 -3.0410 -0.6025
 5983TIP3   OH239363   1.901   0.924   3.174 -0.0553  0.2292 -0.2087
 5983TIP3    H139364   1.992   0.923   3.144 -0.1050  0.7096 -0.3987
 5983TIP3    H239365   1.902   0.880   3.259  0.1584 -0.7927 -0.7346
 5984TIP3   OH239366   0.080   0.056  14.156 -0.4941 -0.3172 -0.1917
 5984TIP3    H139367   0.160   0.010  14.183 -0.7250 -1.3156 -1.0937
 5984TIP3    H239368   0.089   0.063  14.061 -0.9302  0.6406 -0.1651
 5985TIP3   OH239369   0.635   1.394  12.092  0.3755  0.8069  0.7105
 5985TIP3    H139370   0.584   1.322  12.055  2.5005 -0.1246 -0.6074
 5985TIP3    H239371   0.574   1.440  12.149 -3.0383  1.8594 -3.2441
 5986TIP3   OH239372   1.798   0.259  12.394  0.1916  0.4920 -0.2669
 5986TIP3    H139373   1.725   0.248  12.455 -0.5844 -1.8328 -1.4700
 5986TIP3    H239374   1.763   0.315  12.325  0.1642  0.8677  0.0476
 5987TIP3   OH239375   1.884   5.123   3.961  0.5353 -0.2370 -0.3785
 5987TIP3    H139376   1.933   5.052   4.002  0.8244  0.0889 -0.1508
 5987TIP3    H239377   1.939   5.201   3.975 -0.7670  0.4457  1.2619
 5988TIP3   OH239378   0.118   0.899  13.884 -0.6861  1.0450 -0.6875
 5988TIP3    H139379   0.058   0.825  13.872  0.5248  0.1991 -1.7105
 5988TIP3    H239380   0.085   0.967  13.826  0.8058 -0.3632 -3.3496
 5989TIP3   OH239381   5.017   5.504   3.605 -0.1201  0.0312  0.1441
 5989TIP3    H139382   5.006   5.564   3.531  0.5416  0.8200  0.6608
 5989TIP3    H239383   5.024   5.562   3.681 -0.5674 -0.7574  0.7949
 5990TIP3   OH239384   5.422   6.035  15.502 -0.3497  0.6709 -0.0475
 5990TIP3    H139385   5.440   5.978  15.577  3.8786  3.2302  1.2117
 5990TIP3    H239386   5.450   5.983  15.426  0.3613 -0.0829  0.7065
 5991TIP3   OH239387   3.044   1.606  12.575  0.0101  0.2387  0.2504
 5991TIP3    H139388   3.129   1.645  12.554 -0.6989  1.3092 -0.7525
 5991TIP3    H239389   3.060   1.556  12.655  2.3194 -2.1989 -1.5713
 5992TIP3   OH239390   0.763   1.108  13.309  0.1580  0.0073  0.3070
 5992TIP3    H139391   0.732   1.124  13.220 -1.4849 -0.5924  0.7371
 5992TIP3    H239392   0.859   1.107  13.301  0.0620 -2.0185 -1.8286
 5993TIP3   OH239393   4.572   2.038  16.353  0.3787  0.2274  0.2522
 5993TIP3    H139394   4.570   2.051  16.448  1.7177 -0.9718  0.4814
 5993TIP3    H239395   4.487   1.997  16.333  0.1216  0.4173  0.9411
 5994TIP3   OH239396   1.826   4.823  14.050 -0.2164  0.0776  0.2873
 5994TIP3    H139397   1.880   4.895  14.020 -0.7315 -0.4958 -2.1920
 5994TIP3    H239398   1.880   4.745  14.037 -0.5090 -0.2153  0.7712
 5995TIP3   OH239399   4.340   4.635   1.231 -0.4297 -0.0205 -0.5347
 5995TIP3    H139400   4.281   4.709   1.247  0.8794  1.0708 -0.5005
 5995TIP3    H239401   4.334   4.621   1.136 -1.2680 -0.3934 -0.4333
 5996TIP3   OH239402   2.605   6.417   5.135  0.3340  0.1709  0.2194
 5996TIP3    H139403   2.576   6.403   5.225  0.7001 -0.1084  0.2976
 5996TIP3    H239404   2.532   6.463   5.093  1.2774  2.8981  1.3984
 5997TIP3   OH239405   1.690   5.827   6.292  0.5809 -0.2212  0.0033
 5997TIP3    H139406   1.770   5.787   6.257  0.5074 -0.9433  0.6246
 5997TIP3    H239407   1.628   5.825   6.220  0.4821 -1.5320  0.1053
 5998TIP3   OH239408   6.180   1.100  11.867  0.4559  0.8612  0.4244
 5998TIP3    H139409   6.092   1.083  11.902  0.5182  2.0886  1.2591
 5998TIP3    H239410   6.234   1.113  11.945  1.3360  0.3449 -0.0921
 5999TIP3   OH239411   5.259   0.283  16.646  0.0526 -0.2408  0.0192
 5999TIP3    H139412   5.252   0.190  16.669 -0.2840 -0.1604  0.2439
 5999TIP3    H239413   5.332   0.315  16.700  0.3503 -0.4366 -0.2637
 6000TIP3   OH239414   4.338   2.817   0.321 -1.1422  0.2306 -0.1821
 6000TIP3    H139415   4.392   2.847   0.248  0.1111 -0.3730  0.4737
 6000TIP3    H239416   4.326   2.895   0.375 -1.5437  0.5341 -0.7064
 6001TIP3   OH239417   6.030   2.503  13.068 -0.0817  0.1207  0.0980
 6001TIP3    H139418   6.089   2.428  13.073 -1.5274 -1.0800 -0.1875
 6001TIP3    H239419   6.022   2.521  12.974  1.0060  1.2887  0.1993
 6002TIP3   OH239420   6.200   2.703  14.788  0.4687  0.1224  1.0260
 6002TIP3    H139421   6.112   2.665  14.793  0.2891  0.3898  0.0910
 6002TIP3    H239422   6.259   2.633  14.816  0.2404 -1.1929 -1.5557
 6003TIP3   OH239423   1.235   2.537  15.246 -0.2512  0.2793 -0.6360
 6003TIP3    H139424   1.228   2.443  15.263 -0.7054  0.3032 -0.6971
 6003TIP3    H239425   1.161   2.558  15.189 -0.6961  0.8469  0.1224
 6004TIP3   OH239426   1.833   2.416   1.770 -0.1891 -0.4489 -0.0557
 6004TIP3    H139427   1.871   2.476   1.834 -0.8860 -1.3300  1.2195
 6004TIP3    H239428   1.894   2.418   1.696  0.9958  0.0607  0.9061
 6005TIP3   OH239429   0.678   2.519  12.372  0.0308 -0.2699 -0.3405
 6005TIP3    H139430   0.618   2.514  12.297  0.3949  0.4250 -0.6867
 6005TIP3    H239431   0.710   2.609  12.371  1.6344 -0.8113 -0.6009
 6006TIP3   OH239432   5.345   4.679   4.578  0.1655 -0.4600  0.6710
 6006TIP3    H139433   5.390   4.673   4.493  2.4812  2.5199  1.5313
 6006TIP3    H239434   5.358   4.592   4.617 -0.5757 -1.7702 -1.7634
 6007TIP3   OH239435   2.078   3.149  16.499 -0.0888  0.3013  0.2696
 6007TIP3    H139436   2.153   3.201  16.527 -0.5724  0.3147  1.5778
 6007TIP3    H239437   2.067   3.082  16.566  0.7725 -1.8143 -1.5960
 6008TIP3   OH239438   2.869   2.201  14.546  0.0219 -0.0491  0.1733
 6008TIP3    H139439   2.919   2.250  14.481  0.9298  0.2414  1.0517
 6008TIP3    H239440   2.915   2.117  14.552  0.9058  0.4996  1.5357
 6009TIP3   OH239441   5.237   3.524  17.092  0.4992  0.3404 -0.0052
 6009TIP3    H139442   5.226   3.619  17.080 -1.0119  0.3858  1.2855
 6009TIP3    H239443   5.159   3.498  17.141  0.3272 -1.7895 -1.3062
 6010TIP3   OH239444   5.707   2.387   2.292 -0.3401 -0.3947  0.2139
 6010TIP3    H139445   5.799   2.411   2.280  0.2975 -1.5029  2.4473
 6010TIP3    H239446   5.709   2.293   2.309 -2.1731 -0.9773 -2.1727
 6011TIP3   OH239447   4.508   1.751   1.887 -0.4372  0.3428  0.1766
 6011TIP3    H139448   4.511   1.666   1.843 -1.7144  0.5885 -0.4342
 6011TIP3    H239449   4.543   1.734   1.974  0.9068 -0.4448 -0.4788
 6012TIP3   OH239450   3.521   5.712  14.223 -0.0012 -0.1232 -0.9216
 6012TIP3    H139451   3.607   5.679  14.198  1.3343  0.2590  2.7293
 6012TIP3    H239452   3.498   5.663  14.302 -1.9958  1.5646 -0.3584
 6013TIP3   OH239453   0.329   0.922  15.906  1.0043 -0.1038  0.5736
 6013TIP3    H139454   0.344   0.867  15.984 -0.2794 -0.7569  0.3743
 6013TIP3    H239455   0.379   0.878  15.837  2.9617  1.0076  1.1864
 6014TIP3   OH239456   1.449   1.261   4.533 -0.2095 -0.0880  0.7442
 6014TIP3    H139457   1.489   1.224   4.454 -0.2444  3.3598 -1.0902
 6014TIP3    H239458   1.523   1.292   4.585 -0.2573 -0.7537  1.2203
 6015TIP3   OH239459   4.578   3.324   5.886 -0.2041 -0.1091 -0.1865
 6015TIP3    H139460   4.534   3.278   5.814  0.5123 -3.0749  1.1174
 6015TIP3    H239461   4.509   3.344   5.948 -0.3557 -0.9148 -0.0758
 6016TIP3   OH239462   3.222   4.970  16.975 -0.1792 -0.3065  0.2856
 6016TIP3    H139463   3.179   4.899  17.022 -0.7811  0.2414  0.5823
 6016TIP3    H239464   3.315   4.949  16.979 -0.4050 -1.4811 -0.3160
 6017TIP3   OH239465   2.929   0.900  13.342  0.1333  0.3095  0.2215
 6017TIP3    H139466   3.010   0.922  13.387 -1.2369  1.9016  2.0945
 6017TIP3    H239467   2.935   0.946  13.258  1.6574 -0.6303 -0.2231
 6018TIP3   OH239468   0.911   3.320  10.649  0.3425  0.4662 -0.1353
 6018TIP3    H139469   1.002   3.290  10.658  0.3593  0.6911  0.5153
 6018TIP3    H239470   0.916   3.397  10.593  0.5807  0.6010  0.0688
 6019TIP3   OH239471   5.001   2.007  14.455  0.3865  0.1763 -0.3806
 6019TIP3    H139472   5.081   2.060  14.453  1.2314 -1.0281  0.3726
 6019TIP3    H239473   5.011   1.946  14.382  1.3849 -1.6345  1.1790
 6020TIP3   OH239474   0.451   1.509   2.456 -0.4998 -0.1201 -0.4155
 6020TIP3    H139475   0.455   1.605   2.456 -1.7873 -0.0180 -1.7096
 6020TIP3    H239476   0.537   1.481   2.427 -0.1152  0.6376 -0.0379
 6021TIP3   OH239477   2.400   2.150  13.507 -0.3350  0.1313 -0.7317
 6021TIP3    H139478   2.409   2.222  13.444 -1.9110  1.9041  0.9102
 6021TIP3    H239479   2.470   2.165  13.570 -2.2481  1.9800  1.1068
 6022TIP3   OH239480   0.452   4.637  12.275 -0.4797 -0.5567  0.0091
 6022TIP3    H139481   0.420   4.550  12.249 -0.0680  0.0024 -2.5813
 6022TIP3    H239482   0.385   4.669  12.336 -2.1610 -1.5331 -1.2167
 6023TIP3   OH239483   3.233   0.276  11.992  0.0385  0.2991  0.0029
 6023TIP3    H139484   3.277   0.293  11.908  0.7873 -0.1167  0.2968
 6023TIP3    H239485   3.148   0.318  11.983 -0.5256 -1.0424 -1.5683
 6024TIP3   OH239486   4.039   3.302   0.877 -0.4440  0.5191 -0.2142
 6024TIP3    H139487   4.011   3.227   0.929  0.2898  0.4638  0.1014
 6024TIP3    H239488   4.127   3.323   0.908 -1.2353  2.5408  0.8515
 6025TIP3   OH239489   1.757   1.369   2.986  0.3908 -0.2829 -0.1339
 6025TIP3    H139490   1.683   1.413   3.028 -2.6295 -3.2248 -1.7863
 6025TIP3    H239491   1.804   1.326   3.058 -0.9245 -0.1963  0.8058
 6026TIP3   OH239492   5.423   5.961  11.951  0.3840 -0.2910  0.5182
 6026TIP3    H139493   5.386   5.895  12.009 -0.1552 -1.1222 -0.7264
 6026TIP3    H239494   5.362   5.965  11.877  0.6851  1.2321  0.3103
 6027TIP3   OH239495   2.544   6.147   4.427  0.8969 -0.3263  0.1134
 6027TIP3    H139496   2.622   6.189   4.462  1.0840 -0.1362 -0.5188
 6027TIP3    H239497   2.485   6.219   4.405  1.1234 -0.3957 -0.7486
 6028TIP3   OH239498   1.338   6.042   4.886 -0.0211 -0.0697 -0.3443
 6028TIP3    H139499   1.389   5.983   4.941 -1.8257 -0.8807  0.5209
 6028TIP3    H239500   1.264   5.989   4.856 -0.9427  1.3677 -0.6898
 6029TIP3   OH239501   3.373   2.064  15.028 -0.1042 -0.0497 -0.3516
 6029TIP3    H139502   3.374   2.032  15.118  0.3155  1.4156  0.1963
 6029TIP3    H239503   3.325   1.997  14.979  0.1178 -1.1248  0.8507
 6030TIP3   OH239504   3.699   4.876   0.059  0.2494  0.1731 -0.2984
 6030TIP3    H139505   3.753   4.877   0.138  0.6598  1.8124 -0.5519
 6030TIP3    H239506   3.761   4.860  -0.013  0.4467  1.9227 -0.5758
 6031TIP3   OH239507   5.999   6.736   5.713 -0.5438 -0.0801 -0.9507
 6031TIP3    H139508   6.049   6.725   5.794  1.7865  0.9180 -2.1350
 6031TIP3    H239509   5.942   6.660   5.710 -0.3663 -0.3850  1.3794
 6032TIP3   OH239510   1.139   5.489  15.024  0.2328 -0.0244  0.1361
 6032TIP3    H139511   1.162   5.561  14.966  0.9290  0.6373  1.2298
 6032TIP3    H239512   1.043   5.491  15.028  0.1822  0.0347 -0.8209
 6033TIP3   OH239513   3.439   6.634  11.506 -0.2413  1.0696 -0.2211
 6033TIP3    H139514   3.481   6.566  11.454 -0.6348  0.3366  0.4048
 6033TIP3    H239515   3.449   6.605  11.597 -0.1189  2.0141  0.0816
 6034TIP3   OH239516   0.334   1.736   1.622  0.2971 -0.3923 -0.2202
 6034TIP3    H139517   0.301   1.680   1.552 -0.2214 -0.6761  0.2423
 6034TIP3    H239518   0.265   1.802   1.633  0.4591 -0.2437 -0.1004
 6035TIP3   OH239519   4.413   6.460   4.637  0.0958  0.3817 -0.6750
 6035TIP3    H139520   4.420   6.474   4.542  1.0470 -0.4130 -0.7337
 6035TIP3    H239521   4.504   6.452   4.667 -0.1342  1.7155  0.4871
 6036TIP3   OH239522   1.703   5.745   2.891 -0.7222  0.0940 -0.0837
 6036TIP3    H139523   1.740   5.664   2.856 -1.6319 -0.4583  0.1801
 6036TIP3    H239524   1.614   5.720   2.918 -0.6644  0.9353  0.9333
 6037TIP3   OH239525   3.315   2.946   2.292  0.2757  0.2329  0.5014
 6037TIP3    H139526   3.389   2.952   2.352  0.6303 -2.2561  0.4085
 6037TIP3    H239527   3.350   2.975   2.208  0.5300  1.1236  0.9066
 6038TIP3   OH239528   0.656   3.397  14.431 -0.5119 -0.7853 -0.0175
 6038TIP3    H139529   0.654   3.355  14.516 -1.0572  0.1604  0.4522
 6038TIP3    H239530   0.570   3.380  14.393 -1.2908  1.0496  0.7823
 6039TIP3   OH239531   5.578   6.092  17.054  0.0319 -0.0980 -0.3603
 6039TIP3    H139532   5.563   6.151  16.981 -0.8790  2.2413  1.5930
 6039TIP3    H239533   5.490   6.064  17.082  0.4369 -2.5817 -1.3128
 6040TIP3   OH239534   1.599   5.163   2.935 -0.3767  0.1502  0.1166
 6040TIP3    H139535   1.676   5.139   2.884 -0.7534  0.4977 -0.6274
 6040TIP3    H239536   1.571   5.082   2.977 -1.2422 -0.6092 -1.8251
 6041TIP3   OH239537   4.679   3.966  15.891  0.7434 -0.2388  0.2452
 6041TIP3    H139538   4.688   4.040  15.952  1.2685  0.4006 -0.5820
 6041TIP3    H239539   4.586   3.942  15.897  0.5913  0.4004  0.6356
 6042TIP3   OH239540   2.469   0.308   2.115  0.1471 -1.3711  0.2250
 6042TIP3    H139541   2.459   0.214   2.130 -0.0902 -1.0696  2.2151
 6042TIP3    H239542   2.387   0.335   2.074  0.5589 -2.1421 -1.1903
 6043TIP3   OH239543   2.755   5.630  15.318  0.2292  0.4469  0.2984
 6043TIP3    H139544   2.683   5.582  15.360  0.2290  1.1024  1.0692
 6043TIP3    H239545   2.722   5.719  15.310  0.1767  0.3213 -1.2442
 6044TIP3   OH239546   5.476   2.917  16.944  0.3661 -0.2571  0.0773
 6044TIP3    H139547   5.539   2.888  17.010  0.3343 -0.6354 -0.0596
 6044TIP3    H239548   5.526   2.919  16.862  0.3999  0.1905  0.1062
 6045TIP3   OH239549   4.008   3.564  12.501  0.0337  0.5151  1.1634
 6045TIP3    H139550   4.042   3.548  12.413 -3.6756 -0.7925 -0.2426
 6045TIP3    H239551   4.022   3.657  12.516  2.6939  0.3585  0.2204
 6046TIP3   OH239552   1.838   0.621   4.379  0.3000 -0.1978 -0.2235
 6046TIP3    H139553   1.926   0.610   4.415  0.4393 -0.5087 -0.6501
 6046TIP3    H239554   1.781   0.573   4.439  0.3562  0.3654  0.2975
 6047TIP3   OH239555   5.278   1.996  14.158  0.0901 -0.2491 -0.0102
 6047TIP3    H139556   5.308   1.943  14.085 -1.5383  1.1980 -1.8476
 6047TIP3    H239557   5.275   1.936  14.232  1.9474 -1.7279 -1.0713
 6048TIP3   OH239558   4.169   4.715   4.493  0.0515 -0.4032  0.6035
 6048TIP3    H139559   4.075   4.732   4.487  0.4780  1.9387 -0.8571
 6048TIP3    H239560   4.184   4.642   4.433 -0.6875 -0.0407 -0.0463
 6049TIP3   OH239561   0.049   6.598   1.842 -0.5942  0.2547  0.2622
 6049TIP3    H139562   0.058   6.689   1.812 -1.9377  0.3046 -0.0340
 6049TIP3    H239563   0.106   6.548   1.783 -2.9733  0.3715 -2.3694
 6050TIP3   OH239564   4.597   2.286   6.048 -0.6664  0.1129  0.0487
 6050TIP3    H139565   4.516   2.268   6.002 -0.1798  1.3692 -1.4139
 6050TIP3    H239566   4.610   2.381   6.038  0.7098  0.0305  0.7012
 6051TIP3   OH239567   4.634   5.722   1.163 -0.1789  0.6412 -0.3584
 6051TIP3    H139568   4.716   5.770   1.152  0.4174 -0.1573  0.4791
 6051TIP3    H239569   4.642   5.680   1.249 -0.5067 -1.2759 -1.2163
 6052TIP3   OH239570   3.791   0.426   5.170  0.1017 -0.0956 -0.7781
 6052TIP3    H139571   3.835   0.387   5.246 -0.8772  0.3190  0.0308
 6052TIP3    H239572   3.835   0.388   5.095  1.7451  0.2044 -0.0140
 6053TIP3   OH239573   0.075   0.183  15.066 -0.1052  0.3835  0.2649
 6053TIP3    H139574   0.089   0.106  15.122  0.5261  1.4528  1.6489
 6053TIP3    H239575   0.009   0.234  15.114 -1.3780  0.1838 -1.2109
 6054TIP3   OH239576   6.037   3.409  12.647 -0.0367 -0.0985 -0.3173
 6054TIP3    H139577   6.044   3.496  12.609 -0.5012 -0.7574 -1.9869
 6054TIP3    H239578   5.945   3.403  12.675  0.1564  0.1742  0.3805
 6055TIP3   OH239579   3.703   0.281   6.029 -0.2036  0.3739  1.0820
 6055TIP3    H139580   3.778   0.290   5.971 -0.5571  0.3502  0.6186
 6055TIP3    H239581   3.673   0.191   6.015  0.2420  0.0776  1.9520
 6056TIP3   OH239582   2.982   3.688   1.853 -0.0873  0.4269 -0.5589
 6056TIP3    H139583   2.916   3.622   1.833 -0.6817  0.6399  0.6339
 6056TIP3    H239584   2.966   3.712   1.944  1.7994  0.3014 -0.1494
 6057TIP3   OH239585   5.770   2.458  15.193  0.2765  0.1131 -0.1160
 6057TIP3    H139586   5.804   2.531  15.142  0.3310 -0.1100 -0.4022
 6057TIP3    H239587   5.713   2.499  15.259 -0.3124  0.3662 -0.7632
 6058TIP3   OH239588   1.484   5.846  13.039 -0.8157 -0.5123 -0.0918
 6058TIP3    H139589   1.497   5.759  13.076 -1.1444 -1.0375 -1.1898
 6058TIP3    H239590   1.474   5.903  13.116  0.0716 -1.3162  0.6468
 6059TIP3   OH239591   0.772   5.605   4.318 -0.4828  0.4191 -0.4818
 6059TIP3    H139592   0.754   5.589   4.410 -0.2374  0.0409 -0.4960
 6059TIP3    H239593   0.821   5.527   4.289  1.6936  1.6252 -0.3001
 6060TIP3   OH239594   2.622   0.146   5.541 -0.5030  0.1007  0.0501
 6060TIP3    H139595   2.546   0.142   5.599 -0.3680  4.2820  0.7555
 6060TIP3    H239596   2.694   0.176   5.597  0.6300  0.3377 -1.4644
 6061TIP3   OH239597   1.047   1.148  15.772 -0.5292 -0.1304  0.3208
 6061TIP3    H139598   1.026   1.211  15.703 -1.1072 -0.9370 -0.2586
 6061TIP3    H239599   1.133   1.175  15.804 -1.3928  1.8318  1.1147
 6062TIP3   OH239600   4.737   3.141  16.916 -0.4902  0.0894 -0.2058
 6062TIP3    H139601   4.667   3.204  16.934 -1.3617 -0.3254 -1.8765
 6062TIP3    H239602   4.692   3.066  16.876  0.8881 -0.1662 -1.3704
 6063TIP3   OH239603   6.124   2.486   1.943  0.7639 -0.2986  0.4161
 6063TIP3    H139604   6.185   2.553   1.974  0.1010  0.9457 -0.8555
 6063TIP3    H239605   6.087   2.523   1.863 -3.4738  0.1235  2.3196
 6064TIP3   OH239606   2.320   5.358   3.103  0.4380  0.3108 -0.1875
 6064TIP3    H139607   2.270   5.323   3.177 -0.4591 -1.0026 -1.3634
 6064TIP3    H239608   2.395   5.300   3.095  1.3459  1.3502  0.6018
 6065TIP3   OH239609   4.688   4.833   0.641 -0.7209 -0.1532 -0.6826
 6065TIP3    H139610   4.651   4.751   0.675  2.5398 -1.6560 -0.4255
 6065TIP3    H239611   4.658   4.836   0.550 -0.7232 -1.7686 -0.7684
 6066TIP3   OH239612   5.677   1.928  11.908  0.5144  0.8275 -0.1649
 6066TIP3    H139613   5.660   1.834  11.901 -1.6021  1.0232  1.3112
 6066TIP3    H239614   5.604   1.969  11.862  0.5834  1.7459  0.5230
 6067TIP3   OH239615   1.969   1.095  11.888  0.5244  0.4730  0.0044
 6067TIP3    H139616   1.892   1.063  11.842  0.3261 -0.1381  0.7475
 6067TIP3    H239617   1.947   1.185  11.913  0.7924  0.9623 -1.4253
 6068TIP3   OH239618   6.031   3.839  13.348 -0.2935  1.4683 -0.3601
 6068TIP3    H139619   6.062   3.891  13.275  0.6069 -1.4911 -2.2574
 6068TIP3    H239620   5.952   3.796  13.316  0.3088 -0.1561  0.2403
 6069TIP3   OH239621   1.353   6.015   5.564 -0.2035  0.8668 -0.1900
 6069TIP3    H139622   1.403   5.935   5.574 -0.6093  0.6521  0.1301
 6069TIP3    H239623   1.329   6.040   5.653 -1.3520  0.5299 -0.3974
 6070TIP3   OH239624   1.126   0.420  14.812  0.4043 -0.3795  0.6547
 6070TIP3    H139625   1.117   0.361  14.738  0.5085  1.3045 -0.7720
 6070TIP3    H239626   1.036   0.444  14.835  0.4167  0.1640  0.1546
 6071TIP3   OH239627   4.643   2.753   3.928 -0.5756  0.1591  0.1501
 6071TIP3    H139628   4.644   2.743   3.833 -0.9933 -1.8201  0.3124
 6071TIP3    H239629   4.731   2.786   3.949  0.3767 -1.6329 -0.7510
 6072TIP3   OH239630   1.525   1.205  14.639  0.0648 -0.0495  0.2697
 6072TIP3    H139631   1.611   1.248  14.645  1.3174 -2.0178 -1.8418
 6072TIP3    H239632   1.526   1.160  14.555 -1.8287 -2.6498  1.4757
 6073TIP3   OH239633   1.283   3.926  10.412 -0.2808  0.3961  0.1495
 6073TIP3    H139634   1.362   3.970  10.381  0.3327 -1.3047 -0.7899
 6073TIP3    H239635   1.286   3.839  10.372 -1.8171 -0.2696  1.3780
 6074TIP3   OH239636   5.991   6.113  13.290  0.6180  0.4282  1.2487
 6074TIP3    H139637   5.939   6.189  13.265 -0.1733 -0.6772 -0.6667
 6074TIP3    H239638   6.050   6.099  13.216  0.1918 -1.2954  1.2116
 6075TIP3   OH239639   0.387   3.769   0.949 -0.3803 -0.0546 -0.1791
 6075TIP3    H139640   0.447   3.833   0.911 -1.6490  1.0279 -0.4186
 6075TIP3    H239641   0.398   3.780   1.044 -0.7179  0.6348 -0.2191
 6076TIP3   OH239642   5.636   2.395  16.173 -0.0594 -0.3085  0.2760
 6076TIP3    H139643   5.659   2.435  16.089  0.0121  2.5235  1.5485
 6076TIP3    H239644   5.719   2.385  16.219 -0.1040 -1.8140  0.0671
 6077TIP3   OH239645   6.245   6.184  17.110  0.1693 -0.0858 -0.5140
 6077TIP3    H139646   6.157   6.187  17.149  0.3549  0.8650 -0.1332
 6077TIP3    H239647   6.304   6.199  17.184  0.5884  0.5280 -0.9683
 6078TIP3   OH239648   2.906   1.727  15.117  0.1938  0.3713 -0.0804
 6078TIP3    H139649   2.904   1.707  15.023 -1.3555  0.7953 -0.1702
 6078TIP3    H239650   2.987   1.686  15.148  0.4190 -0.3311 -1.4755
 6079TIP3   OH239651   5.520   3.288  11.736 -0.6672 -0.2409  0.0243
 6079TIP3    H139652   5.533   3.339  11.817  0.0169 -0.3412 -0.0192
 6079TIP3    H239653   5.426   3.297  11.718 -0.9158 -0.5856  1.0763
 6080TIP3   OH239654   6.572   0.210  12.346  0.0621  0.3444  0.4728
 6080TIP3    H139655   6.607   0.290  12.307 -0.8955  1.3338  1.5690
 6080TIP3    H239656   6.480   0.209  12.320  0.0976 -0.4703  0.3619
 6081TIP3   OH239657   1.585   2.542  15.975  0.3983  0.2612 -1.1347
 6081TIP3    H139658   1.517   2.539  15.907 -0.1346 -1.7189 -0.5963
 6081TIP3    H239659   1.554   2.480  16.042  2.5010 -0.3408 -0.6574
 6082TIP3   OH239660   4.095   4.235  14.319 -0.3789  0.1475 -0.3720
 6082TIP3    H139661   4.187   4.238  14.345  0.1274  0.4935 -2.0810
 6082TIP3    H239662   4.065   4.326  14.324 -0.9937 -0.1087  1.2840
 6083TIP3   OH239663   3.279   1.893   4.370  0.0954  0.3721 -0.3805
 6083TIP3    H139664   3.192   1.855   4.371 -0.1887  0.9170 -1.8661
 6083TIP3    H239665   3.302   1.898   4.277  1.7444  0.1587 -0.0133
 6084TIP3   OH239666   3.873   4.759  15.647 -0.4632  0.7600 -0.2035
 6084TIP3    H139667   3.793   4.809  15.665 -1.3462 -0.3713 -0.8648
 6084TIP3    H239668   3.876   4.752  15.552 -0.8055 -1.1151 -0.1043
 6085TIP3   OH239669   1.102   5.279  11.375 -0.9639 -0.4923  0.2892
 6085TIP3    H139670   1.135   5.368  11.385 -2.4962 -0.0916  3.0360
 6085TIP3    H239671   1.010   5.285  11.399 -1.7327 -2.4581 -1.8026
 6086TIP3   OH239672   3.679   4.036  16.965  0.1779  0.0135 -0.5130
 6086TIP3    H139673   3.763   4.077  16.982  0.9070 -1.0831 -1.3025
 6086TIP3    H239674   3.700   3.945  16.944 -1.1978 -0.2810 -0.7626
 6087TIP3   OH239675   4.916   0.786   5.895  0.0296  0.3989  0.2695
 6087TIP3    H139676   4.936   0.854   5.958 -1.2451  0.3440  0.7527
 6087TIP3    H239677   4.882   0.713   5.947  1.3772 -0.6374 -0.2335
 6088TIP3   OH239678   0.844   5.541  12.448 -0.0441 -0.2878 -0.0965
 6088TIP3    H139679   0.775   5.564  12.510  0.2237  0.8686 -0.2021
 6088TIP3    H239680   0.830   5.600  12.374  0.5807 -0.5866 -0.4635
 6089TIP3   OH239681   6.188   0.712   2.726  0.3388 -0.2034  0.0892
 6089TIP3    H139682   6.129   0.778   2.691  0.4853  0.5682  1.2484
 6089TIP3    H239683   6.247   0.692   2.654  1.1526  1.9417  0.0901
 6090TIP3   OH239684   5.267   3.989   4.128  0.1679 -0.0175  0.5615
 6090TIP3    H139685   5.213   3.914   4.102  0.9993 -0.9221  1.3625
 6090TIP3    H239686   5.205   4.062   4.136 -0.4958 -0.3029 -1.3658
 6091TIP3   OH239687   5.197   2.964  11.566  0.0744  0.1140  0.1467
 6091TIP3    H139688   5.242   2.988  11.485  1.4237 -1.0679  0.5069
 6091TIP3    H239689   5.166   2.874  11.551  2.0755 -0.9125  1.5578
 6092TIP3   OH239690   0.386   5.337   2.153  0.3876  0.3211 -0.4024
 6092TIP3    H139691   0.312   5.344   2.093  1.3665  0.5603 -1.6340
 6092TIP3    H239692   0.407   5.427   2.177  0.0559  0.2319  0.2404
 6093TIP3   OH239693   2.444   5.674  16.515  0.0560  0.3203 -0.1839
 6093TIP3    H139694   2.537   5.676  16.492 -0.0258 -1.1030 -0.8089
 6093TIP3    H239695   2.403   5.626  16.442 -1.1549  0.8349  0.1304
 6094TIP3   OH239696   0.818   5.858   1.522  0.2564  0.1954  0.1130
 6094TIP3    H139697   0.775   5.871   1.437  1.5997 -0.0333 -0.6320
 6094TIP3    H239698   0.884   5.792   1.505  0.9962  0.6335  1.1911
 6095TIP3   OH239699   4.392   1.915   2.918 -0.9439  0.3964  0.5733
 6095TIP3    H139700   4.404   1.999   2.961  1.2989  0.8948 -0.8474
 6095TIP3    H239701   4.476   1.869   2.932 -0.7130 -0.0304 -1.8553
 6096TIP3   OH239702   2.607   0.408  16.385 -0.2962  0.0378  0.0886
 6096TIP3    H139703   2.636   0.455  16.307 -0.7535 -1.6778 -1.1766
 6096TIP3    H239704   2.512   0.402  16.375 -0.5003  0.7715  1.3744
 6097TIP3   OH239705   1.889   0.217  14.749 -0.0606 -0.7416  0.1130
 6097TIP3    H139706   1.984   0.206  14.743  0.0164  0.2869 -0.9285
 6097TIP3    H239707   1.876   0.285  14.815 -0.0735 -0.8946  0.2676
 6098TIP3   OH239708   5.287   3.683   2.828 -0.4469 -0.1666 -0.3729
 6098TIP3    H139709   5.280   3.729   2.911  1.8186  1.3508 -0.9348
 6098TIP3    H239710   5.214   3.716   2.775  0.1781  1.5748 -0.1824
 6099TIP3   OH239711   4.435   4.757  15.841  0.2721  0.4650  0.2262
 6099TIP3    H139712   4.351   4.799  15.862 -0.2160  0.5877 -1.7863
 6099TIP3    H239713   4.426   4.668  15.875 -0.9444  0.2751 -0.5174
 6100TIP3   OH239714   0.603   6.651  10.732 -0.3816 -0.1614  0.1326
 6100TIP3    H139715   0.664   6.596  10.683  0.2427  0.8599 -0.2593
 6100TIP3    H239716   0.573   6.717  10.670  0.0598  0.8669  0.9695
 6101TIP3   OH239717   0.405   1.708  13.778  0.1481  0.4380 -0.9431
 6101TIP3    H139718   0.362   1.639  13.828 -0.6799  0.7737 -1.1640
 6101TIP3    H239719   0.498   1.698  13.797  0.0625 -0.8595 -1.1334
 6102TIP3   OH239720   0.049   5.039   2.940 -0.0598 -0.0202 -0.4743
 6102TIP3    H139721   0.013   4.953   2.962 -0.2868  0.1687 -0.1129
 6102TIP3    H239722  -0.011   5.073   2.873 -0.0313 -0.0949 -0.5385
 6103TIP3   OH239723   4.023   0.832   5.267 -0.0132 -0.1318  0.0796
 6103TIP3    H139724   4.062   0.920   5.275 -1.0778  0.2250  2.4488
 6103TIP3    H239725   3.941   0.846   5.220  0.6100 -0.1561 -1.0334
 6104TIP3   OH239726   1.223   0.007  13.700  0.4985  0.1000 -0.5647
 6104TIP3    H139727   1.262   0.091  13.676 -0.9994  1.1543  0.5042
 6104TIP3    H239728   1.274  -0.057  13.652  0.5293  1.7458 -2.9094
 6105TIP3   OH239729   0.549   2.831  14.097 -0.0352  0.3673 -0.4730
 6105TIP3    H139730   0.540   2.889  14.021 -1.3230  1.5799  0.5629
 6105TIP3    H239731   0.477   2.768  14.086 -0.2491  0.5701 -0.2470
 6106TIP3   OH239732   4.652   2.675  16.095  0.5849 -0.0251  0.3542
 6106TIP3    H139733   4.647   2.613  16.168  0.6992 -1.7964 -1.0703
 6106TIP3    H239734   4.740   2.712  16.101  0.6681 -0.3069  0.9973
 6107TIP3   OH239735   5.977   0.986   0.318  0.1195 -0.2941  0.8008
 6107TIP3    H139736   5.983   1.080   0.336  0.0508 -0.1551  0.1333
 6107TIP3    H239737   6.044   0.970   0.252 -1.2578 -0.2899 -0.6731
 6108TIP3   OH239738   2.063   2.440  11.442 -0.2486  0.0538  0.2382
 6108TIP3    H139739   2.058   2.417  11.535 -0.2666 -0.0629  0.2082
 6108TIP3    H239740   2.108   2.524  11.441  1.1311 -0.6534  0.2541
 6109TIP3   OH239741   6.200   2.648  16.674 -0.1278  0.3018 -0.3115
 6109TIP3    H139742   6.285   2.605  16.666 -0.6096 -0.4431 -1.8412
 6109TIP3    H239743   6.138   2.583  16.642 -1.6437 -0.1796  3.0965
 6110TIP3   OH239744   5.970   3.616   1.939 -0.2979  1.0172 -0.3771
 6110TIP3    H139745   6.040   3.578   1.993 -2.0382 -0.3134  1.0403
 6110TIP3    H239746   5.971   3.709   1.962 -0.3182  0.6568  1.2069
 6111TIP3   OH239747   5.047   2.370   4.967 -0.1687  0.4114 -0.0975
 6111TIP3    H139748   5.016   2.380   4.877  0.1962 -0.4747 -0.3296
 6111TIP3    H239749   4.974   2.328   5.013  0.3163 -0.8166 -0.4227
 6112TIP3   OH239750   5.985   1.917   4.345 -0.0440  0.5522  0.0404
 6112TIP3    H139751   5.899   1.911   4.302  0.5799 -0.8481 -1.1006
 6112TIP3    H239752   5.997   1.831   4.385  0.4966  1.0121  0.8942
 6113TIP3   OH239753   6.199   1.159   5.570  0.3520 -0.3088  0.2002
 6113TIP3    H139754   6.268   1.101   5.538  0.5330  0.3107 -0.5678
 6113TIP3    H239755   6.129   1.100   5.599  1.3444 -0.9571  1.3710
 6114TIP3   OH239756   1.650   0.302   6.119 -0.5766  0.2982  0.1288
 6114TIP3    H139757   1.652   0.397   6.124 -2.4616  0.4502 -1.0098
 6114TIP3    H239758   1.739   0.275   6.140 -0.3477  2.2063  1.8767
 6115TIP3   OH239759   5.361   1.357  14.774  0.0545 -0.5386  0.2498
 6115TIP3    H139760   5.363   1.368  14.869  0.9739 -1.4472  0.3539
 6115TIP3    H239761   5.411   1.431  14.740  1.1070 -1.0819  0.5819
 6116TIP3   OH239762   3.036   4.967  11.013  0.5561  0.1808  0.0144
 6116TIP3    H139763   2.984   5.015  11.078 -0.5838 -0.4372 -0.4062
 6116TIP3    H239764   3.037   5.024  10.937 -0.6500 -0.3534 -0.4251
 6117TIP3   OH239765   1.981   2.550  15.174 -0.3407  0.4290  0.7370
 6117TIP3    H139766   1.998   2.628  15.121  1.7560 -1.6133 -1.9177
 6117TIP3    H239767   1.888   2.532  15.161 -0.0137  0.2895 -2.0755
 6118TIP3   OH239768   0.896   2.677   3.633  0.2329 -0.0740 -0.6672
 6118TIP3    H139769   0.850   2.717   3.559  1.0128  1.1278 -0.5243
 6118TIP3    H239770   0.858   2.719   3.710  0.5754 -0.1099 -0.4788
 6119TIP3   OH239771   1.519   6.383   2.023  0.3780 -0.7342  0.7286
 6119TIP3    H139772   1.464   6.324   2.076 -0.1569  0.4075  1.4905
 6119TIP3    H239773   1.596   6.398   2.077  0.0004  0.1381  1.0436
 6120TIP3   OH239774   3.354   3.396   0.505 -0.0461 -0.8167 -0.2361
 6120TIP3    H139775   3.444   3.377   0.477  0.1665 -1.3079  0.7385
 6120TIP3    H239776   3.362   3.423   0.596 -0.8805 -0.7903 -0.1636
 6121TIP3   OH239777   5.617   2.311  13.279 -0.1683  0.1271  0.4716
 6121TIP3    H139778   5.668   2.331  13.200  0.2674 -0.0148  0.7155
 6121TIP3    H239779   5.634   2.384  13.338  0.0592 -0.1026  0.6972
 6122TIP3   OH239780   3.297   0.743  14.129  0.6318 -0.5543 -0.0590
 6122TIP3    H139781   3.316   0.836  14.145 -1.1389 -0.0062 -0.8900
 6122TIP3    H239782   3.381   0.706  14.100  1.1388  1.0326 -0.7265
 6123TIP3   OH239783   4.878   6.449   3.694 -0.4769  0.3025 -0.7999
 6123TIP3    H139784   4.907   6.534   3.728  0.6535 -0.2856 -0.2747
 6123TIP3    H239785   4.867   6.464   3.600 -0.9313  1.1988 -0.6183
 6124TIP3   OH239786   2.140   4.667  10.694  0.2223  0.1722 -0.2990
 6124TIP3    H139787   2.234   4.670  10.711  0.0680  0.3893  0.5527
 6124TIP3    H239788   2.111   4.758  10.698 -0.2456 -0.0042  0.8349
 6125TIP3   OH239789   3.065   3.542   0.384 -0.0006  0.4872 -0.1130
 6125TIP3    H139790   3.013   3.620   0.407  0.4591 -0.0151  2.9479
 6125TIP3    H239791   3.151   3.558   0.422  0.5505 -0.8871 -0.7266
 6126TIP3   OH239792   5.713   6.277   0.826  0.2722 -0.1813  0.0911
 6126TIP3    H139793   5.694   6.232   0.908  1.4408  0.9251  1.0127
 6126TIP3    H239794   5.661   6.231   0.761  0.8428 -2.4096  1.0896
 6127TIP3   OH239795   3.661   1.656   4.318  0.0157 -0.4370  0.2531
 6127TIP3    H139796   3.699   1.655   4.230 -0.0279  0.1065  0.2256
 6127TIP3    H239797   3.720   1.711   4.370 -0.3266 -0.1964  0.3938
 6128TIP3   OH239798   4.235   5.737  14.145 -0.6247  0.2863 -0.1048
 6128TIP3    H139799   4.314   5.741  14.199 -0.1977  0.9263 -0.7551
 6128TIP3    H239800   4.265   5.760  14.057 -0.9226 -2.5190 -1.0534
 6129TIP3   OH239801   5.342   5.198  12.352 -0.1696 -0.1143 -0.3222
 6129TIP3    H139802   5.395   5.137  12.404  0.8657  2.2436  1.5928
 6129TIP3    H239803   5.364   5.177  12.261  2.2432 -0.8415  0.3433
 6130TIP3   OH239804   3.797   2.140   5.108  0.4812  0.0787 -0.5777
 6130TIP3    H139805   3.735   2.190   5.163  1.6470 -1.0725  1.9651
 6130TIP3    H239806   3.766   2.153   5.019 -1.8393  1.7181  0.3657
 6131TIP3   OH239807   1.716   5.057   6.771  0.3269  0.2994 -0.1394
 6131TIP3    H139808   1.797   5.093   6.809  0.2215  2.2010 -1.6071
 6131TIP3    H239809   1.676   5.131   6.725 -2.3080 -0.5720  0.5689
 6132TIP3   OH239810   6.082   4.730  14.728  0.2094 -0.4205 -1.1689
 6132TIP3    H139811   6.141   4.801  14.700  0.0057 -0.2965 -1.2803
 6132TIP3    H239812   6.141   4.655  14.742  0.4137 -0.2565 -1.1393
 6133TIP3   OH239813   4.830   1.179   5.016  0.0381  0.2525 -0.0992
 6133TIP3    H139814   4.889   1.251   4.992  1.5942 -1.0991 -0.4577
 6133TIP3    H239815   4.855   1.107   4.958  0.1427 -1.3503  1.8248
 6134TIP3   OH239816   5.148   2.513   5.739  0.4171 -0.3499 -0.1052
 6134TIP3    H139817   5.111   2.437   5.695  0.1668 -0.3494  0.1021
 6134TIP3    H239818   5.129   2.587   5.681 -2.0551  0.0562  1.0740
 6135TIP3   OH239819   2.951   2.412   1.345  0.3510 -0.2401  0.1036
 6135TIP3    H139820   2.955   2.418   1.249  1.8767  2.4779  0.2581
 6135TIP3    H239821   2.862   2.439   1.367  0.2529 -0.0684 -0.4925
 6136TIP3   OH239822   5.972   1.642  15.450 -0.0643  0.1515  0.1958
 6136TIP3    H139823   5.896   1.586  15.438  0.4388 -0.6102  0.4720
 6136TIP3    H239824   6.047   1.584  15.438  0.4672  0.6383  1.0548
 6137TIP3   OH239825   4.470   1.788  12.857  0.1097 -0.4648  0.0696
 6137TIP3    H139826   4.564   1.804  12.871 -0.1385 -0.2877  1.6916
 6137TIP3    H239827   4.467   1.737  12.776  1.6624 -0.9654  0.2868
 6138TIP3   OH239828   4.511   3.173   5.036 -0.4852 -0.2075 -0.0649
 6138TIP3    H139829   4.529   3.107   5.103 -0.5856 -1.7993 -1.5079
 6138TIP3    H239830   4.583   3.235   5.043 -0.5177 -0.3166  1.5221
 6139TIP3   OH239831   6.669   5.694  15.233  0.2090  0.0134  0.1232
 6139TIP3    H139832   6.725   5.618  15.220 -0.1199 -0.4336  1.2333
 6139TIP3    H239833   6.588   5.673  15.185  0.3334 -0.0789 -0.0460
 6140TIP3   OH239834   0.067   0.926   1.253  0.4672 -0.2235 -0.0829
 6140TIP3    H139835   0.117   0.884   1.182 -2.7116 -2.2064 -1.3662
 6140TIP3    H239836  -0.019   0.943   1.215 -0.3832  1.6795  2.4190
 6141TIP3   OH239837   1.221   1.179   2.079 -0.0348 -0.3346  0.3574
 6141TIP3    H139838   1.137   1.222   2.092 -0.3108 -0.8456  0.2805
 6141TIP3    H239839   1.273   1.204   2.156 -0.5027 -0.6102  0.7650
 6142TIP3   OH239840   3.043   4.344  16.201  0.0042  0.1018 -0.5152
 6142TIP3    H139841   2.959   4.372  16.165 -0.1459 -0.1186 -0.3330
 6142TIP3    H239842   3.055   4.400  16.279  1.4865  2.3567 -2.2258
 6143TIP3   OH239843   2.353   0.064   5.745 -0.2504  0.2097 -0.3941
 6143TIP3    H139844   2.262   0.036   5.750 -0.3523  0.7784  2.0912
 6143TIP3    H239845   2.354   0.151   5.785  1.5509 -0.3221  0.8770
 6144TIP3   OH239846   5.861   2.700  16.119  0.6831 -0.7375  0.4860
 6144TIP3    H139847   5.951   2.668  16.122  1.4469  1.2710  0.4500
 6144TIP3    H239848   5.827   2.670  16.035  1.9947  0.1280 -0.3783
 6145TIP3   OH239849   3.099   0.929   1.702  0.2650  0.4892 -0.5114
 6145TIP3    H139850   3.156   0.909   1.628 -1.2131 -2.2820 -1.0546
 6145TIP3    H239851   3.011   0.934   1.664 -0.2643  1.3511  0.7407
 6146TIP3   OH239852   1.053   4.051  10.515 -0.2942 -0.1572  0.1544
 6146TIP3    H139853   1.132   4.000  10.498 -0.9059 -0.7714 -1.0125
 6146TIP3    H239854   1.007   4.051  10.431 -2.3810 -1.3093  1.2343
 6147TIP3   OH239855   3.565   3.031   5.178  0.4489 -0.3869  0.3674
 6147TIP3    H139856   3.511   3.089   5.125 -1.5151 -0.7899  1.8331
 6147TIP3    H239857   3.564   2.947   5.132 -1.1862 -0.7163  0.9520
 6148TIP3   OH239858   6.413   2.530   1.295  0.3943  0.5783  0.6717
 6148TIP3    H139859   6.489   2.475   1.277  0.9147  0.6597  2.4297
 6148TIP3    H239860   6.338   2.471   1.287  0.8303 -0.0383  1.0507
 6149TIP3   OH239861   6.301   5.589   1.016 -0.4049  0.0572 -0.1749
 6149TIP3    H139862   6.361   5.522   0.984 -2.0508 -0.7443 -1.7295
 6149TIP3    H239863   6.335   5.612   1.103  0.3369 -2.6443  0.3303
 6150TIP3   OH239864   5.476   1.614   3.709  0.4259 -0.4511 -0.5066
 6150TIP3    H139865   5.486   1.672   3.633  0.3967  0.2131 -0.0048
 6150TIP3    H239866   5.506   1.529   3.677 -0.0210 -0.2936 -1.4072
 6151TIP3   OH239867   1.176   5.048   0.148  0.5772  0.1260  0.1346
 6151TIP3    H139868   1.155   5.081   0.235  0.3989  1.4753 -0.4071
 6151TIP3    H239869   1.125   4.967   0.141  0.0657  0.3539  1.0283
 6152TIP3   OH239870   6.308   5.420  12.824  0.4361  0.1200 -0.4120
 6152TIP3    H139871   6.278   5.489  12.884  0.7737  1.1486 -1.3891
 6152TIP3    H239872   6.373   5.371  12.875 -0.9573 -0.5072  0.8397
 6153TIP3   OH239873   6.300   1.892  11.637 -0.0465  0.0352  0.3943
 6153TIP3    H139874   6.326   1.943  11.560 -0.1400  0.3838  0.5919
 6153TIP3    H239875   6.374   1.897  11.696  0.0802 -0.3502  0.2727
 6154TIP3   OH239876   3.949   0.818   4.421  0.3413  0.4472 -0.3167
 6154TIP3    H139877   3.888   0.802   4.493  1.5557  0.9409  0.8589
 6154TIP3    H239878   4.028   0.770   4.445  1.0683  1.3201 -0.8940
 6155TIP3   OH239879   2.294   1.573  11.871 -0.3216  0.6298 -0.1342
 6155TIP3    H139880   2.274   1.496  11.924 -1.4283 -0.6243 -2.2123
 6155TIP3    H239881   2.281   1.648  11.929 -2.1684 -0.6297  1.1684
 6156TIP3   OH239882   0.567   5.863  14.048  0.2952 -0.0560 -0.3257
 6156TIP3    H139883   0.514   5.818  14.113  0.8176  0.2470  0.3251
 6156TIP3    H239884   0.579   5.951  14.083 -0.0320  0.3503 -1.1923
 6157TIP3   OH239885   1.616   5.084  16.513  0.1833  0.0978  0.0284
 6157TIP3    H139886   1.540   5.033  16.487  1.8409 -2.1498 -0.7570
 6157TIP3    H239887   1.593   5.121  16.598 -1.7859 -0.4229 -0.2419
 6158TIP3   OH239888   3.523   4.188   3.078 -0.1253  0.3057  0.1014
 6158TIP3    H139889   3.434   4.155   3.091 -0.6137  2.0187  1.4826
 6158TIP3    H239890   3.525   4.214   2.985 -0.8923 -0.2085 -0.0693
 6159TIP3   OH239891   2.199   5.217  16.833 -0.1674  0.0375  0.3057
 6159TIP3    H139892   2.113   5.256  16.819 -0.0592  0.1583 -0.0126
 6159TIP3    H239893   2.249   5.237  16.754 -1.1276 -3.4789 -1.4053
 6160TIP3   OH239894   0.074   3.128  11.667  0.2372 -0.8091 -0.1479
 6160TIP3    H139895   0.080   3.048  11.614  0.6190 -0.3894 -0.7589
 6160TIP3    H239896  -0.002   3.174  11.633 -0.3968 -1.2375  0.6734
 6161TIP3   OH239897   5.913   3.947   0.945  0.4580  0.4791  0.0886
 6161TIP3    H139898   5.822   3.976   0.944  0.3805  0.2253 -0.1250
 6161TIP3    H239899   5.931   3.920   0.855  0.6378  0.1956  0.2094
 6162TIP3   OH239900   1.328   0.569  16.845  0.5478  0.3425 -0.0372
 6162TIP3    H139901   1.255   0.514  16.818  0.0593  1.2135 -0.5251
 6162TIP3    H239902   1.290   0.633  16.905  0.9621  0.6286 -0.0705
 6163TIP3   OH239903   2.237   4.947  11.885  0.1089 -0.0276  0.2694
 6163TIP3    H139904   2.201   4.882  11.825  0.6053 -0.1070  0.0485
 6163TIP3    H239905   2.325   4.964  11.851  0.4456 -0.1748  1.0553
 6164TIP3   OH239906   5.534   0.986   6.157  0.0115  0.0614 -0.1811
 6164TIP3    H139907   5.524   0.969   6.063  1.5326 -0.4118 -0.2916
 6164TIP3    H239908   5.589   0.914   6.188  1.5248  1.4893  0.5815
 6165TIP3   OH239909   1.739   2.452   3.834  0.6004 -0.2275 -0.2806
 6165TIP3    H139910   1.683   2.375   3.838  0.8619 -0.3714  1.1560
 6165TIP3    H239911   1.761   2.470   3.925  0.5779  1.5271 -0.5906
 6166TIP3   OH239912   5.687   5.381   2.144 -0.9881 -0.3464  0.6291
 6166TIP3    H139913   5.758   5.331   2.102 -0.5776  0.7345  0.0043
 6166TIP3    H239914   5.627   5.400   2.072 -2.4541 -2.1037  1.3241
 6167TIP3   OH239915   6.698   1.033  15.834 -0.2842  0.3348  0.6108
 6167TIP3    H139916   6.764   1.005  15.770 -1.3708  1.2583 -0.9660
 6167TIP3    H239917   6.662   0.951  15.868 -2.0438 -0.3332 -2.4848
 6168TIP3   OH239918   5.139   0.872   3.560 -0.2718 -0.5440 -0.0438
 6168TIP3    H139919   5.188   0.828   3.629  1.2543  0.4323 -0.4463
 6168TIP3    H239920   5.190   0.858   3.481 -0.7153  0.3922 -0.5163
 6169TIP3   OH239921   5.138   3.824  16.918 -0.0182  0.2129 -0.0042
 6169TIP3    H139922   5.101   3.784  16.839 -0.8136 -0.1073  0.5232
 6169TIP3    H239923   5.196   3.892  16.885  1.1018 -1.1356 -0.9140
 6170TIP3   OH239924   4.993   5.699  12.082  0.0106  0.1954 -0.4430
 6170TIP3    H139925   5.034   5.785  12.083  0.7093 -0.1102 -1.3105
 6170TIP3    H239926   5.064   5.638  12.061 -0.5139 -0.5647 -0.0511
 6171TIP3   OH239927   5.706   5.647  15.609 -0.6409 -0.3734  0.1045
 6171TIP3    H139928   5.653   5.647  15.529  0.8142  0.6450 -0.9224
 6171TIP3    H239929   5.774   5.581  15.592  1.5212  1.9516 -0.8790
 6172TIP3   OH239930   5.035   6.650   5.488 -0.2997 -0.4673 -0.0584
 6172TIP3    H139931   4.949   6.686   5.507 -0.1049 -0.2511  0.4442
 6172TIP3    H239932   5.034   6.563   5.528  0.7105  0.6371  2.6269
 6173TIP3   OH239933   4.773   5.685   2.032 -0.0181  0.0757  0.5830
 6173TIP3    H139934   4.764   5.685   2.127  0.4383 -1.4763  0.6508
 6173TIP3    H239935   4.691   5.648   1.999  0.1380 -0.1378  0.4272
 6174TIP3   OH239936   6.038   1.460   4.808 -0.2555  0.2359 -0.0821
 6174TIP3    H139937   6.070   1.424   4.725 -0.8868  0.7194 -0.5501
 6174TIP3    H239938   6.053   1.554   4.800  1.3986  0.1101  1.1353
 6175TIP3   OH239939   2.273   5.856  14.140 -0.1815 -0.1800  0.2774
 6175TIP3    H139940   2.250   5.794  14.070  0.9954 -1.0180  0.5916
 6175TIP3    H239941   2.281   5.801  14.218 -0.5933  0.6164  0.8955
 6176TIP3   OH239942   4.816   6.029   3.676  0.1056 -0.2772  0.5261
 6176TIP3    H139943   4.801   6.090   3.749 -0.0415  0.1930  0.1069
 6176TIP3    H239944   4.780   6.074   3.599 -0.8666 -1.3095  0.3636
 6177TIP3   OH239945   6.002   1.716   0.947  0.3229 -0.2011 -0.2054
 6177TIP3    H139946   5.934   1.653   0.921  0.0261 -0.3221  0.8177
 6177TIP3    H239947   6.043   1.676   1.023 -1.5652  1.9304  2.1109
 6178TIP3   OH239948   4.340   5.817   0.695 -0.5479 -0.6980 -0.3459
 6178TIP3    H139949   4.393   5.839   0.772 -2.4428  0.1844  0.7874
 6178TIP3    H239950   4.386   5.857   0.622  0.8574 -0.8270  0.4197
 6179TIP3   OH239951   2.549   3.168   3.122  1.0033 -0.2634  0.3076
 6179TIP3    H139952   2.526   3.075   3.117  0.3972 -0.0960 -0.2668
 6179TIP3    H239953   2.482   3.206   3.179  0.1638  0.1280 -0.9078
 6180TIP3   OH239954   4.816   0.117   3.524  1.0706  0.1687 -0.1686
 6180TIP3    H139955   4.832   0.205   3.490  1.4048 -0.4588 -1.7194
 6180TIP3    H239956   4.850   0.058   3.456 -1.3751 -1.1919 -0.3378
 6181TIP3   OH239957   2.071   5.420  14.646 -0.2400 -0.0373 -0.0673
 6181TIP3    H139958   2.061   5.326  14.653 -3.0104 -0.0087 -1.9250
 6181TIP3    H239959   2.134   5.432  14.575  1.1601 -0.4204  1.0666
 6182TIP3   OH239960   2.604   4.517  13.556  0.3191 -0.3177  0.1734
 6182TIP3    H139961   2.612   4.488  13.465  2.9001 -1.8923  0.7941
 6182TIP3    H239962   2.601   4.436  13.607 -0.6191  0.5303  1.5462
 6183TIP3   OH239963   0.213   1.412  14.626  0.3532  0.4631  0.2688
 6183TIP3    H139964   0.169   1.436  14.708 -0.7791 -2.1874  0.5460
 6183TIP3    H239965   0.290   1.468  14.623 -0.2923  1.5932  2.4494
 6184TIP3   OH239966   3.994   4.339  16.912 -0.3723  0.3072 -0.5552
 6184TIP3    H139967   3.922   4.400  16.929 -1.6026 -1.2812  0.2508
 6184TIP3    H239968   4.068   4.375  16.960 -1.7458 -0.0482  2.0203
 6185TIP3   OH239969   4.753   5.333   6.553  0.1438  0.0698 -0.0042
 6185TIP3    H139970   4.689   5.328   6.625  0.6472  0.5201  0.4835
 6185TIP3    H239971   4.701   5.350   6.475 -0.4125 -0.4044  0.2555
 6186TIP3   OH239972   1.600   1.733   4.111 -0.0568 -0.4819 -0.0914
 6186TIP3    H139973   1.518   1.777   4.134  0.8021  1.8003 -1.0781
 6186TIP3    H239974   1.578   1.678   4.036 -0.4171  1.4577 -1.4949
 6187TIP3   OH239975   5.684   4.709   3.381 -0.0283  0.0380  0.0967
 6187TIP3    H139976   5.626   4.639   3.351 -0.7447  0.6865 -0.0588
 6187TIP3    H239977   5.656   4.786   3.331  0.3803  0.5605  0.6653
 6188TIP3   OH239978   5.139   5.457  12.253  0.2719 -0.5006  0.1584
 6188TIP3    H139979   5.227   5.470  12.288  0.2708 -1.8165  0.6979
 6188TIP3    H239980   5.148   5.386  12.189 -0.2740 -0.1346 -0.3445
 6189TIP3   OH239981   0.707   6.162   0.440 -0.5308 -0.0296 -0.8025
 6189TIP3    H139982   0.713   6.183   0.347 -1.0419  1.0845 -0.5990
 6189TIP3    H239983   0.653   6.083   0.443  1.5532 -1.5883 -1.5926
 6190TIP3   OH239984   0.009   2.231   0.981 -0.3013  0.2255 -0.0613
 6190TIP3    H139985  -0.011   2.239   1.074  0.1964 -0.3235  0.0985
 6190TIP3    H239986  -0.071   2.260   0.937 -2.0527 -3.1442  0.5511
 6191TIP3   OH239987   3.263   0.331  13.169  0.2329  0.0548  0.2701
 6191TIP3    H139988   3.174   0.299  13.154  0.1738  1.0316 -1.8462
 6191TIP3    H239989   3.313   0.298  13.095  1.1661  1.1835  0.3772
 6192TIP3   OH239990   1.270   4.310   1.048 -0.4431  0.4866  0.0606
 6192TIP3    H139991   1.310   4.304   0.962  0.5056  1.9399  0.3653
 6192TIP3    H239992   1.341   4.288   1.109 -1.1027 -0.5423  0.4888
 6193TIP3   OH239993   1.294   2.277  16.808 -0.1019 -0.5949  0.2399
 6193TIP3    H139994   1.288   2.278  16.904 -3.7891  2.9799  0.2532
 6193TIP3    H239995   1.221   2.221  16.780 -1.3250  1.1791 -0.3216
 6194TIP3   OH239996   5.393   0.681   5.644 -0.3332 -0.2051  0.3051
 6194TIP3    H139997   5.478   0.722   5.626 -1.0415  2.3792  2.2689
 6194TIP3    H239998   5.414   0.605   5.698  0.8205 -0.9010 -1.0421
 6195TIP3   OH239999   1.115   5.431  10.886 -0.1906  0.5865  0.2673
 6195TIP3    H140000   1.073   5.447  10.801  0.8222 -0.1587 -0.3929
 6195TIP3    H240001   1.042   5.417  10.946 -0.9412  1.5762 -0.3734
 6196TIP3   OH240002   1.562   3.699   2.388  0.2173  0.0694 -0.2857
 6196TIP3    H140003   1.610   3.769   2.343  0.6838  0.0966  0.2440
 6196TIP3    H240004   1.548   3.731   2.476  1.2553 -0.8625  0.2447
 6197TIP3   OH240005   0.885   0.883  14.846  0.0209 -0.3149 -1.0166
 6197TIP3    H140006   0.964   0.877  14.900  0.2208  0.4333 -1.2227
 6197TIP3    H240007   0.912   0.930  14.768 -0.7035  0.2698 -0.9294
 6198TIP3   OH240008   3.161   6.200  12.553 -0.0344 -0.0965 -0.4736
 6198TIP3    H140009   3.138   6.183  12.644 -0.0611 -0.9573 -0.6333
 6198TIP3    H240010   3.239   6.255  12.557 -0.3687  0.3452  0.0690
 6199TIP3   OH240011   5.858   5.060   0.057  0.1210 -0.2932  0.1959
 6199TIP3    H140012   5.947   5.090   0.074  0.1429 -0.5373  0.5125
 6199TIP3    H240013   5.802   5.122   0.103  0.0268  1.0039 -1.5438
 6200TIP3   OH240014   1.683   3.624  16.414 -0.0187 -0.3222  0.3991
 6200TIP3    H140015   1.613   3.620  16.478  0.6104 -1.7704  1.0425
 6200TIP3    H240016   1.719   3.536  16.412  1.0819  0.1187 -0.7035
 6201TIP3   OH240017   0.271   0.596   4.474 -0.2837 -0.3011  0.3770
 6201TIP3    H140018   0.357   0.595   4.514 -0.2368 -1.2927  0.2742
 6201TIP3    H240019   0.254   0.688   4.454  0.2544  0.0347  1.4468
 6202TIP3   OH240020   6.592   3.052   4.252 -0.3035  0.1928 -0.0626
 6202TIP3    H140021   6.621   3.026   4.340  0.3296  0.4932 -0.1769
 6202TIP3    H240022   6.499   3.071   4.262 -0.1933  0.4054  0.5855
 6203TIP3   OH240023   6.136   3.220   1.950 -0.1072  0.0586  0.3932
 6203TIP3    H140024   6.084   3.252   1.876 -1.3077 -1.9307  0.3052
 6203TIP3    H240025   6.180   3.142   1.917  3.6871  2.0668  0.2381
 6204TIP3   OH240026   5.637   2.961   2.303 -0.4845  0.3976  0.2637
 6204TIP3    H140027   5.694   3.027   2.264  0.9083  0.0828  1.6707
 6204TIP3    H240028   5.635   2.890   2.240  1.8039 -0.1502  0.7342
 6205TIP3   OH240029   1.929   1.405   5.536  0.5259 -0.0478 -0.7106
 6205TIP3    H140030   1.987   1.477   5.560 -0.6864 -0.1945  3.3719
 6205TIP3    H240031   1.842   1.444   5.533  0.1047 -0.9342 -0.5098
 6206TIP3   OH240032   0.579   3.794   3.296 -0.1871 -0.0980  0.2630
 6206TIP3    H140033   0.639   3.857   3.335  0.9512 -1.6385  1.0470
 6206TIP3    H240034   0.528   3.846   3.233 -2.0019  2.4698  3.5251
 6207TIP3   OH240035   0.274   6.537   1.165  0.9044 -0.0970  0.0190
 6207TIP3    H140036   0.351   6.500   1.125  1.0874  0.5614 -0.2573
 6207TIP3    H240037   0.202   6.480   1.138  1.2220 -0.4319 -0.1185
 6208TIP3   OH240038   3.157   2.595  12.438 -0.6645  0.8704 -0.4072
 6208TIP3    H140039   3.126   2.546  12.362 -0.2195  0.6711 -0.4577
 6208TIP3    H240040   3.078   2.609  12.490 -1.0942  1.5791 -1.2176
 6209TIP3   OH240041   1.346   6.624   0.795  0.4456 -0.1770  0.3384
 6209TIP3    H140042   1.343   6.594   0.705  0.2723  0.7461  0.0210
 6209TIP3    H240043   1.290   6.564   0.843  1.0944 -1.0987 -0.0280
 6210TIP3   OH240044   3.852   4.319  12.832 -0.8189  0.1973 -0.0753
 6210TIP3    H140045   3.772   4.271  12.853 -1.6309  0.7470 -1.6947
 6210TIP3    H240046   3.827   4.411  12.837 -0.9439  0.3808 -2.6169
 6211TIP3   OH240047   5.338   6.634   5.784  0.5798 -0.7179  0.3929
 6211TIP3    H140048   5.364   6.542   5.776 -1.0048 -1.2077  0.5650
 6211TIP3    H240049   5.377   6.664   5.866  0.3330 -1.5042  0.7960
 6212TIP3   OH240050   3.612   1.571   1.361  0.4533  0.3944  0.0648
 6212TIP3    H140051   3.685   1.532   1.409 -0.1933 -1.0389 -0.0750
 6212TIP3    H240052   3.652   1.642   1.311  1.7170 -0.2336  0.1346
 6213TIP3   OH240053   2.634   0.751  12.093  0.2385  0.2933 -0.0246
 6213TIP3    H140054   2.595   0.755  12.006  0.8008 -0.4426 -0.3292
 6213TIP3    H240055   2.629   0.658  12.116 -0.5776  0.5832  1.0550
 6214TIP3   OH240056   2.896   1.974   1.588 -0.1333 -0.0979 -0.2743
 6214TIP3    H140057   2.991   1.964   1.601 -0.2047  0.7765  1.1881
 6214TIP3    H240058   2.859   1.962   1.676 -1.2945  0.4550 -0.6728
 6215TIP3   OH240059   5.507   6.148   2.904  0.2836 -0.5972 -0.3202
 6215TIP3    H140060   5.456   6.226   2.883  1.4991 -0.0422 -1.3289
 6215TIP3    H240061   5.470   6.117   2.986  0.4281  1.6248  0.6524
 6216TIP3   OH240062   2.733   2.051  12.907  0.0735  0.0972 -0.6210
 6216TIP3    H140063   2.817   2.096  12.916  1.1729 -1.4889 -2.2533
 6216TIP3    H240064   2.692   2.093  12.831 -0.2911  0.3809 -0.2699
 6217TIP3   OH240065   3.001   0.829   3.478 -0.1305  0.6964 -0.0012
 6217TIP3    H140066   3.012   0.830   3.573  1.7783  2.0902 -0.1790
 6217TIP3    H240067   2.945   0.905   3.460  1.6465  2.0470 -0.1297
 6218TIP3   OH240068   0.615   1.199  14.761  0.3232  0.0678 -0.0765
 6218TIP3    H140069   0.524   1.199  14.730 -0.2932  1.6035  1.6298
 6218TIP3    H240070   0.611   1.158  14.847  1.2227  0.3304  0.1007
 6219TIP3   OH240071   0.081   2.591  15.238 -0.0252  0.0143  0.4540
 6219TIP3    H140072   0.133   2.605  15.159 -0.8517  1.4919  0.1361
 6219TIP3    H240073  -0.006   2.567  15.206 -0.0166 -0.7505  0.9573
 6220TIP3   OH240074   6.248   2.407   2.800 -0.2559 -0.0284  0.2368
 6220TIP3    H140075   6.211   2.348   2.735 -1.2972 -0.5302  1.2441
 6220TIP3    H240076   6.342   2.402   2.787 -0.4540  0.0340 -1.3387
 6221TIP3   OH240077   3.746   1.372   2.948 -1.3016 -0.4061 -0.2457
 6221TIP3    H140078   3.744   1.278   2.930 -1.6120 -0.3826 -0.3453
 6221TIP3    H240079   3.804   1.380   3.023  0.8048 -0.4047 -1.7879
 6222TIP3   OH240080   4.638   0.895   3.281 -0.1747 -0.0790 -0.2290
 6222TIP3    H140081   4.583   0.972   3.297 -2.6677 -1.4965 -1.2474
 6222TIP3    H240082   4.602   0.827   3.338  0.1646 -1.2113 -1.2953
 6223TIP3   OH240083   6.462   1.692  11.329 -0.6287 -0.1112  0.3672
 6223TIP3    H140084   6.380   1.741  11.320 -1.6236 -1.7581  0.0126
 6223TIP3    H240085   6.471   1.678  11.423 -1.8550 -1.6336  0.2916
 6224TIP3   OH240086   5.734   5.924  14.133  0.0580  0.4610  0.8880
 6224TIP3    H140087   5.697   5.836  14.141  0.4155  0.2446  0.2474
 6224TIP3    H240088   5.808   5.914  14.073 -0.7870  1.4585 -0.3725
 6225TIP3   OH240089   0.431   4.109   1.087 -0.7773  0.4910  0.3670
 6225TIP3    H140090   0.441   4.120   1.182  1.2523  2.1351  0.0432
 6225TIP3    H240091   0.520   4.092   1.055 -1.4654 -0.3719 -1.2267
 6226TIP3   OH240092   6.388   3.651   2.097 -0.1983  0.7508  0.1357
 6226TIP3    H140093   6.332   3.692   2.031 -0.6127 -0.6515 -0.4216
 6226TIP3    H240094   6.454   3.717   2.117 -0.1447  1.2617 -1.5839
 6227TIP3   OH240095   2.520   4.101  12.538 -0.0297  0.9052  0.2761
 6227TIP3    H140096   2.534   4.055  12.454  0.1026  0.0135  0.7720
 6227TIP3    H240097   2.475   4.182  12.513 -1.3284 -0.0205 -0.5294
 6228TIP3   OH240098   3.003   4.221  13.876  0.2435 -0.0369 -0.3586
 6228TIP3    H140099   3.034   4.225  13.967 -0.8849  0.0602  0.0356
 6228TIP3    H240100   3.079   4.193  13.826  1.0683  0.5534  0.5239
 6229TIP3   OH240101   6.170   4.503  13.983  0.7583  0.2137  0.6795
 6229TIP3    H140102   6.104   4.471  14.044  1.3309 -1.5551  0.4314
 6229TIP3    H240103   6.122   4.553  13.918 -0.1444  0.1281  1.2693
 6230TIP3   OH240104   1.845   6.182   3.700  0.4471  0.2978  0.1163
 6230TIP3    H140105   1.928   6.135   3.711  1.2439  1.8693  1.2682
 6230TIP3    H240106   1.786   6.142   3.765  0.6371 -0.1215  0.0326
 6231TIP3   OH240107   0.852   4.227  13.836  0.4030 -0.1855 -0.1876
 6231TIP3    H140108   0.899   4.310  13.828  0.1839  0.0656  0.9278
 6231TIP3    H240109   0.916   4.160  13.813  0.7670  0.2523 -0.4598
 6232TIP3   OH240110   3.598   3.688   0.974 -0.1854 -0.1836 -0.0067
 6232TIP3    H140111   3.535   3.740   1.023 -1.6149  0.1981 -2.1122
 6232TIP3    H240112   3.554   3.604   0.961  0.3672 -0.4431 -0.2165
 6233TIP3   OH240113   1.131   0.534  11.974 -0.6506 -0.3107  0.2817
 6233TIP3    H140114   1.083   0.554  11.894 -0.3402  1.4783  0.4897
 6233TIP3    H240115   1.213   0.497  11.944 -0.6197  0.1600 -0.2344
 6234TIP3   OH240116   0.176   2.686   2.929 -0.5645 -0.1699 -0.3335
 6234TIP3    H140117   0.091   2.652   2.902 -0.9386 -0.8221  1.5503
 6234TIP3    H240118   0.194   2.643   3.013  1.5590  0.0625 -0.6179
 6235TIP3   OH240119   2.143   3.219   4.750  0.0534  0.4816 -0.6971
 6235TIP3    H140120   2.156   3.224   4.655  1.3770  2.2355 -0.4673
 6235TIP3    H240121   2.204   3.283   4.786  0.3441 -0.8885  1.4290
 6236TIP3   OH240122   2.886   2.460  13.186 -0.3766  0.1368  0.0886
 6236TIP3    H140123   2.793   2.458  13.162 -0.5521 -1.6472  0.7468
 6236TIP3    H240124   2.889   2.514  13.265 -0.3756  2.6536 -1.5483
 6237TIP3   OH240125   5.920   6.059   1.737 -0.6210 -0.8103  0.2495
 6237TIP3    H140126   5.903   6.100   1.652 -2.7239 -1.5055  0.2858
 6237TIP3    H240127   6.005   6.016   1.726  1.2287  2.5548 -0.1095
 6238TIP3   OH240128   1.641   5.421   2.692  0.3492 -0.3538 -0.1242
 6238TIP3    H140129   1.654   5.332   2.662  0.9860  0.2917 -1.8588
 6238TIP3    H240130   1.582   5.460   2.628 -0.7905  0.1864  1.1968
 6239TIP3   OH240131   3.957   6.635   5.395  0.5919 -0.0183  0.0086
 6239TIP3    H140132   3.942   6.546   5.364 -2.4416  1.1136 -2.2167
 6239TIP3    H240133   3.925   6.634   5.485  1.8954 -1.4333  0.5110
 6240TIP3   OH240134   1.200   0.257   5.768 -0.1912 -0.3960 -0.0689
 6240TIP3    H140135   1.200   0.163   5.752 -0.5309 -0.4012 -0.0540
 6240TIP3    H240136   1.288   0.276   5.799  0.4758 -0.3997 -1.8656
 6241TIP3   OH240137   6.777   2.678  10.795 -0.4481  0.0620  0.3041
 6241TIP3    H140138   6.817   2.606  10.747  0.4531 -1.3119  2.9320
 6241TIP3    H240139   6.845   2.744  10.801  0.0646 -0.5174  1.1508
 6242TIP3   OH240140   0.580   5.078   1.626  0.3966  0.4575 -0.6153
 6242TIP3    H140141   0.666   5.118   1.621 -0.1456  1.7061 -0.3435
 6242TIP3    H240142   0.569   5.053   1.717  1.2423 -1.5469 -1.0137
 6243TIP3   OH240143   5.361   1.705  15.334 -0.2341 -0.0982 -0.3714
 6243TIP3    H140144   5.291   1.770  15.332  0.7913  1.0454 -1.1175
 6243TIP3    H240145   5.428   1.743  15.391  0.9496  0.1617 -1.8666
 6244TIP3   OH240146   1.099   0.326   0.298 -0.0907 -0.2298 -0.2645
 6244TIP3    H140147   1.014   0.316   0.254 -0.8837  0.2041  1.1147
 6244TIP3    H240148   1.116   0.420   0.296 -0.3462 -0.1520  0.7037
 6245TIP3   OH240149   6.289   6.574   3.285  0.6015 -0.1186 -0.2733
 6245TIP3    H140150   6.217   6.549   3.342 -0.3636  1.1757 -0.8732
 6245TIP3    H240151   6.319   6.492   3.246  0.9780 -0.9740  1.6758
 6246TIP3   OH240152   3.515   1.896   2.448  0.0967  0.1380  0.4735
 6246TIP3    H140153   3.558   1.813   2.429 -1.2469 -0.4380 -0.2160
 6246TIP3    H240154   3.584   1.962   2.437  0.4829 -0.5759 -2.2621
 6247TIP3   OH240155   0.265   3.395  12.243  0.0087 -0.0085 -0.0080
 6247TIP3    H140156   0.310   3.422  12.323 -1.9748 -0.9362  1.5228
 6247TIP3    H240157   0.308   3.314  12.216 -0.3822 -0.6190  1.1461
 6248TIP3   OH240158   3.846   4.062  11.171 -0.3696 -0.2648  0.3260
 6248TIP3    H140159   3.792   4.092  11.098 -1.8671  0.9897  1.8678
 6248TIP3    H240160   3.935   4.057  11.136 -0.9860  0.7148 -1.4424
 6249TIP3   OH240161   3.743   1.547  13.677 -0.0119 -0.4168 -0.4449
 6249TIP3    H140162   3.781   1.616  13.731 -2.3214  2.1849 -1.8432
 6249TIP3    H240163   3.792   1.551  13.595 -1.8947  1.6828 -1.5761
 6250TIP3   OH240164   4.501   3.361  12.999  0.2880  0.1830 -0.4037
 6250TIP3    H140165   4.535   3.429  13.057 -2.5637  1.9575 -0.6154
 6250TIP3    H240166   4.471   3.292  13.058  2.4127 -0.5480 -0.1329
 6251TIP3   OH240167   3.387   0.354   2.321 -0.0524  0.2974 -0.0034
 6251TIP3    H140168   3.328   0.299   2.269  0.6615 -0.0337 -0.4870
 6251TIP3    H240169   3.442   0.292   2.369  0.4284  0.5883 -0.1711
 6252TIP3   OH240170   4.583   6.504   3.195  0.0644  0.4742  0.2725
 6252TIP3    H140171   4.526   6.468   3.263  1.8532 -0.5691  1.2646
 6252TIP3    H240172   4.554   6.595   3.187 -2.6375 -0.3244 -0.2601
 6253TIP3   OH240173   3.462   3.357   5.706  0.2980  0.1539  0.0487
 6253TIP3    H140174   3.384   3.411   5.694  0.3654  0.0886 -0.7151
 6253TIP3    H240175   3.503   3.353   5.620  0.9625 -0.1006  0.3629
 6254TIP3   OH240176   3.925   2.731  14.093 -0.2095 -0.3384  0.3019
 6254TIP3    H140177   3.938   2.661  14.029 -1.2049 -0.4945  0.2504
 6254TIP3    H240178   3.853   2.700  14.148 -2.5440  1.6998 -1.3516
 6255TIP3   OH240179   3.082   2.216   5.601  0.1937 -0.0268 -0.0394
 6255TIP3    H140180   3.132   2.192   5.679 -1.6015 -0.5797  0.9796
 6255TIP3    H240181   3.149   2.231   5.534  1.6889 -1.9149  0.9225
 6256TIP3   OH240182   0.326   5.520  13.190 -0.5040  0.7068  0.1237
 6256TIP3    H140183   0.249   5.520  13.247 -0.6161  1.3602 -0.0240
 6256TIP3    H240184   0.357   5.429  13.193  0.2428  0.9801  2.2251
 6257TIP3   OH240185   2.645   1.494   0.109  0.0527  0.3984  0.2920
 6257TIP3    H140186   2.583   1.477   0.038 -0.2826 -1.5190  0.9840
 6257TIP3    H240187   2.635   1.420   0.168  1.0960  1.4070  1.8163
 6258TIP3   OH240188   2.303   5.808   5.964 -0.3904  0.3940 -0.1656
 6258TIP3    H140189   2.367   5.743   5.934 -0.7608  0.3628 -0.9156
 6258TIP3    H240190   2.345   5.849   6.040  2.8706  3.7832 -3.3036
 6259TIP3   OH240191   4.705   2.593   2.548  0.2486  0.3268  0.3387
 6259TIP3    H140192   4.774   2.656   2.567  0.4094  1.3579 -3.0242
 6259TIP3    H240193   4.624   2.643   2.556  0.3375  0.8672 -1.6955
 6260TIP3   OH240194   0.858   0.789   3.428  0.2302 -0.4962 -0.9334
 6260TIP3    H140195   0.817   0.827   3.350 -2.2263 -1.9202 -0.4263
 6260TIP3    H240196   0.883   0.701   3.401  0.2704 -0.6606 -0.3716
 6261TIP3   OH240197   2.062   6.367   4.877 -0.1402 -0.5366 -0.6646
 6261TIP3    H140198   2.029   6.299   4.937  0.4783 -0.1044  0.1930
 6261TIP3    H240199   1.988   6.426   4.865 -0.3126 -0.6969 -0.4110
 6262TIP3   OH240200   3.788   6.674   2.409  0.8001 -0.2779  0.4698
 6262TIP3    H140201   3.840   6.658   2.331 -0.4902 -1.1279 -0.2342
 6262TIP3    H240202   3.702   6.639   2.389 -0.5144  2.4005  1.0578
 6263TIP3   OH240203   4.920   0.678  16.795  0.6054 -0.0783  0.0809
 6263TIP3    H140204   4.876   0.607  16.842  2.2397  0.3994  2.5153
 6263TIP3    H240205   5.004   0.689  16.840  1.2533  2.1139 -1.4539
 6264TIP3   OH240206   3.591   2.261   3.555  0.0512  0.2544 -0.3940
 6264TIP3    H140207   3.520   2.307   3.510  0.3687 -1.0848 -2.4270
 6264TIP3    H240208   3.659   2.327   3.567 -0.8772  1.1536  0.0898
 6265TIP3   OH240209   4.870   0.593   3.369  0.0541 -1.1403 -0.1012
 6265TIP3    H140210   4.955   0.623   3.401 -0.9563  1.0474  0.7193
 6265TIP3    H240211   4.823   0.563   3.447 -1.8018  2.6756  0.4938
 6266TIP3   OH240212   6.135   0.348  13.267 -0.3114  0.3391 -0.2590
 6266TIP3    H140213   6.099   0.274  13.317  0.4979  0.6045  0.7473
 6266TIP3    H240214   6.160   0.310  13.183 -0.5125 -0.3976  0.0059
 6267TIP3   OH240215   5.467   0.136  10.568  0.0172 -0.3343 -0.5766
 6267TIP3    H140216   5.419   0.177  10.497  1.5281 -0.2236 -1.5812
 6267TIP3    H240217   5.527   0.204  10.599  0.1212 -0.7179  0.0876
 6268TIP3   OH240218   0.741   2.013  12.224  0.0717 -0.1291 -0.1563
 6268TIP3    H140219   0.653   2.047  12.206 -0.5809 -1.8222 -0.4102
 6268TIP3    H240220   0.728   1.948  12.293  0.8470 -1.5111 -1.2599
 6269TIP3   OH240221   5.373   5.903   3.016  0.0407  0.0687 -0.0292
 6269TIP3    H140222   5.381   5.808   3.019  1.1035  0.1648  0.5244
 6269TIP3    H240223   5.329   5.920   2.933 -1.5040 -0.9714  0.5442
 6270TIP3   OH240224   0.445   2.959  14.931 -0.3161 -0.2136 -0.2503
 6270TIP3    H140225   0.395   3.039  14.914 -1.3613 -1.0541 -1.2949
 6270TIP3    H240226   0.499   2.980  15.007  0.4668  1.9449 -1.2987
 6271TIP3   OH240227   0.380   4.512  16.552  0.4114 -0.1104 -0.4642
 6271TIP3    H140228   0.418   4.475  16.472 -0.6202  0.3532 -1.1833
 6271TIP3    H240229   0.337   4.593  16.523 -0.0048  0.0448  0.5539
 6272TIP3   OH240230   1.985   2.715  13.427  0.4762 -0.7428 -0.2144
 6272TIP3    H140231   1.909   2.734  13.371 -0.4036 -0.6769  0.9603
 6272TIP3    H240232   2.038   2.795  13.422  0.2650 -0.6285 -0.7269
 6273TIP3   OH240233   1.441   2.110   0.178 -0.7658  0.1831  0.4441
 6273TIP3    H140234   1.479   2.166   0.245 -3.2541  1.3754  0.9596
 6273TIP3    H240235   1.400   2.038   0.227 -3.8978  1.8342  0.4716
 6274TIP3   OH240236   3.433   6.633   6.105  0.3143  0.2064  0.7450
 6274TIP3    H140237   3.423   6.547   6.147  0.0377  0.4720  1.2305
 6274TIP3    H240238   3.352   6.646   6.056  1.0330 -0.5411 -0.7166
 6275TIP3   OH240239   2.452   6.343   0.777 -0.0232  0.0014 -0.3811
 6275TIP3    H140240   2.410   6.305   0.854 -0.1050  0.6886 -0.0704
 6275TIP3    H240241   2.411   6.299   0.703  0.1136 -0.7246 -0.0257
 6276TIP3   OH240242   4.904   4.999  16.096  0.1063  0.4923 -0.0910
 6276TIP3    H140243   4.929   4.930  16.158 -1.5678  0.2501  0.3745
 6276TIP3    H240244   4.837   4.959  16.041 -0.8114  1.6863  0.1066
 6277TIP3   OH240245   3.299   4.742  11.768  0.0544 -0.2237  0.2460
 6277TIP3    H140246   3.349   4.813  11.808 -1.1448  0.5083  0.5071
 6277TIP3    H240247   3.363   4.695  11.715  0.6492  1.8494 -1.0093
 6278TIP3   OH240248   6.653   4.845   6.026  0.4819  0.4083 -0.0324
 6278TIP3    H140249   6.733   4.895   6.038 -0.1479  1.2186  1.0329
 6278TIP3    H240250   6.583   4.907   6.047 -0.4110 -0.3774 -0.6042
 6279TIP3   OH240251   0.523   6.265   4.523 -0.3310 -0.2390 -0.3065
 6279TIP3    H140252   0.508   6.233   4.434  1.6068 -0.4175 -0.5950
 6279TIP3    H240253   0.541   6.186   4.574  0.8705  0.0438 -0.2684
 6280TIP3   OH240254   0.191   0.680  12.396  0.2238 -0.4108 -0.0534
 6280TIP3    H140255   0.232   0.693  12.311 -0.1285 -1.3090 -0.3723
 6280TIP3    H240256   0.224   0.752  12.450 -0.5546  0.9480 -1.3041
 6281TIP3   OH240257   1.795   3.664  12.632  0.4471 -0.1510  0.0611
 6281TIP3    H140258   1.853   3.588  12.633  1.5332  0.6477  0.8468
 6281TIP3    H240259   1.744   3.656  12.712  1.5863  0.6671  0.9035
 6282TIP3   OH240260   2.391   2.164   0.524  0.4013 -0.2285 -0.4974
 6282TIP3    H140261   2.319   2.222   0.498  0.3758  0.1874  0.4614
 6282TIP3    H240262   2.358   2.117   0.600  2.0428  1.9895  1.7401
 6283TIP3   OH240263   3.151   4.913  14.315  0.4887 -0.4302 -0.1825
 6283TIP3    H140264   3.134   4.828  14.275  0.3031 -0.6181  0.2971
 6283TIP3    H240265   3.135   4.900  14.408  1.3202 -0.1062  0.0195
 6284TIP3   OH240266   0.857   2.622   5.993 -0.1605 -0.1008  0.7684
 6284TIP3    H140267   0.892   2.693   5.940  1.9689 -0.6794  1.2932
 6284TIP3    H240268   0.925   2.555   5.990  0.1791 -0.0884  4.3635
 6285TIP3   OH240269   1.880   1.902  14.731  0.3573 -0.1571 -0.2915
 6285TIP3    H140270   1.789   1.928  14.732  0.0244 -1.2585 -0.1907
 6285TIP3    H240271   1.921   1.952  14.802 -0.4109 -0.4503  0.3748
 6286TIP3   OH240272   4.101   3.069   5.159 -0.2882  0.1485  0.1907
 6286TIP3    H140273   4.014   3.093   5.192 -0.2875  0.7798 -0.2451
 6286TIP3    H240274   4.091   2.982   5.122 -0.6853  0.1342  0.3333
 6287TIP3   OH240275   6.797   5.985  15.502  0.6009 -0.1222 -1.0154
 6287TIP3    H140276   6.859   6.049  15.468 -0.0156 -0.5691 -3.1317
 6287TIP3    H240277   6.711   6.023  15.483  0.2207 -0.5767 -0.2489
 6288TIP3   OH240278   4.528   0.185   3.446  0.3258  0.2668  0.4034
 6288TIP3    H140279   4.550   0.158   3.357 -0.5465 -1.6302  0.7335
 6288TIP3    H240280   4.519   0.281   3.440 -0.9543  0.0701 -1.8106
 6289TIP3   OH240281   3.768   0.703   4.600 -0.5038 -0.0848  0.2925
 6289TIP3    H140282   3.745   0.610   4.595  1.8936 -0.6711 -2.6892
 6289TIP3    H240283   3.796   0.717   4.690  0.1111 -2.5674  0.5430
 6290TIP3   OH240284   1.355   0.876  10.756  0.2986 -0.0558 -0.2699
 6290TIP3    H140285   1.427   0.937  10.766  0.6588 -0.2616 -1.4240
 6290TIP3    H240286   1.375   0.805  10.817 -0.4482  1.2294  1.5375
 6291TIP3   OH240287   3.957   2.372  12.048  0.2979  0.4482 -0.1353
 6291TIP3    H140288   3.985   2.281  12.059 -1.5352 -1.2337 -5.7555
 6291TIP3    H240289   4.028   2.412  11.997 -0.7171  0.7255 -1.3866
 6292TIP3   OH240290   1.484   1.993  11.350 -0.0220 -0.4636 -0.1034
 6292TIP3    H140291   1.453   2.079  11.381  0.5373  0.1504 -1.1973
 6292TIP3    H240292   1.528   1.955  11.427  1.1561  0.9425 -0.0382
 6293TIP3   OH240293   5.348   1.842   5.875 -0.1107  0.1172  0.2520
 6293TIP3    H140294   5.393   1.918   5.911 -0.7548  0.1577  1.0088
 6293TIP3    H240295   5.384   1.768   5.924  0.8815 -0.1480 -0.8266
 6294TIP3   OH240296   2.448   2.255   1.167 -0.2827 -0.1994  0.3481
 6294TIP3    H140297   2.427   2.192   1.236  0.0968 -0.6626  0.0441
 6294TIP3    H240298   2.373   2.315   1.167 -0.6816 -0.6834  0.5968
 6295TIP3   OH240299   4.015   6.527   2.303  0.4385 -0.7632  0.1221
 6295TIP3    H140300   4.068   6.548   2.380  2.1573  2.2785 -1.6367
 6295TIP3    H240301   4.073   6.547   2.229 -1.4891 -2.4566 -1.9877
 6296TIP3   OH240302   1.815   5.499   2.868 -0.1712  0.0309 -0.3043
 6296TIP3    H140303   1.904   5.486   2.833  0.2483  2.3231 -0.2148
 6296TIP3    H240304   1.758   5.460   2.802  0.8231  0.0105 -1.1849
 6297TIP3   OH240305   0.017   2.661   1.893 -0.0579  0.2788 -0.5229
 6297TIP3    H140306   0.077   2.679   1.966 -0.0197 -0.3892 -0.3886
 6297TIP3    H240307  -0.053   2.727   1.903 -1.5605 -1.5104  1.7892
 6298TIP3   OH240308   1.643   1.450  12.427 -0.0495  0.7514  0.0221
 6298TIP3    H140309   1.561   1.497  12.437 -0.3418  0.4255 -0.7416
 6298TIP3    H240310   1.648   1.430  12.333  0.1325 -0.6179  0.3017
 6299TIP3   OH240311   0.327   0.816  13.607 -0.3187 -0.0698  0.3554
 6299TIP3    H140312   0.388   0.841  13.676 -0.2149  0.4855  0.0684
 6299TIP3    H240313   0.278   0.896  13.587 -0.2337 -0.1822 -0.3249
 6300TIP3   OH240314   5.279   3.213   5.834  0.2288  0.5863  0.8789
 6300TIP3    H140315   5.367   3.177   5.820 -0.3153 -0.9365  1.2324
 6300TIP3    H240316   5.294   3.307   5.846  1.7269  0.4702  0.2160
 6301TIP3   OH240317   0.470   5.958   5.071  0.2380 -0.0112 -0.4155
 6301TIP3    H140318   0.427   5.927   4.991 -0.9312 -0.8351  0.4979
 6301TIP3    H240319   0.436   5.901   5.140  0.3613  1.3814  0.8491
 6302TIP3   OH240320   0.745   1.281  12.811 -0.3122  0.0002  0.0358
 6302TIP3    H140321   0.774   1.194  12.840 -0.4698 -0.0791 -0.0417
 6302TIP3    H240322   0.770   1.286  12.719  1.7063  0.9027  0.5694
 6303TIP3   OH240323   1.750   1.930   5.230  0.2159  0.2821 -0.2868
 6303TIP3    H140324   1.801   2.002   5.192 -0.4541  0.7610 -0.2899
 6303TIP3    H240325   1.797   1.906   5.309  0.3225  0.8746 -0.1707
 6304TIP3   OH240326   5.272   4.346   2.791 -0.6837  0.7432  0.4521
 6304TIP3    H140327   5.281   4.429   2.838  1.0764  0.6243  0.3705
 6304TIP3    H240328   5.279   4.370   2.699  0.2699  0.4544  0.4481
 6305TIP3   OH240329   0.405   4.459   3.169  0.0013  0.2920 -0.6018
 6305TIP3    H140330   0.481   4.454   3.111  0.7354 -0.8887  0.4104
 6305TIP3    H240331   0.351   4.383   3.144  0.4434 -0.3716  0.3862
 6306TIP3   OH240332   1.972   5.372   3.558 -0.5621 -0.1323 -0.0943
 6306TIP3    H140333   1.936   5.361   3.470 -1.6796 -1.3870  0.4900
 6306TIP3    H240334   1.911   5.432   3.601  0.7005  1.5498 -0.5344
 6307TIP3   OH240335   4.893   1.210  12.975  0.4114 -0.9155 -0.1148
 6307TIP3    H140336   4.877   1.202  13.068  0.5036 -0.8862 -0.0952
 6307TIP3    H240337   4.823   1.266  12.942  0.6671 -0.5091  0.0247
 6308TIP3   OH240338   6.315   1.978  11.344  0.3375 -0.0336 -0.6445
 6308TIP3    H140339   6.262   1.971  11.264  1.4724 -0.2221 -1.3990
 6308TIP3    H240340   6.383   2.041  11.322  0.3622  0.2925  0.3540
 6309TIP3   OH240341   6.601   4.924  13.069  0.2733  0.0222  0.3106
 6309TIP3    H140342   6.624   4.945  12.979  1.0410  0.3928  0.5844
 6309TIP3    H240343   6.673   4.959  13.122 -0.8125  1.0221  1.1920
 6310TIP3   OH240344   2.763   6.038  12.667 -0.2108  0.5535 -0.0606
 6310TIP3    H140345   2.806   6.079  12.742 -1.1144 -1.1737  1.4781
 6310TIP3    H240346   2.682   6.002  12.702 -0.2596 -1.0861 -1.6721
 6311TIP3   OH240347   6.438   6.150   4.473 -0.7735 -0.2650  0.0978
 6311TIP3    H140348   6.393   6.233   4.484  0.8081  0.8125 -1.0808
 6311TIP3    H240349   6.422   6.126   4.381  0.3296 -0.2617 -0.1142
 6312TIP3   OH240350   5.988   4.402  15.713  0.8153  0.1747  0.5590
 6312TIP3    H140351   6.080   4.380  15.699  0.2911 -2.7835  1.1066
 6312TIP3    H240352   5.940   4.333  15.667 -1.1782  1.8302  0.0035
 6313TIP3   OH240353   6.415   1.695   3.021  0.5623 -0.1445 -0.0571
 6313TIP3    H140354   6.510   1.686   3.020  0.5662 -0.1045 -0.0405
 6313TIP3    H240355   6.396   1.744   3.101  0.6246  0.9009 -0.6601
 6314TIP3   OH240356   6.677   3.923   0.304  0.6329  0.1991 -0.4525
 6314TIP3    H140357   6.598   3.964   0.267  0.7138  0.2317 -0.5911
 6314TIP3    H240358   6.728   3.897   0.227  1.4782  1.5615 -0.3800
 6315TIP3   OH240359   5.978   1.376   1.052 -0.0214  0.2234  0.5937
 6315TIP3    H140360   6.025   1.454   1.080 -1.0824  0.8671  0.6095
 6315TIP3    H240361   5.955   1.392   0.961 -0.6454  0.1371  0.7286
 6316TIP3   OH240362   3.640   6.476   1.529 -0.0863 -0.2406 -0.5067
 6316TIP3    H140363   3.594   6.555   1.499  2.1562  0.7471 -1.6140
 6316TIP3    H240364   3.714   6.509   1.580 -0.6547 -1.7690  1.4182
 6317TIP3   OH240365   5.415   2.939  16.501  0.3065  0.1266  0.1681
 6317TIP3    H140366   5.382   2.858  16.539  2.7486 -0.7591  0.5814
 6317TIP3    H240367   5.482   2.911  16.438 -0.1065  1.7706 -1.0734
 6318TIP3   OH240368   6.257   0.002  14.761  0.1268  0.2732 -0.0050
 6318TIP3    H140369   6.210  -0.066  14.712 -1.6487  0.6112  1.1196
 6318TIP3    H240370   6.275  -0.037  14.847 -2.9613  1.8107  1.5175
 6319TIP3   OH240371   5.231   1.778   2.486  0.5513 -0.1845  0.3055
 6319TIP3    H140372   5.250   1.728   2.566  1.8328 -1.1785 -0.5934
 6319TIP3    H240373   5.313   1.778   2.437  0.5076  2.5687  0.0971
 6320TIP3   OH240374   5.562   2.081  16.044  0.5556  0.1418  0.5345
 6320TIP3    H140375   5.536   2.039  16.126  0.5029  2.6094  1.8797
 6320TIP3    H240376   5.481   2.090  15.995  0.5299 -1.0663  0.3475
 6321TIP3   OH240377   6.723   0.990  12.924 -0.4218  0.2426  0.2000
 6321TIP3    H140378   6.779   0.926  12.966  0.9901  0.6193 -1.0364
 6321TIP3    H240379   6.688   0.946  12.847 -1.3576  0.2070  0.6339
 6322TIP3   OH240380   5.752   0.793  12.366  0.4597  0.5495  0.7935
 6322TIP3    H140381   5.717   0.785  12.278  0.2412 -0.3123  0.9503
 6322TIP3    H240382   5.723   0.879  12.396  0.0479  0.6063  0.2427
 6323TIP3   OH240383   2.640   1.435   5.080  0.2041  0.3766 -0.4375
 6323TIP3    H140384   2.576   1.478   5.023 -1.2206 -0.7487  0.2493
 6323TIP3    H240385   2.725   1.464   5.046 -0.6108  3.5517 -0.1210
 6324TIP3   OH240386   0.494   4.415   1.908 -0.3485  0.4614 -0.3985
 6324TIP3    H140387   0.570   4.411   1.851 -0.4518 -1.0341 -0.4733
 6324TIP3    H240388   0.509   4.346   1.973 -1.2217  0.7432  0.1262
 6325TIP3   OH240389   1.390   4.337  14.310  0.2938 -0.1165  0.0961
 6325TIP3    H140390   1.311   4.284  14.323 -0.1051  0.3460 -0.3751
 6325TIP3    H240391   1.455   4.297  14.367 -0.5704  0.1117  1.2991
 6326TIP3   OH240392   3.679   5.070   2.422  0.1545 -0.2071  0.0145
 6326TIP3    H140393   3.766   5.109   2.432 -0.7554  1.6427  1.5036
 6326TIP3    H240394   3.670   5.013   2.499  1.1324 -2.8593 -1.6983
 6327TIP3   OH240395   3.555   1.181  11.327  0.1873  0.1123 -0.0556
 6327TIP3    H140396   3.523   1.141  11.247 -0.8627  0.0125  0.4022
 6327TIP3    H240397   3.555   1.275  11.309 -4.4541  0.6179  1.2067
 6328TIP3   OH240398   0.162   0.532  11.409 -0.1061 -0.2336  0.3194
 6328TIP3    H140399   0.159   0.444  11.371  0.8662 -0.5433  0.9090
 6328TIP3    H240400   0.083   0.575  11.376 -1.1895 -1.6845  0.8956
 6329TIP3   OH240401   5.834   0.862   4.173  0.7363 -0.7307 -0.4869
 6329TIP3    H140402   5.828   0.793   4.239  1.8854 -0.6610 -0.2891
 6329TIP3    H240403   5.922   0.853   4.137  0.7069  0.2899 -0.8427
 6330TIP3   OH240404   6.250   4.919  12.618  0.1448  0.0398  0.3335
 6330TIP3    H140405   6.298   5.001  12.622 -1.2503  0.8871  0.3732
 6330TIP3    H240406   6.245   4.899  12.525  0.0942  0.2315  0.2962
 6331TIP3   OH240407   4.968   1.384   3.924 -0.1380  0.6465 -0.0368
 6331TIP3    H140408   4.943   1.294   3.943 -0.9674  1.0060  0.6191
 6331TIP3    H240409   5.025   1.377   3.847 -1.8835 -0.2615 -1.3212
 6332TIP3   OH240410   1.637   4.570  13.377 -0.4690  0.1385 -0.0586
 6332TIP3    H140411   1.732   4.562  13.393  0.0610 -0.5179 -2.9925
 6332TIP3    H240412   1.597   4.542  13.460  1.8665  1.2491  1.5630
 6333TIP3   OH240413   0.756   0.002  12.551  0.2185  0.2167 -0.3906
 6333TIP3    H140414   0.842   0.032  12.581 -0.1630  1.4768 -0.4669
 6333TIP3    H240415   0.734  -0.070  12.610  1.1994  0.0543 -0.1924
 6334TIP3   OH240416   2.992   0.676  15.095 -0.0491  0.7703 -0.0954
 6334TIP3    H140417   2.975   0.722  15.013 -1.6571  1.2222  0.4663
 6334TIP3    H240418   3.036   0.595  15.068 -0.3826  0.9916 -1.3843
 6335TIP3   OH240419   5.368   5.508  14.062 -0.5446 -0.1085 -0.3109
 6335TIP3    H140420   5.314   5.460  14.123  0.1200  0.4540  0.7538
 6335TIP3    H240421   5.336   5.483  13.975 -1.6835 -0.6991  0.2689
 6336TIP3   OH240422   3.852   1.592  15.915 -0.1352  0.5937 -0.9419
 6336TIP3    H140423   3.928   1.651  15.916  0.2120  0.1431  0.6671
 6336TIP3    H240424   3.800   1.618  15.991 -0.1549 -0.9418 -0.4000
 6337TIP3   OH240425   4.348   0.532   0.444  0.1850  0.2557  0.6602
 6337TIP3    H140426   4.414   0.596   0.415 -0.0284  1.0134  1.7906
 6337TIP3    H240427   4.296   0.579   0.509 -0.7416 -0.7089  0.6416
 6338TIP3   OH240428   1.755   5.864  14.109 -0.4412 -0.7024 -0.0812
 6338TIP3    H140429   1.831   5.914  14.082  0.5997 -1.7352  0.8062
 6338TIP3    H240430   1.685   5.892  14.050  0.6199  0.2530 -0.9273
 6339TIP3   OH240431   2.719   0.553  10.759  0.3424  0.0989  0.0453
 6339TIP3    H140432   2.795   0.571  10.703 -0.6581 -0.0539 -1.3978
 6339TIP3    H240433   2.752   0.489  10.823  2.1195  1.9287  1.1013
 6340TIP3   OH240434   2.695   5.110  16.189  0.2364  0.2976 -0.0023
 6340TIP3    H140435   2.764   5.112  16.123  0.9406  1.5848  0.7247
 6340TIP3    H240436   2.625   5.164  16.152 -0.1795 -0.5497 -0.4961
 6341TIP3   OH240437   1.342   5.616  14.513 -0.2212  0.3707 -0.5286
 6341TIP3    H140438   1.286   5.676  14.464  0.5871  2.3470  0.8642
 6341TIP3    H240439   1.431   5.648  14.498  0.0997  0.5827  1.6012
 6342TIP3   OH240440   6.158   3.465   0.027 -0.4935  0.1865  0.2957
 6342TIP3    H140441   6.253   3.479   0.022  0.1379 -2.8992  1.3666
 6342TIP3    H240442   6.148   3.397   0.093 -3.5938  1.1444  0.9389
 6343TIP3   OH240443   2.014   1.929   0.492 -0.2052 -0.2446  0.5416
 6343TIP3    H140444   2.031   1.864   0.424 -1.1540 -1.1858  1.1573
 6343TIP3    H240445   1.924   1.957   0.476 -0.4267 -0.4457  1.3656
 6344TIP3   OH240446   3.709   3.729  12.500  0.3431  0.4927 -0.2080
 6344TIP3    H140447   3.650   3.703  12.429  0.2593 -2.6707  0.8618
 6344TIP3    H240448   3.796   3.701  12.470  0.4816  0.2268  0.4224
 6345TIP3   OH240449   3.878   5.907   4.815 -0.3363 -0.2226  0.4077
 6345TIP3    H140450   3.948   5.920   4.879 -0.2618 -0.4064  0.3644
 6345TIP3    H240451   3.810   5.969   4.841  0.2529  0.6848 -0.1465
 6346TIP3   OH240452   3.063   3.900  11.923  0.3830 -0.1480 -0.0869
 6346TIP3    H140453   3.097   3.823  11.877  2.9170  0.5265  0.5246
 6346TIP3    H240454   3.091   3.974  11.870 -0.5036  0.4571  0.2669
 6347TIP3   OH240455   0.451   6.350  15.185  0.2519 -0.4751  0.6829
 6347TIP3    H140456   0.546   6.355  15.198  0.8056  2.3948 -2.7980
 6347TIP3    H240457   0.414   6.375  15.269  2.4944 -2.0687  2.2561
 6348TIP3   OH240458   4.071   3.692  14.864  0.0060 -0.0478 -0.7712
 6348TIP3    H140459   4.090   3.661  14.775  1.6209 -0.5234 -0.2937
 6348TIP3    H240460   4.021   3.772  14.851  1.5346  0.7425 -2.1769
 6349TIP3   OH240461   5.188   2.515  11.247 -0.0809  0.5848  0.2625
 6349TIP3    H140462   5.125   2.508  11.318  0.4956  0.4929  0.7666
 6349TIP3    H240463   5.201   2.425  11.217 -0.6357  0.6666 -0.2404
 6350TIP3   OH240464   5.110   2.943  13.760  0.3650 -0.0972  0.3726
 6350TIP3    H140465   5.195   2.962  13.799 -0.0641 -0.3935  1.4943
 6350TIP3    H240466   5.047   2.988  13.816 -0.3260 -1.1937  0.5094
 6351TIP3   OH240467   2.685   5.919   3.194 -0.5310  0.5001 -0.1778
 6351TIP3    H140468   2.775   5.935   3.168 -0.6126  2.6054  0.6686
 6351TIP3    H240469   2.676   5.962   3.279 -2.0234 -0.6902  0.3171
 6352TIP3   OH240470   5.618   0.065   3.991  0.2770  0.0994  0.1148
 6352TIP3    H140471   5.592  -0.004   3.930 -2.0485  0.4448  0.5987
 6352TIP3    H240472   5.541   0.079   4.046  0.7151  2.9002  0.2027
 6353TIP3   OH240473   2.846   4.920  13.162  0.2103 -0.1374 -0.4863
 6353TIP3    H140474   2.806   4.937  13.247  2.1113  0.8981  0.2690
 6353TIP3    H240475   2.899   4.998  13.144 -1.2311  0.3453 -3.3475
 6354TIP3   OH240476   5.191   6.263  12.042 -0.0155  0.9991  0.7181
 6354TIP3    H140477   5.225   6.208  11.971  0.1929 -1.1865  2.4052
 6354TIP3    H240478   5.153   6.339  11.998 -0.3867 -0.5277 -1.7665
 6355TIP3   OH240479   4.885   3.057  13.505  0.3039  0.5178 -0.0022
 6355TIP3    H140480   4.878   3.025  13.595 -0.7375  2.1972  0.5680
 6355TIP3    H240481   4.928   3.143  13.514  0.9715  0.3341 -1.2099
 6356TIP3   OH240482   5.514   3.307   2.821  0.0258 -0.4884  0.4451
 6356TIP3    H140483   5.603   3.303   2.784  0.9678  0.0742  2.5173
 6356TIP3    H240484   5.458   3.325   2.745  1.8007  0.2620 -0.7722
 6357TIP3   OH240485   5.263   4.722   1.082  0.0767 -0.4845 -0.2767
 6357TIP3    H140486   5.325   4.766   1.024  1.6296 -1.1157  0.8330
 6357TIP3    H240487   5.238   4.643   1.034  1.4278 -1.0599 -0.0696
 6358TIP3   OH240488   6.225   3.832   4.129 -0.0743 -0.3227  0.1914
 6358TIP3    H140489   6.259   3.903   4.184  1.6185 -0.8365 -0.1496
 6358TIP3    H240490   6.284   3.758   4.145 -0.0341 -0.7407 -1.6977
 6359TIP3   OH240491   2.992   6.620   1.341 -0.4802 -0.2791  0.3438
 6359TIP3    H140492   2.940   6.699   1.328  1.3344  0.8467 -0.4237
 6359TIP3    H240493   2.928   6.548   1.338 -1.8381  0.9118 -2.0199
 6360TIP3   OH240494   1.437   2.630   3.345 -0.3506 -0.0453  0.0311
 6360TIP3    H140495   1.354   2.590   3.317  0.2710 -0.3779 -1.4422
 6360TIP3    H240496   1.485   2.559   3.387 -0.1857 -0.2619 -0.5165
 6361TIP3   OH240497   0.568   1.501  16.488  0.0134 -0.0828 -0.1970
 6361TIP3    H140498   0.519   1.437  16.541  0.9465 -0.6042  0.0491
 6361TIP3    H240499   0.554   1.472  16.398 -0.2666 -0.1299 -0.1413
 6362TIP3   OH240500   0.698   2.968  11.891 -0.2381  0.0472 -0.3250
 6362TIP3    H140501   0.719   3.062  11.891  1.7487 -0.1667 -4.7132
 6362TIP3    H240502   0.624   2.959  11.831 -1.1089 -1.1578  0.8651
 6363TIP3   OH240503   3.542   0.042   1.665 -0.1180  0.0888  0.2105
 6363TIP3    H140504   3.493   0.012   1.588  1.3521  1.0808 -1.1856
 6363TIP3    H240505   3.577   0.127   1.640  2.7639 -0.7759  0.8606
 6364TIP3   OH240506   2.429   2.993  16.717  0.3500  0.2729  0.0265
 6364TIP3    H140507   2.458   3.057  16.653  2.2458 -0.8258 -0.3225
 6364TIP3    H240508   2.510   2.950  16.745 -0.7496 -1.3369  0.9028
 6365TIP3   OH240509   0.477   4.911  13.995 -0.0047 -0.0228 -0.3660
 6365TIP3    H140510   0.392   4.918  13.952 -0.2662 -1.4325 -0.1335
 6365TIP3    H240511   0.529   4.982  13.958 -1.2742  0.8576 -0.5131
 6366TIP3   OH240512   1.504   6.591  13.271 -0.0143  0.3479 -0.0720
 6366TIP3    H140513   1.595   6.568  13.290  0.2731  0.8493 -0.8080
 6366TIP3    H240514   1.453   6.532  13.327  0.7365 -0.5164 -0.2647
 6367TIP3   OH240515   1.673   3.613  14.787 -0.0647  0.6685 -1.0658
 6367TIP3    H140516   1.698   3.705  14.797  1.8223  0.0817  0.0752
 6367TIP3    H240517   1.742   3.564  14.832 -2.7127 -1.1973  1.2972
 6368TIP3   OH240518   0.681   0.007   5.113 -0.4043  0.6247  0.1090
 6368TIP3    H140519   0.767  -0.032   5.132  0.3204  2.7391  1.5099
 6368TIP3    H240520   0.620  -0.046   5.163  0.0279 -0.9185 -0.9099
 6369TIP3   OH240521   0.606   3.893   0.873  0.3515 -0.0564  0.0587
 6369TIP3    H140522   0.655   3.924   0.949  0.0008  1.3974 -0.2720
 6369TIP3    H240523   0.626   3.957   0.805 -1.6107  0.3194 -0.2201
 6370TIP3   OH240524   0.021   1.431   2.152  0.4312 -0.5647 -0.2849
 6370TIP3    H140525   0.075   1.354   2.171  2.7315  1.2215  0.9301
 6370TIP3    H240526   0.031   1.486   2.230 -0.2122  1.4502 -1.5660
 6371TIP3   OH240527   6.269   0.843  11.585  0.1791 -0.1336  0.5141
 6371TIP3    H140528   6.248   0.832  11.493 -0.8225 -1.0882  0.8319
 6371TIP3    H240529   6.319   0.764  11.608 -0.0940 -0.1953  0.9143
 6372TIP3   OH240530   3.768   6.365  15.204 -0.2905  0.2787  0.2175
 6372TIP3    H140531   3.823   6.382  15.127  1.4028 -1.5756  0.9149
 6372TIP3    H240532   3.829   6.363  15.277 -1.3964 -1.0734  1.1558
 6373TIP3   OH240533   0.400   4.734   5.045  0.6043 -0.1371  0.3688
 6373TIP3    H140534   0.422   4.654   4.997  1.9920  0.1895  0.4211
 6373TIP3    H240535   0.471   4.795   5.024  0.6204  0.4160  1.9130
 6374TIP3   OH240536   1.750   6.240  12.259 -0.7664  0.3721 -0.0261
 6374TIP3    H140537   1.684   6.267  12.323 -1.0438 -1.8042  0.6990
 6374TIP3    H240538   1.700   6.223  12.179 -1.0371 -0.7721  0.3720
 6375TIP3   OH240539   5.737   5.393   3.212 -0.0749  0.2116 -0.1542
 6375TIP3    H140540   5.688   5.472   3.189 -0.5531 -0.0851 -0.1621
 6375TIP3    H240541   5.828   5.422   3.219 -0.4469  1.1084  1.4024
 6376TIP3   OH240542   0.549   5.666  14.960 -0.6130 -0.2742 -0.6218
 6376TIP3    H140543   0.599   5.646  14.881 -0.6916 -0.7613 -0.5534
 6376TIP3    H240544   0.605   5.725  15.010  0.9207 -2.5539  0.5133
 6377TIP3   OH240545   4.384   6.046  15.826  0.3615 -0.0079 -0.1893
 6377TIP3    H140546   4.392   6.137  15.857 -1.4886  0.2460 -0.3413
 6377TIP3    H240547   4.416   6.048  15.736 -0.3791  0.6661 -0.4455
 6378TIP3   OH240548   5.653   0.524   3.205  0.6027 -0.1376 -0.5266
 6378TIP3    H140549   5.579   0.583   3.195  0.6546 -0.0586 -0.4441
 6378TIP3    H240550   5.614   0.436   3.204  0.5779 -0.1208 -1.1552
 6379TIP3   OH240551   1.108   0.833   3.965  0.1800 -0.2095  0.3527
 6379TIP3    H140552   1.100   0.739   3.984 -0.9595  0.0146  1.0756
 6379TIP3    H240553   1.180   0.839   3.901  0.9020 -1.4732  1.0139
 6380TIP3   OH240554   5.508   2.861   5.380 -0.9863 -0.3018  0.4745
 6380TIP3    H140555   5.529   2.768   5.394  0.7431 -0.5237 -2.7234
 6380TIP3    H240556   5.538   2.904   5.460  0.6166 -2.2161  0.9849
 6381TIP3   OH240557   3.155   4.110   1.052 -0.6388  0.1489  0.3211
 6381TIP3    H140558   3.141   4.092   1.145  0.2247 -0.2091  0.3867
 6381TIP3    H240559   3.144   4.025   1.009 -2.3256  0.5335 -0.0797
 6382TIP3   OH240560   1.630   4.494  12.950 -0.2204 -0.3724 -0.0770
 6382TIP3    H140561   1.590   4.574  12.984 -0.5352  0.2927 -1.9141
 6382TIP3    H240562   1.697   4.471  13.014 -1.7205 -0.0129  1.7239
 6383TIP3   OH240563   4.853   5.716  11.594 -0.1586  0.7193  0.1653
 6383TIP3    H140564   4.782   5.676  11.644  0.2000 -1.7258 -1.1400
 6383TIP3    H240565   4.908   5.759  11.660 -1.4045  0.3607  1.4781
 6384TIP3   OH240566   2.625   3.005   1.532 -0.0151 -0.4410 -0.1329
 6384TIP3    H140567   2.559   3.009   1.601  0.6305 -0.2463  0.4810
 6384TIP3    H240568   2.700   2.961   1.573  0.7425  0.5600 -0.3927
 6385TIP3   OH240569   1.776   0.217  14.488 -0.2157 -0.3596 -0.0610
 6385TIP3    H140570   1.711   0.155  14.521  0.5572 -3.1879 -3.2657
 6385TIP3    H240571   1.826   0.242  14.566 -1.0246 -3.2883  1.5750
 6386TIP3   OH240572   0.369   4.442   1.323  0.1096  0.0003  0.3213
 6386TIP3    H140573   0.278   4.441   1.292 -0.0375 -0.0505  0.7568
 6386TIP3    H240574   0.398   4.532   1.309  0.2185 -0.1415 -0.4632
 6387TIP3   OH240575   0.241   6.217  16.678  0.0730 -0.3684  0.0240
 6387TIP3    H140576   0.145   6.222  16.674 -0.1631 -3.2452 -0.5611
 6387TIP3    H240577   0.263   6.246  16.766 -1.3340  0.3081  0.1844
 6388TIP3   OH240578   5.008   6.229   3.465 -0.1497  0.6336 -0.0441
 6388TIP3    H140579   5.043   6.162   3.523 -0.3160  0.9202  0.3933
 6388TIP3    H240580   5.067   6.229   3.390  1.7743  2.2077  1.3570
 6389TIP3   OH240581   4.157   4.913  12.689  0.7687 -0.4905 -0.1412
 6389TIP3    H140582   4.070   4.888  12.657  0.1772 -0.4367  1.3627
 6389TIP3    H240583   4.189   4.835  12.733  0.9849 -0.1474  0.3144
 6390TIP3   OH240584   1.951   2.712  11.321  0.0101  0.2992 -0.3879
 6390TIP3    H140585   1.923   2.798  11.290 -1.8330 -0.2538 -0.3677
 6390TIP3    H240586   1.961   2.723  11.416  1.7098  0.9596 -0.6136
 6391TIP3   OH240587   3.784   4.609  15.883  0.4211  0.1376  0.0211
 6391TIP3    H140588   3.729   4.560  15.821 -1.7020  2.6530 -0.2817
 6391TIP3    H240589   3.825   4.677  15.829  0.9927  0.4913  0.8897
 6392TIP3   OH240590   4.298   2.829  16.146  0.5921  0.0328 -0.3350
 6392TIP3    H140591   4.277   2.743  16.112 -0.5706  0.2471 -0.1839
 6392TIP3    H240592   4.345   2.812  16.228  0.4663 -0.4495 -0.3623
 6393TIP3   OH240593   1.617   3.270   1.208 -0.1587 -0.2057 -0.8875
 6393TIP3    H140594   1.641   3.245   1.297  1.0229  0.0633 -1.1097
 6393TIP3    H240595   1.522   3.267   1.207 -0.1829 -0.4198  0.3227
 6394TIP3   OH240596   4.769   0.909  15.920 -0.1972  0.5924 -0.3526
 6394TIP3    H140597   4.772   0.835  15.981  2.5276  0.5149 -0.4272
 6394TIP3    H240598   4.728   0.980  15.969 -2.2217 -0.7231 -0.0380
 6395TIP3   OH240599   5.468   5.871  15.725  0.2886  0.1907 -0.4295
 6395TIP3    H140600   5.429   5.788  15.750  1.6341 -0.2220  0.4231
 6395TIP3    H240601   5.550   5.876  15.775  0.4648  1.8206 -0.7981
 6396TIP3   OH240602   1.145   4.378   0.632 -0.7256 -0.4855  0.9753
 6396TIP3    H140603   1.230   4.356   0.670 -1.0587 -0.0846  1.9902
 6396TIP3    H240604   1.132   4.314   0.562 -0.3273 -1.5961  1.8957
 6397TIP3   OH240605   1.986   0.672  15.498 -0.0949  0.0291 -0.6532
 6397TIP3    H140606   1.928   0.714  15.434 -1.3775 -0.1515  0.3519
 6397TIP3    H240607   1.931   0.608  15.543  0.2896  1.2130  1.7046
 6398TIP3   OH240608   5.265   3.492   4.617 -0.3668  0.2831 -0.6676
 6398TIP3    H140609   5.264   3.541   4.535 -1.9868  0.0521 -0.8180
 6398TIP3    H240610   5.240   3.403   4.593  1.3900 -0.3859 -0.2243
 6399TIP3   OH240611   1.345   2.395  17.118  0.3125  0.2466  0.2128
 6399TIP3    H140612   1.338   2.321  17.179  1.6781  0.5246  0.7373
 6399TIP3    H240613   1.411   2.452  17.157  0.4832  0.9300 -1.0313
 6400TIP3   OH240614   1.827   0.669   3.610  0.3224  0.0800  0.0385
 6400TIP3    H140615   1.733   0.688   3.608  0.1268 -0.8808 -0.7936
 6400TIP3    H240616   1.848   0.662   3.703 -1.3239 -3.7154  0.3260
 6401TIP3   OH240617   0.788   0.436   4.320 -0.1039  0.2177 -0.1003
 6401TIP3    H140618   0.862   0.482   4.360 -0.3557 -0.4681  1.2189
 6401TIP3    H240619   0.787   0.467   4.230  0.3169  2.0584  0.4821
 6402TIP3   OH240620   4.976   5.192  10.941  0.5431 -0.0913  0.0825
 6402TIP3    H140621   5.060   5.190  10.988  0.7587 -1.0763 -0.3338
 6402TIP3    H240622   4.919   5.245  10.996  1.2656  0.0930  0.6661
 6403TIP3   OH240623   5.974   1.595   3.737  0.5246  0.3044 -0.6822
 6403TIP3    H140624   5.925   1.579   3.817  0.2683  2.9829 -0.2254
 6403TIP3    H240625   6.064   1.569   3.758  0.6861  1.9485  0.8997
 6404TIP3   OH240626   5.870   0.943   2.223 -0.6793 -0.5997 -0.2839
 6404TIP3    H140627   5.885   1.037   2.217 -1.2438 -0.5507 -1.1544
 6404TIP3    H240628   5.940   0.911   2.281 -0.9080  0.4375  0.5881
 6405TIP3   OH240629   0.677   3.320   2.374 -0.0657 -0.2430  0.1415
 6405TIP3    H140630   0.591   3.344   2.338  0.3044  0.2737 -0.4029
 6405TIP3    H240631   0.656   3.259   2.445 -0.8490 -0.7682 -0.5142
 6406TIP3   OH240632   4.079   6.131  15.134 -0.0823 -0.1070 -0.9468
 6406TIP3    H140633   4.057   6.188  15.060 -1.4895  1.7923  0.8286
 6406TIP3    H240634   4.172   6.112  15.122  0.7851  3.4541 -1.1741
 6407TIP3   OH240635   4.509   6.695  15.266 -0.9417 -0.1103 -0.4650
 6407TIP3    H140636   4.568   6.641  15.213 -4.7140 -3.7832 -1.5136
 6407TIP3    H240637   4.536   6.677  15.357  0.7265 -0.0464 -0.9134
 6408TIP3   OH240638   4.317   6.056   4.816  0.1234 -0.0822 -0.2320
 6408TIP3    H140639   4.387   6.003   4.853 -0.1311  0.2599  0.7843
 6408TIP3    H240640   4.253   5.993   4.784  0.2270 -0.3925  0.1660
 6409TIP3   OH240641   0.826   5.858   2.483 -0.6323  0.0430 -0.1611
 6409TIP3    H140642   0.899   5.904   2.523 -0.6908 -0.5897  0.6967
 6409TIP3    H240643   0.818   5.897   2.396  0.8528 -0.0144 -0.3496
 6410TIP3   OH240644   3.217   0.016   3.153  0.2428 -0.0224  0.3993
 6410TIP3    H140645   3.215  -0.003   3.247 -0.2550 -0.7346  0.2553
 6410TIP3    H240646   3.146   0.080   3.140 -0.7255 -1.0796  0.2871
 6411TIP3   OH240647   4.052   6.533  15.068  0.0039 -0.5000 -0.4100
 6411TIP3    H140648   4.143   6.532  15.100 -0.2196 -0.5543  0.2292
 6411TIP3    H240649   4.041   6.449  15.023 -0.1321 -1.0688  0.6597
 6412TIP3   OH240650   4.219   2.404   0.081  0.5732 -0.6423  0.1347
 6412TIP3    H140651   4.185   2.482   0.036  0.0746 -1.6254 -1.2668
 6412TIP3    H240652   4.144   2.372   0.132 -0.0194 -1.5943 -1.2708
 6413TIP3   OH240653   5.600   6.616  14.690  0.0411  0.4168 -0.3703
 6413TIP3    H140654   5.609   6.706  14.658 -1.1229  1.1339  1.1754
 6413TIP3    H240655   5.508   6.595  14.675 -0.6391  0.8779  2.5512
 6414TIP3   OH240656   5.095   1.359   4.459 -0.1158  0.2871 -0.1221
 6414TIP3    H140657   5.178   1.374   4.504 -1.0832  1.7887  1.2433
 6414TIP3    H240658   5.054   1.445   4.453 -1.3922 -0.3546 -1.1676
 6415TIP3   OH240659   4.036   6.573  16.787 -0.2881  0.0356 -0.2679
 6415TIP3    H140660   4.018   6.592  16.695 -2.3110 -1.4749 -0.2644
 6415TIP3    H240661   4.035   6.658  16.830  0.0721  0.7060 -1.5296
 6416TIP3   OH240662   3.550   0.137   4.503 -0.1845  0.3208 -0.0562
 6416TIP3    H140663   3.637   0.110   4.532  0.4134  1.7213 -0.4608
 6416TIP3    H240664   3.498   0.057   4.503  1.0525 -0.4974  0.3852
 6417TIP3   OH240665   4.093   6.228   1.972 -0.0798  0.5370  0.3542
 6417TIP3    H140666   4.110   6.141   1.936 -0.9735  0.1232  0.9134
 6417TIP3    H240667   4.044   6.213   2.052  0.2885  1.5357  0.7896
 6418TIP3   OH240668   5.223   4.868   0.656 -0.6769  0.5256 -0.2957
 6418TIP3    H140669   5.209   4.781   0.693  0.5876 -0.4079 -1.8918
 6418TIP3    H240670   5.208   4.928   0.729 -0.4110 -1.0886  1.1415
 6419TIP3   OH240671   3.854   4.653  15.402  1.2651  0.5056 -0.1555
 6419TIP3    H140672   3.794   4.678  15.332  0.1962  0.2516  0.6556
 6419TIP3    H240673   3.941   4.657  15.361  0.5982 -0.6513 -1.7917
 6420TIP3   OH240674   2.834   4.808   1.813  0.1218  0.6446  0.4171
 6420TIP3    H140675   2.888   4.730   1.829 -0.0719 -0.3249 -2.9544
 6420TIP3    H240676   2.890   4.864   1.759 -1.1202  1.0389 -0.4824
 6421TIP3   OH240677   0.741   2.951   2.576  0.0625  0.0546  0.2439
 6421TIP3    H140678   0.676   3.017   2.551  0.5281 -0.3942 -2.5397
 6421TIP3    H240679   0.701   2.868   2.552  0.5588 -0.4703  1.1758
 6422TIP3   OH240680   0.077   3.341   1.291  0.0055  0.0310  0.0472
 6422TIP3    H140681   0.141   3.412   1.298  0.1978 -0.2465  1.3705
 6422TIP3    H240682   0.074   3.321   1.198 -0.3144  1.9974 -0.4186
 6423TIP3   OH240683   0.908   2.328   2.930  0.8659  0.6997 -0.3514
 6423TIP3    H140684   0.824   2.348   2.973  0.8200  1.3072 -0.7141
 6423TIP3    H240685   0.934   2.244   2.967  0.9759  1.3436  1.0956
 6424TIP3   OH240686   6.608   3.834  16.342  0.2563 -0.1933  0.6480
 6424TIP3    H140687   6.622   3.788  16.259  1.5784 -0.5490  1.0504
 6424TIP3    H240688   6.523   3.801  16.373  0.6971 -1.6140  0.4200
 6425TIP3   OH240689   2.145   6.475  10.910 -0.7458  0.0500  0.0663
 6425TIP3    H140690   2.068   6.420  10.896 -0.0311 -1.4868  1.8019
 6425TIP3    H240691   2.135   6.507  11.000 -0.4139  1.6212 -0.4326
 6426TIP3   OH240692   0.301   2.254  13.158 -0.0216  0.1083 -0.2682
 6426TIP3    H140693   0.353   2.332  13.146  1.3024 -0.4933  1.1643
 6426TIP3    H240694   0.362   2.181  13.147 -1.2051 -0.7482 -1.5204
 6427TIP3   OH240695   2.939   0.356  12.736  0.3313  0.1400  0.4334
 6427TIP3    H140696   2.883   0.319  12.805 -2.6395  2.5097 -0.4541
 6427TIP3    H240697   3.004   0.407  12.784 -0.4364  0.1279  1.5480
 6428TIP3   OH240698   6.396   0.685  16.695 -0.0996 -0.0159 -0.5246
 6428TIP3    H140699   6.385   0.776  16.721  2.5401 -0.1565  1.5543
 6428TIP3    H240700   6.444   0.690  16.612  0.1696  0.4952 -0.3440
 6429TIP3   OH240701   1.542   0.964  13.360  0.5276  0.3938  0.4596
 6429TIP3    H140702   1.591   0.882  13.355  1.1118  0.7797 -0.2486
 6429TIP3    H240703   1.450   0.936  13.357  0.6454 -0.3703  2.4310
 6430TIP3   OH240704   2.416   5.287  13.711 -0.2288 -0.0795 -0.1250
 6430TIP3    H140705   2.482   5.252  13.771  1.0875 -0.8338 -1.9269
 6430TIP3    H240706   2.466   5.337  13.647 -1.7463  2.0687  0.2468
 6431TIP3   OH240707   4.735   6.693  13.839 -0.2828 -0.2134  0.4038
 6431TIP3    H140708   4.742   6.646  13.756 -0.8939 -2.4590  1.5344
 6431TIP3    H240709   4.641   6.712  13.848 -0.3129 -0.5644  0.8723
 6432TIP3   OH240710   3.095   5.749  14.391 -0.0979 -0.1489  0.2011
 6432TIP3    H140711   3.042   5.683  14.345  1.5981  0.1230 -2.3354
 6432TIP3    H240712   3.040   5.827  14.389 -0.9460 -0.7125  0.6250
 6433TIP3   OH240713   2.448   0.950  15.158 -0.1110 -0.1066  0.2703
 6433TIP3    H140714   2.482   0.906  15.235 -1.7998  1.1326  1.8047
 6433TIP3    H240715   2.462   1.043  15.175 -1.0363  0.2252 -0.6389
 6434TIP3   OH240716   3.102   0.427  11.795 -0.0630 -0.1816  0.2390
 6434TIP3    H140717   3.113   0.519  11.819 -0.4081 -0.0538 -0.0938
 6434TIP3    H240718   3.009   0.418  11.775  0.2383 -0.2204 -1.2909
 6435TIP3   OH240719   2.290   1.132   2.423  0.0571 -0.0713 -0.4120
 6435TIP3    H140720   2.328   1.046   2.406 -0.2788 -0.5237  0.9821
 6435TIP3    H240721   2.340   1.166   2.496 -1.4665 -0.2201  0.7518
 6436TIP3   OH240722   3.283   4.685  16.643 -0.1938  0.4742  0.4308
 6436TIP3    H140723   3.196   4.663  16.609 -0.5001  0.5787  1.1323
 6436TIP3    H240724   3.335   4.704  16.565 -0.8141  0.4510  0.0050
 6437TIP3   OH240725   6.125   1.775   2.068 -0.0881 -0.4066 -0.9193
 6437TIP3    H140726   6.033   1.779   2.091 -0.0553 -0.9475 -0.6886
 6437TIP3    H240727   6.171   1.802   2.148 -0.0761  1.3174 -1.4621
 6438TIP3   OH240728   1.661   2.229   3.413 -0.0791 -0.4569  0.4127
 6438TIP3    H140729   1.574   2.199   3.387  0.1380 -2.9229  2.1230
 6438TIP3    H240730   1.689   2.166   3.480  2.8300  0.5288  0.2760
 6439TIP3   OH240731   6.102   1.680   0.009 -0.3046  0.0617  0.1673
 6439TIP3    H140732   6.179   1.710   0.056 -1.4070  1.2185  1.3093
 6439TIP3    H240733   6.095   1.738  -0.067 -0.1546  0.0616  0.1541
 6440TIP3   OH240734   1.832   6.584  14.783 -0.0466 -0.0865  0.1957
 6440TIP3    H140735   1.866   6.495  14.782 -0.4051 -0.2491  1.2602
 6440TIP3    H240736   1.751   6.578  14.833 -2.0100  0.1795 -2.7155
 6441TIP3   OH240737   3.488   2.739  10.436 -0.4865 -0.4768  0.0654
 6441TIP3    H140738   3.411   2.683  10.444  0.8089 -2.8338 -2.2011
 6441TIP3    H240739   3.543   2.716  10.511 -1.9645  1.4063  1.8416
 6442TIP3   OH240740   3.122   4.383   1.293 -0.4985 -0.0452 -0.2256
 6442TIP3    H140741   3.153   4.292   1.296 -2.2271 -0.6507  0.9662
 6442TIP3    H240742   3.149   4.415   1.206 -0.5982 -1.9677 -1.0151
 6443TIP3   OH240743   6.536   5.690  14.972  0.1948 -0.0220  0.4491
 6443TIP3    H140744   6.485   5.677  14.892 -0.1793  0.4832  0.5979
 6443TIP3    H240745   6.502   5.625  15.033 -0.2843  0.3187  0.5504
 6444TIP3   OH240746   6.658   4.220  15.233  0.3118 -0.2076 -0.2925
 6444TIP3    H140747   6.679   4.244  15.143 -0.0626  1.6362  0.0599
 6444TIP3    H240748   6.731   4.165  15.261  0.0582 -1.4496 -1.9320
 6445TIP3   OH240749   4.492   3.219  14.289  0.0529 -0.1476  0.1181
 6445TIP3    H140750   4.451   3.243  14.372 -2.4251  1.2862 -1.3847
 6445TIP3    H240751   4.540   3.297  14.263 -1.1534  0.3163 -0.8477
 6446TIP3   OH240752   4.825   4.170   0.024  0.1535  0.2605  0.1209
 6446TIP3    H140753   4.744   4.173  -0.027 -0.3276  1.3164  0.9126
 6446TIP3    H240754   4.885   4.119  -0.031 -0.0395  2.0994 -1.9718
 6447TIP3   OH240755   4.396   3.506  12.353  0.2282 -0.2013  0.0096
 6447TIP3    H140756   4.441   3.423  12.363  1.0233  0.0051 -1.5641
 6447TIP3    H240757   4.312   3.484  12.314  0.5507 -0.2672 -0.6683
 6448TIP3   OH240758   4.538   3.990   2.032 -0.1395  0.6794 -0.0751
 6448TIP3    H140759   4.444   3.995   2.018 -0.1662  0.4399  0.0239
 6448TIP3    H240760   4.550   4.006   2.126 -0.2300 -1.1024  0.2628
 6449TIP3   OH240761   4.487   1.525   3.512  0.2769  0.1607  0.4228
 6449TIP3    H140762   4.520   1.508   3.424 -1.0464  0.0754 -0.0876
 6449TIP3    H240763   4.562   1.560   3.560  0.7526  1.3046 -1.0637
 6450TIP3   OH240764   6.669   1.243  12.195 -0.0167  0.4923  0.5952
 6450TIP3    H140765   6.743   1.260  12.252  0.0159  0.8134  0.4583
 6450TIP3    H240766   6.592   1.250  12.251  0.1275 -1.4764  1.1185
 6451TIP3   OH240767   5.231   5.584   1.798 -0.5161 -0.0536  0.3509
 6451TIP3    H140768   5.232   5.677   1.821 -0.1505  0.0635 -0.1214
 6451TIP3    H240769   5.151   5.551   1.838 -0.9121  0.5717  0.0977
 6452TIP3   OH240770   1.498   5.960  15.445  0.0412 -0.2421  0.0925
 6452TIP3    H140771   1.579   5.935  15.400  0.8166  3.1074 -0.6831
 6452TIP3    H240772   1.525   6.029  15.506 -1.8964 -0.7985  1.7001
 6453TIP3   OH240773   2.165   4.888   6.814  0.5723 -0.0533 -0.6890
 6453TIP3    H140774   2.158   4.979   6.785 -0.2443  0.4127  0.8158
 6453TIP3    H240775   2.092   4.843   6.772  1.0136 -0.0451 -1.4855
 6454TIP3   OH240776   2.227   1.418  11.103  0.0668  0.0057  0.7922
 6454TIP3    H140777   2.241   1.494  11.047  1.5758 -0.4952  0.4599
 6454TIP3    H240778   2.171   1.451  11.173 -1.7881  0.6842 -0.8901
 6455TIP3   OH240779   4.970   4.736  14.461 -0.2276  0.5980 -0.3701
 6455TIP3    H140780   5.049   4.787  14.450  0.5788 -0.5883 -0.3126
 6455TIP3    H240781   4.941   4.754  14.551  1.5617 -1.0377  0.6138
 6456TIP3   OH240782   4.409   5.315   2.532  0.1945 -0.2126 -0.3302
 6456TIP3    H140783   4.425   5.249   2.600 -0.5380  0.5439  0.5996
 6456TIP3    H240784   4.483   5.374   2.538  1.1878 -1.2668 -1.5993
 6457TIP3   OH240785   6.034   5.531   1.039 -0.2467  0.0709 -0.2143
 6457TIP3    H140786   6.123   5.565   1.041 -0.1831  0.2294 -2.7142
 6457TIP3    H240787   6.042   5.438   1.060  0.2422  0.4094  1.2549
 6458TIP3   OH240788   3.407   5.189  10.603  0.8366  0.1142 -0.3141
 6458TIP3    H140789   3.317   5.222  10.607  1.0459  0.8304 -1.1247
 6458TIP3    H240790   3.402   5.101  10.640 -0.5622 -0.6035 -2.0977
 6459TIP3   OH240791   6.800   1.824   2.247 -0.5286 -0.3450  0.0879
 6459TIP3    H140792   6.884   1.817   2.293 -0.4898 -0.0874  0.0548
 6459TIP3    H240793   6.772   1.914   2.262 -1.4012 -0.7664  1.1496
 6460TIP3   OH240794   1.001   0.645  16.315 -0.2025 -0.5875 -0.0388
 6460TIP3    H140795   0.945   0.719  16.337  1.7016  0.1150  3.0978
 6460TIP3    H240796   1.053   0.675  16.241 -0.7219  0.5324  0.0391
 6461TIP3   OH240797   6.791   5.496  16.878  0.7919  0.2391 -0.1165
 6461TIP3    H140798   6.709   5.461  16.915  0.9774  0.3070  0.3586
 6461TIP3    H240799   6.764   5.537  16.796  0.5769 -1.1041 -0.7505
 6462TIP3   OH240800   2.376   5.015  11.514  0.2825  0.1367  0.1544
 6462TIP3    H140801   2.398   4.936  11.564  0.5473 -1.5534 -2.3919
 6462TIP3    H240802   2.281   5.014  11.508  0.3240 -0.5728 -0.6468
 6463TIP3   OH240803   4.865   3.526  16.137 -0.1715 -0.0264  0.0489
 6463TIP3    H140804   4.832   3.459  16.077 -0.1707  0.1071 -0.1013
 6463TIP3    H240805   4.909   3.476  16.207  0.8001 -0.1543 -0.6275
 6464TIP3   OH240806   1.320   3.676  12.278 -0.4709  0.3175  0.5149
 6464TIP3    H140807   1.405   3.685  12.234 -0.2458  0.2592  0.9380
 6464TIP3    H240808   1.336   3.704  12.368 -0.7102 -0.4419  0.8070
 6465TIP3   OH240809   4.563   1.528   2.436 -0.5584 -0.3160  0.0279
 6465TIP3    H140810   4.561   1.478   2.355 -0.9784 -0.0903 -0.1065
 6465TIP3    H240811   4.513   1.475   2.498  1.6030 -1.5787  0.8082
 6466TIP3   OH240812   1.130   4.220   2.878 -0.0247  0.0693  0.4190
 6466TIP3    H140813   1.172   4.298   2.914  2.3086 -1.3790  1.0407
 6466TIP3    H240814   1.201   4.168   2.842 -1.7931 -0.6282 -2.4070
 6467TIP3   OH240815   2.462   0.903  14.046  0.7316  0.0114 -0.0922
 6467TIP3    H140816   2.381   0.860  14.019  0.5314 -1.8538  2.9309
 6467TIP3    H240817   2.531   0.840  14.025  1.0797  0.4241 -0.2031
 6468TIP3   OH240818   2.681   4.871   2.041 -1.1388  0.5016 -0.2365
 6468TIP3    H140819   2.725   4.823   1.971  0.3134 -0.3111  1.1594
 6468TIP3    H240820   2.721   4.838   2.121 -2.0980  2.0550  0.9366
 6469TIP3   OH240821   3.432   3.796  11.241  0.1439 -0.0131 -0.3404
 6469TIP3    H140822   3.470   3.843  11.316 -0.4771  1.8064 -1.0935
 6469TIP3    H240823   3.485   3.824  11.166 -0.0458 -0.7897 -0.7723
 6470TIP3   OH240824   0.952   0.669  15.828 -0.2815 -0.0005 -0.2968
 6470TIP3    H140825   0.986   0.656  15.740 -0.2845 -0.1386 -0.2783
 6470TIP3    H240826   0.929   0.762  15.832  1.3366  0.4188  0.1261
 6471TIP3   OH240827   3.493   1.634  13.178 -0.0484 -0.0103  0.0629
 6471TIP3    H140828   3.441   1.651  13.256  0.7830  1.1555  0.3864
 6471TIP3    H240829   3.554   1.564  13.205 -0.1369 -0.0025  0.2852
 6472TIP3   OH240830   1.339   4.944  15.580  0.6111  0.3656 -0.1855
 6472TIP3    H140831   1.254   4.900  15.581  0.5206  0.4443 -1.7487
 6472TIP3    H240832   1.346   4.979  15.492  1.9629  0.9865  0.1506
 6473TIP3   OH240833   4.983   4.562  14.152 -0.2494 -0.2340  0.1330
 6473TIP3    H140834   4.957   4.486  14.203 -0.5030  0.6558  1.3781
 6473TIP3    H240835   5.066   4.590  14.192 -0.1900  0.1769 -0.2691
 6474TIP3   OH240836   5.278   3.846   0.305  0.0884 -0.0866 -0.2612
 6474TIP3    H140837   5.200   3.810   0.263 -0.4435 -0.2504  0.8476
 6474TIP3    H240838   5.278   3.809   0.393  0.8532  0.7230  0.0968
 6475TIP3   OH240839   2.804   3.019   1.959 -0.7992  0.0037  0.0414
 6475TIP3    H140840   2.753   2.956   1.908 -1.4760  0.4764  0.1221
 6475TIP3    H240841   2.894   2.984   1.958 -1.1026 -0.7857 -0.1820
 6476TIP3   OH240842   2.680   5.247  12.474  0.1066 -0.4617 -0.2150
 6476TIP3    H140843   2.679   5.342  12.466 -1.0804 -0.2648  1.5047
 6476TIP3    H240844   2.640   5.215  12.393  0.3465  0.5068 -0.7313
 6477TIP3   OH240845   2.153   2.400  15.960 -0.0994  0.3966 -0.2666
 6477TIP3    H140846   2.063   2.420  15.986  0.0591 -0.4817  1.0433
 6477TIP3    H240847   2.178   2.326  16.016  1.2422  0.2555 -1.0166
 6478TIP3   OH240848   5.476   6.258  14.727 -0.4997  0.5269  0.3906
 6478TIP3    H140849   5.551   6.287  14.676  0.0527 -1.1408  0.2001
 6478TIP3    H240850   5.446   6.337  14.772  0.2906  1.5885 -0.8624
 6479TIP3   OH240851   0.251   2.079  12.804  0.2025 -0.2772 -0.4394
 6479TIP3    H140852   0.274   2.075  12.711 -2.6846  0.1889 -1.2841
 6479TIP3    H240853   0.268   2.169  12.829 -0.6326  0.0644 -1.0460
 6480TIP3   OH240854   2.293   5.852   4.749  0.5044  0.4003  0.0279
 6480TIP3    H140855   2.356   5.881   4.684  0.7659 -0.5021 -0.1400
 6480TIP3    H240856   2.242   5.784   4.704  0.2690  0.2152  0.5655
 6481TIP3   OH240857   1.507   0.533   0.407  0.5276  0.4189 -0.0480
 6481TIP3    H140858   1.589   0.572   0.374  0.0163  1.2240 -0.4062
 6481TIP3    H240859   1.472   0.485   0.332  1.5567 -1.4788  0.6137
 6482TIP3   OH240860   5.688   0.518  16.394  0.3736 -0.2515  0.3120
 6482TIP3    H140861   5.661   0.432  16.361 -1.9741  0.6272 -0.2613
 6482TIP3    H240862   5.724   0.563  16.318 -0.6502  0.0981  0.0173
 6483TIP3   OH240863   2.267   5.317  12.222 -0.1059  0.4083  0.5840
 6483TIP3    H140864   2.174   5.338  12.230 -0.1277  0.1817  0.9780
 6483TIP3    H240865   2.280   5.244  12.283  0.6222  1.4054  1.6646
 6484TIP3   OH240866   0.565   3.545  15.351  0.0139  0.8463  0.6089
 6484TIP3    H140867   0.642   3.553  15.407  1.6617  1.6931 -1.6499
 6484TIP3    H240868   0.565   3.453  15.323  0.3957  0.9314  0.3342
 6485TIP3   OH240869   4.460   5.322   1.213  0.3582  0.0703  0.3076
 6485TIP3    H140870   4.448   5.244   1.159 -0.0510 -0.8776  1.7326
 6485TIP3    H240871   4.417   5.392   1.164  0.9388 -0.5273 -1.1041
 6486TIP3   OH240872   4.077   2.742  14.996  0.3577 -0.1941  0.4486
 6486TIP3    H140873   4.137   2.816  14.989 -0.4631  0.4919  0.4992
 6486TIP3    H240874   4.001   2.768  14.945 -1.1298  0.2183  2.7500
 6487TIP3   OH240875   5.071   3.707  13.691  1.0975  0.0832  0.3988
 6487TIP3    H140876   5.134   3.720  13.762  4.4695 -0.1010 -2.3245
 6487TIP3    H240877   5.033   3.794  13.677 -0.3076 -0.0263  2.8223
 6488TIP3   OH240878   1.039   4.325   2.361  0.0599  0.1895 -0.5611
 6488TIP3    H140879   1.049   4.243   2.313  0.2188  0.5558 -1.1729
 6488TIP3    H240880   1.119   4.373   2.343  1.0735 -0.4973  1.8002
 6489TIP3   OH240881   4.812   3.104   4.489 -0.3937 -0.1911  0.9913
 6489TIP3    H140882   4.751   3.045   4.444 -0.2066 -0.2084  0.7594
 6489TIP3    H240883   4.814   3.183   4.434  0.3901 -0.4888  0.5757
 6490TIP3   OH240884   1.691   0.321   4.024  0.3532 -0.0590  0.0443
 6490TIP3    H140885   1.623   0.370   4.070 -0.2113  1.7262 -2.4926
 6490TIP3    H240886   1.773   0.355   4.061 -0.0756  1.3843 -0.2731
 6491TIP3   OH240887   3.630   5.766   4.894 -0.2595 -0.2699  0.5287
 6491TIP3    H140888   3.643   5.731   4.806  3.3563  0.5141  0.5820
 6491TIP3    H240889   3.554   5.719   4.927  0.6601 -3.6233 -1.5659
 6492TIP3   OH240890   3.814   1.131  15.398 -0.1495 -0.4772 -0.0156
 6492TIP3    H140891   3.718   1.135  15.395 -0.1404 -0.1437  0.1066
 6492TIP3    H240892   3.833   1.078  15.476 -0.2131  1.8630  1.7035
 6493TIP3   OH240893   2.817   2.968  10.493 -0.1243 -0.1523 -0.4200
 6493TIP3    H140894   2.912   2.973  10.485  0.0957  0.2498  1.7312
 6493TIP3    H240895   2.791   3.053  10.530 -1.5470  0.3484 -2.3876
 6494TIP3   OH240896   1.684   2.829   5.429  0.0837  0.3005  0.1792
 6494TIP3    H140897   1.689   2.798   5.520 -0.6536 -0.0128  0.1226
 6494TIP3    H240898   1.720   2.917   5.431 -0.5348  0.5497  0.9120
 6495TIP3   OH240899   6.290   3.154   4.058  0.7396 -0.0103 -0.2713
 6495TIP3    H140900   6.208   3.106   4.067  1.3738 -1.3684 -1.3253
 6495TIP3    H240901   6.303   3.195   4.143  0.0183 -1.5159  0.6123
 6496TIP3   OH240902   3.112   6.667   4.142  0.0001 -0.6023 -0.6113
 6496TIP3    H140903   3.120   6.571   4.134 -2.2356 -0.7522 -2.0803
 6496TIP3    H240904   3.041   6.689   4.081  0.9014  2.0883 -0.7745
 6497TIP3   OH240905   5.488   3.896  15.760 -0.0300  0.4842  0.4069
 6497TIP3    H140906   5.514   3.953  15.832  1.1491 -0.8865  1.1284
 6497TIP3    H240907   5.457   3.816  15.803 -0.8630  0.2537 -0.5847
 6498TIP3   OH240908   0.521   1.227   6.178  0.0080  0.5039 -0.0925
 6498TIP3    H140909   0.596   1.219   6.119  0.7727 -2.1856  1.0535
 6498TIP3    H240910   0.559   1.251   6.262 -1.0396  4.0269 -0.4768
 6499TIP3   OH240911   0.762   3.769  11.962  0.0230  0.5090  0.4151
 6499TIP3    H140912   0.731   3.679  11.968  1.1098  0.1700  1.3566
 6499TIP3    H240913   0.744   3.807  12.048 -1.2875  1.5054 -0.2698
 6500TIP3   OH240914   0.764   4.555   4.119  0.4665  0.3327 -0.1293
 6500TIP3    H140915   0.709   4.478   4.104 -1.1472  1.1905  1.0835
 6500TIP3    H240916   0.849   4.531   4.082 -0.4492 -1.3892 -1.2676
 6501TIP3   OH240917   4.771   4.246  11.998 -0.1852 -0.1532  0.0919
 6501TIP3    H140918   4.754   4.242  12.092 -1.4811  2.4951  0.0420
 6501TIP3    H240919   4.685   4.232  11.957  0.1490 -0.0345 -0.6765
 6502TIP3   OH240920   3.220   6.519   1.103 -0.0946  0.1715  0.2221
 6502TIP3    H140921   3.159   6.449   1.127 -0.7449  0.8732  0.6570
 6502TIP3    H240922   3.190   6.549   1.018  0.2630 -0.1513 -0.0241
 6503TIP3   OH240923   6.026   6.064  11.702  0.5289  0.4927 -0.2975
 6503TIP3    H140924   6.002   6.042  11.612  2.3019  1.2271 -0.9864
 6503TIP3    H240925   6.118   6.037  11.709  0.6886  1.3251  0.9875
 6504TIP3   OH240926   4.847   2.442  10.800  0.4879  0.1046 -0.0023
 6504TIP3    H140927   4.801   2.361  10.778 -0.8360  1.2607 -1.7385
 6504TIP3    H240928   4.913   2.415  10.864 -1.3276 -1.9644  1.1455
 6505TIP3   OH240929   2.248   4.419   1.826  0.3884  0.2117  0.7031
 6505TIP3    H140930   2.336   4.456   1.830 -0.2600  1.9466 -0.1755
 6505TIP3    H240931   2.222   4.429   1.734 -0.7473 -0.2060  0.9669
 6506TIP3   OH240932   1.604   4.957   4.650  0.1335  0.0475 -0.2196
 6506TIP3    H140933   1.607   4.910   4.733  1.4029 -2.0321 -1.3438
 6506TIP3    H240934   1.690   5.000   4.644  0.1602 -0.0533 -0.5721
 6507TIP3   OH240935   4.400   3.276  15.889 -0.3894 -0.6954  0.2032
 6507TIP3    H140936   4.367   3.193  15.923 -1.1896 -1.4287 -2.2042
 6507TIP3    H240937   4.483   3.254  15.847  1.2139  0.4104  2.5323
 6508TIP3   OH240938   6.086   2.892  14.619 -0.6145 -0.4159  0.0384
 6508TIP3    H140939   6.076   2.964  14.681  1.5259  0.5366 -0.6253
 6508TIP3    H240940   6.157   2.839  14.656 -0.9282 -1.1603 -0.4095
 6509TIP3   OH240941   1.339   6.108   0.532  0.4150 -0.1742  0.4566
 6509TIP3    H140942   1.308   6.101   0.441 -0.6732 -0.6529  0.8435
 6509TIP3    H240943   1.397   6.184   0.531 -1.8783  1.7070 -0.0644
 6510TIP3   OH240944   2.873   3.978   5.931  0.4468  0.8193  0.2105
 6510TIP3    H140945   2.861   3.884   5.917 -0.4619  0.5765  2.1721
 6510TIP3    H240946   2.807   4.019   5.875  0.4282  0.2495 -0.1969
 6511TIP3   OH240947   1.373   6.445   3.168 -0.1093  0.7663  0.3553
 6511TIP3    H140948   1.352   6.353   3.151 -0.2260  0.5779  1.4324
 6511TIP3    H240949   1.406   6.478   3.084 -1.6588  0.2118 -0.5274
 6512TIP3   OH240950   4.032   4.533  12.069 -0.1640 -0.0809  0.7107
 6512TIP3    H140951   4.054   4.616  12.112  0.5278 -0.2847  0.7670
 6512TIP3    H240952   3.941   4.544  12.041 -0.1571  0.6068  0.9271
 6513TIP3   OH240953   4.429   2.932   1.392  0.1172 -0.0408 -0.0374
 6513TIP3    H140954   4.380   2.981   1.325 -0.8917  0.5901  1.1127
 6513TIP3    H240955   4.436   2.844   1.357  0.5724  0.5199 -1.4531
 6514TIP3   OH240956   3.333   4.970   3.719  1.1470  0.1632  0.3386
 6514TIP3    H140957   3.383   4.894   3.690  1.5349  0.5737 -0.0863
 6514TIP3    H240958   3.397   5.026   3.764  0.9838  0.4908  0.1689
 6515TIP3   OH240959   1.317   0.471   5.435  0.5871  0.3543 -0.0715
 6515TIP3    H140960   1.394   0.420   5.412  0.6571  0.6395 -0.4973
 6515TIP3    H240961   1.256   0.408   5.473 -0.0241 -0.4113 -2.1589
 6516TIP3   OH240962   6.713   4.020  10.668  0.9591 -0.4569 -0.0847
 6516TIP3    H140963   6.709   3.965  10.746  0.9671  0.3624  0.5095
 6516TIP3    H240964   6.642   4.084  10.680  0.1147 -1.1147 -1.3730
 6517TIP3   OH240965   6.172   4.817  16.545 -0.5664 -0.1261 -0.4004
 6517TIP3    H140966   6.155   4.768  16.625 -0.1668 -1.4859 -1.1208
 6517TIP3    H240967   6.233   4.886  16.572 -0.9042 -0.1851  0.5729
 6518TIP3   OH240968   1.289   6.522  12.876 -0.1879 -0.1642  0.2823
 6518TIP3    H140969   1.204   6.528  12.832 -0.3807 -1.5746  0.3973
 6518TIP3    H240970   1.338   6.458  12.825  1.3480  1.5934 -0.5655
 6519TIP3   OH240971   2.535   0.883   1.120  0.6499 -0.4969 -0.3671
 6519TIP3    H140972   2.506   0.863   1.209 -0.2855 -0.6396 -0.6948
 6519TIP3    H240973   2.495   0.968   1.101  0.7946 -0.4987 -0.6719
 6520TIP3   OH240974   2.229   0.179  15.756 -0.2152 -0.0703  0.2287
 6520TIP3    H140975   2.162   0.246  15.741 -1.3929 -1.1727  0.2966
 6520TIP3    H240976   2.188   0.098  15.724  1.0577 -0.7991  0.3837
 6521TIP3   OH240977   1.987   0.729  15.018 -0.1665 -0.1569 -0.4272
 6521TIP3    H140978   1.928   0.752  14.947 -1.1586  1.1639  0.7854
 6521TIP3    H240979   2.058   0.793  15.012 -0.0151 -0.3258 -0.4786
 6522TIP3   OH240980   2.865   1.793  14.833 -0.5788 -0.2348 -0.5422
 6522TIP3    H140981   2.958   1.809  14.821 -0.9054  1.6090 -0.8656
 6522TIP3    H240982   2.853   1.700  14.810  1.1603 -0.5062 -0.4368
 6523TIP3   OH240983   6.249   5.080  15.122  0.2151  0.1342  0.0174
 6523TIP3    H140984   6.196   5.064  15.044 -0.2889  1.5273  0.0542
 6523TIP3    H240985   6.319   5.015  15.117 -1.7970 -2.1977  0.2869
 6524TIP3   OH240986   3.292   2.056   4.901  0.3213 -0.0894 -0.2005
 6524TIP3    H140987   3.279   1.994   4.829 -1.5887 -1.2645  1.0728
 6524TIP3    H240988   3.218   2.115   4.896  2.6537  3.0177 -2.0713
 6525TIP3   OH240989   4.531   5.517  15.030  0.1775 -0.7618 -0.0496
 6525TIP3    H140990   4.541   5.546  14.940  1.2639 -1.0243 -0.0251
 6525TIP3    H240991   4.498   5.428  15.023 -0.0646 -0.6656 -0.1714
 6526TIP3   OH240992   6.698   0.166   5.513  0.1690  0.0215  0.6013
 6526TIP3    H140993   6.628   0.103   5.494  0.3689 -0.0631  0.1058
 6526TIP3    H240994   6.706   0.217   5.432 -1.6857  2.3927  1.7967
 6527TIP3   OH240995   6.436   0.926   1.735 -0.0188  0.4031  0.1072
 6527TIP3    H140996   6.383   0.902   1.810  0.0898  0.0043  0.0642
 6527TIP3    H240997   6.518   0.877   1.747 -0.2056 -0.1009 -0.5398
 6528TIP3   OH240998   6.802   2.680  13.366 -0.2620  0.3351 -0.4051
 6528TIP3    H140999   6.817   2.586  13.366 -0.8132  0.2399 -1.3211
 6528TIP3    H241000   6.717   2.691  13.325 -0.0764  1.2512 -0.5642
 6529TIP3   OH241001   2.596   6.141  12.280 -0.2009  0.4769  0.9060
 6529TIP3    H141002   2.612   6.192  12.360  1.9466  0.5906  0.4484
 6529TIP3    H241003   2.645   6.060  12.292 -1.0372 -0.1421  0.2931
 6530TIP3   OH241004   0.567   2.355   2.420 -0.0464 -0.0049 -0.7954
 6530TIP3    H141005   0.614   2.352   2.504 -3.2503 -1.1439  1.1341
 6530TIP3    H241006   0.524   2.440   2.419 -0.8694 -0.4044 -0.7283
 6531TIP3   OH241007   3.534   3.933   2.601 -0.8142 -0.2151 -0.6260
 6531TIP3    H141008   3.610   3.955   2.548  1.9415 -0.7465  2.7831
 6531TIP3    H241009   3.503   4.017   2.635  0.2940 -0.2080  0.4427
 6532TIP3   OH241010   5.228   3.312  14.612  0.4492  0.1858  0.2403
 6532TIP3    H141011   5.299   3.273  14.562  0.3080 -1.6042  1.3529
 6532TIP3    H241012   5.224   3.260  14.692 -1.9308  0.3939  0.3211
 6533TIP3   OH241013   6.184   4.734  10.684 -0.5642  0.2999 -0.0740
 6533TIP3    H141014   6.237   4.723  10.763 -0.3429 -2.3898 -0.5043
 6533TIP3    H241015   6.244   4.716  10.612 -1.8957 -2.7506 -0.5799
 6534TIP3   OH241016   2.487   3.658   4.001  0.0765 -0.0022  0.4257
 6534TIP3    H141017   2.486   3.578   4.054 -0.4844 -0.9306 -0.9327
 6534TIP3    H241018   2.402   3.698   4.016  0.4574  0.5169  1.3171
 6535TIP3   OH241019   4.797   4.109  13.246 -0.6210 -0.5749  0.5389
 6535TIP3    H141020   4.838   4.048  13.185  3.3247  0.0885  2.2461
 6535TIP3    H241021   4.756   4.053  13.312 -0.3426 -1.3460  0.0735
 6536TIP3   OH241022   0.280   5.561  12.313 -0.0999  0.1881  0.4594
 6536TIP3    H141023   0.213   5.555  12.245  1.2208 -1.4386 -0.7837
 6536TIP3    H241024   0.363   5.560  12.265  0.8605  1.1006  2.0029
 6537TIP3   OH241025   2.082   3.421  16.309  0.1263 -0.2508 -0.5111
 6537TIP3    H141026   2.112   3.511  16.291  0.0751 -0.3323 -1.0231
 6537TIP3    H241027   2.157   3.366  16.284  0.5720 -0.2898  0.8565
 6538TIP3   OH241028   5.145   6.482   2.024  0.1528  0.2560  0.6114
 6538TIP3    H141029   5.093   6.482   1.944  0.2276 -0.7087  0.5482
 6538TIP3    H241030   5.227   6.439   2.000  0.2278  0.0709  1.1722
 6539TIP3   OH241031   2.680   3.606   2.700 -0.8071 -0.1845 -0.8786
 6539TIP3    H141032   2.735   3.621   2.624  0.6681 -0.1627  0.1541
 6539TIP3    H241033   2.710   3.523   2.736 -0.3519  0.5805  0.5877
 6540TIP3   OH241034   2.200   0.381  15.473 -0.1372 -0.6194 -0.3364
 6540TIP3    H141035   2.209   0.289  15.499  1.3136 -0.7055 -1.0235
 6540TIP3    H241036   2.232   0.383  15.383 -0.5335  0.5020 -0.4622
 6541TIP3   OH241037   5.882   5.848   2.534  0.5174  0.7264 -0.0412
 6541TIP3    H141038   5.798   5.802   2.533 -0.8050  3.0098 -1.0693
 6541TIP3    H241039   5.942   5.791   2.486 -0.9825 -0.0119 -1.0745
 6542TIP3   OH241040   3.122   5.511   3.475 -0.3113 -0.5237 -0.2553
 6542TIP3    H141041   3.049   5.453   3.495  0.3051 -1.2982 -0.2273
 6542TIP3    H241042   3.084   5.599   3.476 -1.3593 -0.9602 -0.8052
 6543TIP3   OH241043   5.667   5.295   1.372  0.6535  0.3902  0.2205
 6543TIP3    H141044   5.694   5.224   1.431  0.4566  0.5169  0.4649
 6543TIP3    H241045   5.749   5.339   1.350  0.8097 -0.0815 -0.1522
 6544TIP3   OH241046   5.817   1.547  14.836 -0.0914  0.1531  0.5983
 6544TIP3    H141047   5.729   1.522  14.865 -0.2129  0.9128  0.8864
 6544TIP3    H241048   5.844   1.474  14.780 -1.4090  0.5029 -0.5418
 6545TIP3   OH241049   2.693   6.691  12.878 -0.6196 -0.0529  0.1342
 6545TIP3    H141050   2.619   6.752  12.882  1.0150  2.0174  2.7821
 6545TIP3    H241051   2.670   6.622  12.940 -0.0905  1.0479  1.6338
 6546TIP3   OH241052   5.272   4.568   2.191 -0.1337  0.5596 -0.7103
 6546TIP3    H141053   5.261   4.611   2.275 -1.0747  0.4593 -0.7697
 6546TIP3    H241054   5.367   4.563   2.178  0.0044  2.1011 -0.4484
 6547TIP3   OH241055   2.598   5.030   1.676 -0.0559 -0.2126  0.0578
 6547TIP3    H141056   2.630   5.054   1.763 -0.4133 -1.2045  0.4872
 6547TIP3    H241057   2.511   4.993   1.692 -0.6521  0.7300 -0.8711
 6548TIP3   OH241058   0.767   5.121  16.337 -0.1785 -0.0403 -0.0189
 6548TIP3    H141059   0.808   5.101  16.421  2.5148  0.5298 -1.0718
 6548TIP3    H241060   0.732   5.209  16.347  0.0376 -0.0143  0.5541
 6549TIP3   OH241061   6.574   4.351   1.229 -0.1487 -0.1324 -0.4213
 6549TIP3    H141062   6.621   4.268   1.234  0.3072  0.0742 -1.0483
 6549TIP3    H241063   6.506   4.345   1.295  0.9166 -0.3503  0.6802
 6550TIP3   OH241064   4.694   4.000   4.941  0.0723 -0.2520  0.0076
 6550TIP3    H141065   4.608   3.959   4.930 -0.5035  0.4636  1.5619
 6550TIP3    H241066   4.754   3.942   4.894 -1.5382  0.5547 -3.3552
 6551TIP3   OH241067   2.562   2.898  10.630  0.2792  0.4550  0.9995
 6551TIP3    H141068   2.625   2.907  10.558  0.6851  1.1755  1.4349
 6551TIP3    H241069   2.478   2.884  10.586  0.7666 -0.8338  0.4117
 6552TIP3   OH241070   0.532   6.771  11.662 -0.3519 -0.5949 -0.5610
 6552TIP3    H141071   0.497   6.818  11.738  1.3668 -0.6666  0.3120
 6552TIP3    H241072   0.524   6.679  11.686 -2.1062 -0.7500 -1.5506
 6553TIP3   OH241073   1.101   2.741   3.193  0.0231 -0.4379  0.2867
 6553TIP3    H141074   1.104   2.646   3.180  0.3307 -0.4510  0.4520
 6553TIP3    H241075   1.115   2.777   3.105  2.1170 -0.5275  0.5210
 6554TIP3   OH241076   2.666   0.734  14.006  0.0593  0.0108  0.0747
 6554TIP3    H141077   2.736   0.693  14.057 -0.5902  0.1017  1.0467
 6554TIP3    H241078   2.702   0.739  13.917  0.1916 -2.6302 -0.1096
 6555TIP3   OH241079   2.632   6.655  11.850  0.2536 -0.2325 -0.1944
 6555TIP3    H141080   2.717   6.625  11.817 -0.4210  0.5379 -2.8744
 6555TIP3    H241081   2.596   6.708  11.779 -2.3221 -0.2081  1.0170
 6556TIP3   OH241082   4.717   1.951   2.671  0.1295 -0.3795  0.6593
 6556TIP3    H141083   4.783   1.885   2.652 -0.2493 -0.3731 -0.8685
 6556TIP3    H241084   4.644   1.901   2.708 -0.2519 -0.8972 -0.7146
 6557TIP3   OH241085   0.343   1.540   4.910  0.1846 -0.5896  0.2421
 6557TIP3    H141086   0.275   1.473   4.918 -1.8113  1.3934  0.8635
 6557TIP3    H241087   0.407   1.502   4.850 -1.5187 -2.5196 -0.4742
 6558TIP3   OH241088   2.742   2.413  11.159 -0.5326  0.1331  0.0200
 6558TIP3    H141089   2.702   2.469  11.093  1.1960  1.0605 -0.2932
 6558TIP3    H241090   2.753   2.328  11.115 -1.9157 -0.0877  0.0555
 6559TIP3   OH241091   4.205   1.598   3.318 -0.7498  0.9284  0.0955
 6559TIP3    H141092   4.216   1.505   3.336 -0.1582  0.7936 -0.8953
 6559TIP3    H241093   4.116   1.618   3.350 -1.2292 -0.1764 -0.4960
 6560TIP3   OH241094   0.683   4.784   1.735  0.4217  0.2927  0.3857
 6560TIP3    H141095   0.725   4.862   1.769 -1.8464  1.3410  0.9910
 6560TIP3    H241096   0.743   4.713   1.756  0.9949  1.4199  2.9466
 6561TIP3   OH241097   4.058   3.876  10.950  0.0144 -0.1035  0.2644
 6561TIP3    H141098   4.097   3.791  10.934  0.0381  0.4756 -3.8630
 6561TIP3    H241099   3.966   3.857  10.970  0.2921 -1.1112  0.6298
 6562TIP3   OH241100   4.988   1.052   1.731 -0.1044 -0.3642  0.0264
 6562TIP3    H141101   4.952   1.134   1.697  1.5213 -0.7102 -2.8573
 6562TIP3    H241102   5.082   1.068   1.738  0.0781 -1.5817  0.7237
 6563TIP3   OH241103   1.775   5.888   2.072  0.1150  0.7237  0.3109
 6563TIP3    H141104   1.730   5.933   2.000  1.6585 -0.6061 -1.5926
 6563TIP3    H241105   1.862   5.928   2.075  0.0967  0.7153  1.4334
 6564TIP3   OH241106   1.380   3.294   4.901  0.6477  0.8182  0.2777
 6564TIP3    H141107   1.370   3.207   4.861 -1.5974  1.6750 -1.2388
 6564TIP3    H241108   1.343   3.285   4.989  0.9739  0.0942  0.3419
 6565TIP3   OH241109   6.042   1.381  14.742 -0.1065  0.1813  0.0121
 6565TIP3    H141110   6.008   1.361  14.655 -2.1878 -0.8016  0.9823
 6565TIP3    H241111   6.096   1.459  14.730  0.2500 -0.3559 -2.2573
 6566TIP3   OH241112   1.497   0.195   1.413 -0.3691 -0.4785 -0.5272
 6566TIP3    H141113   1.452   0.268   1.370  1.7891  1.1623 -0.1751
 6566TIP3    H241114   1.476   0.206   1.506 -0.5264 -0.6782 -0.5383
 6567TIP3   OH241115   6.036   6.657  14.681  0.1193  0.3723 -0.2268
 6567TIP3    H141116   5.960   6.609  14.716 -1.0356  0.2827 -2.6819
 6567TIP3    H241117   6.014   6.674  14.590  2.5418  1.4981 -0.6770
 6568TIP3   OH241118   4.679   2.736   5.293  0.5196  0.6870 -0.6910
 6568TIP3    H141119   4.756   2.783   5.260  0.3514  0.8716 -0.8256
 6568TIP3    H241120   4.715   2.660   5.338  0.8218  1.2521  0.0370
 6569TIP3   OH241121   3.605   4.671  12.735 -0.0218  0.2920  0.5245
 6569TIP3    H141122   3.546   4.712  12.671 -0.0058  0.1265  0.4046
 6569TIP3    H241123   3.693   4.693  12.704 -0.0005  2.2414  1.7771
 6570TIP3   OH241124   5.135   0.799  11.284 -0.3633 -0.0687  0.6527
 6570TIP3    H141125   5.110   0.732  11.219 -0.3796  1.6529 -1.2125
 6570TIP3    H241126   5.215   0.765  11.323 -0.5839 -1.3724  0.0353
 6571TIP3   OH241127   6.373   4.784  14.718  0.1181 -0.2888 -0.2932
 6571TIP3    H141128   6.339   4.699  14.748 -0.7651 -0.5353 -1.9032
 6571TIP3    H241129   6.453   4.762  14.670  0.4882 -0.0900  0.2284
 6572TIP3   OH241130   0.582   3.618  13.048 -0.3334  0.5537 -0.3462
 6572TIP3    H141131   0.544   3.652  12.967  0.1113  0.6049 -0.5377
 6572TIP3    H241132   0.558   3.682  13.115  0.7167  1.4000 -0.7471
 6573TIP3   OH241133   4.677   5.367   2.060 -0.2817  0.1185  0.2891
 6573TIP3    H141134   4.651   5.370   1.968 -1.3775  0.8606  0.6122
 6573TIP3    H241135   4.618   5.428   2.104 -2.3895 -2.9678  2.1141
 6574TIP3   OH241136   1.646   3.179  15.521 -0.2138  0.2343 -0.5314
 6574TIP3    H141137   1.624   3.271  15.537  0.5895  0.5148 -1.0179
 6574TIP3    H241138   1.665   3.174  15.427 -0.3708 -0.4591 -0.5381
 6575TIP3   OH241139   0.394   3.402  16.522  0.3382 -0.0994  0.4434
 6575TIP3    H141140   0.383   3.309  16.502  1.0673 -0.0570 -0.1694
 6575TIP3    H241141   0.472   3.406  16.577  2.1107  0.4346 -1.9968
 6576TIP3   OH241142   4.827   4.410  13.778  0.1528 -0.1456 -1.0827
 6576TIP3    H141143   4.869   4.435  13.696  2.0144 -0.3013 -0.2108
 6576TIP3    H241144   4.893   4.423  13.845 -1.7137  1.1744  0.6223
 6577TIP3   OH241145   2.510   5.224  16.418  0.1992  0.1159 -0.1883
 6577TIP3    H141146   2.492   5.183  16.333 -2.6754  1.1018 -0.1980
 6577TIP3    H241147   2.578   5.170  16.457 -0.4339 -2.1053 -1.9180
 6578TIP3   OH241148   0.068   3.347  14.743  0.2135  0.3139 -0.6130
 6578TIP3    H141149   0.060   3.290  14.667  1.3574  0.5485 -0.9253
 6578TIP3    H241150  -0.012   3.400  14.741 -1.3822 -1.9003  0.2622
 6579TIP3   OH241151   4.300   0.285   0.701  0.3412  0.5363  0.3722
 6579TIP3    H141152   4.286   0.204   0.652  0.6153  0.8469 -0.2239
 6579TIP3    H241153   4.281   0.261   0.792  1.7596 -0.5475  0.4065
 6580TIP3   OH241154   4.375   0.451   4.900  0.2062  0.0160  0.0125
 6580TIP3    H141155   4.355   0.398   4.823 -1.4889 -0.6548  0.8640
 6580TIP3    H241156   4.349   0.539   4.875 -0.8592 -0.2961 -0.0044
 6581TIP3   OH241157   0.927   6.703   1.663 -0.4846 -0.3139  0.5231
 6581TIP3    H141158   1.021   6.708   1.676 -0.6309 -1.5337  2.5712
 6581TIP3    H241159   0.890   6.718   1.750 -2.2342  0.7414 -0.3411
 6582TIP3   OH241160   5.924   3.768  13.006 -0.2372 -0.0514 -0.2891
 6582TIP3    H141161   5.916   3.673  13.015 -2.4993  0.0011 -1.0521
 6582TIP3    H241162   5.942   3.782  12.913 -1.1427  0.2929 -0.4217
 6583TIP3   OH241163   0.921   6.061   2.897  0.5631  0.1261 -0.1323
 6583TIP3    H141164   0.879   6.113   2.829 -0.4677 -0.2916  0.1741
 6583TIP3    H241165   1.010   6.045   2.864 -1.1778 -4.1066 -3.7010
 6584TIP3   OH241166   3.909   4.410  16.129  0.1014  0.1156 -0.8548
 6584TIP3    H141167   3.813   4.410  16.127  0.0902 -1.1422 -0.8773
 6584TIP3    H241168   3.932   4.361  16.208  0.7470  1.5277 -0.1235
 6585TIP3   OH241169   2.851   2.111  14.111 -0.3418 -0.3494 -0.1735
 6585TIP3    H141170   2.837   2.156  14.027  0.0928  0.5242  0.2102
 6585TIP3    H241171   2.917   2.045  14.092 -1.8311 -1.6395 -1.0159
 6586TIP3   OH241172   2.263   4.838  16.360  0.6455 -0.7952  0.5599
 6586TIP3    H141173   2.265   4.899  16.434 -0.9346  0.2035 -0.1768
 6586TIP3    H241174   2.283   4.893  16.284  3.9080 -2.0800  0.3151
 6587TIP3   OH241175   4.735   4.848   5.375 -0.1384  0.4257 -0.4647
 6587TIP3    H141176   4.765   4.781   5.437  2.2346  1.2304 -0.6372
 6587TIP3    H241177   4.706   4.798   5.299  2.0512 -0.4532 -0.7935
 6588TIP3   OH241178   2.310   0.507  14.435 -0.6513  0.6943 -0.3882
 6588TIP3    H141179   2.313   0.569  14.363  0.7970  0.7671 -0.3024
 6588TIP3    H241180   2.252   0.437  14.405 -0.7307  1.1334 -1.2725
 6589TIP3   OH241181   2.903   6.590  11.242 -0.6904  0.5296 -0.6216
 6589TIP3    H141182   2.886   6.645  11.318 -0.5289  1.8644 -1.5083
 6589TIP3    H241183   2.990   6.553  11.258 -1.3059 -0.4621  0.5415
 6590TIP3   OH241184   6.267   2.080  11.084  0.0211  0.1080  0.0213
 6590TIP3    H141185   6.263   1.989  11.052  0.9708  0.1496 -0.2268
 6590TIP3    H241186   6.360   2.101  11.087 -0.0597  0.4410  1.9114
 6591TIP3   OH241187   5.910   5.070   2.704 -0.2341 -0.2587 -0.5676
 6591TIP3    H141188   5.867   5.056   2.619  0.0010 -0.5733 -0.6396
 6591TIP3    H241189   5.992   5.019   2.697 -1.3360 -2.3513  0.7571
 6592TIP3   OH241190   1.526   4.131   2.581 -0.3830  0.3342  0.0538
 6592TIP3    H141191   1.542   4.225   2.574  0.2449  0.2435  0.1580
 6592TIP3    H241192   1.594   4.091   2.527 -0.3066 -0.0788  0.4491
 6593TIP3   OH241193   1.209   3.366   5.660 -0.0731 -0.1191 -0.1557
 6593TIP3    H141194   1.263   3.300   5.704  0.8785  0.7478  0.0213
 6593TIP3    H241195   1.177   3.422   5.731 -0.2411  0.0574 -0.3693
 6594TIP3   OH241196   0.215   3.715  11.164 -0.0758 -0.5877 -0.0602
 6594TIP3    H141197   0.299   3.761  11.169 -0.0746 -0.5396 -0.4623
 6594TIP3    H241198   0.209   3.687  11.072  0.6261 -2.7439  0.5108
 6595TIP3   OH241199   5.383   2.410  16.273 -0.0990  0.0582 -0.3482
 6595TIP3    H141200   5.474   2.383  16.259  0.9120  2.6370  0.6355
 6595TIP3    H241201   5.336   2.372  16.199  2.0193 -0.2890 -1.6186
 6596TIP3   OH241202   1.863   3.304  13.014 -0.0313  0.3150 -0.3440
 6596TIP3    H141203   1.812   3.257  13.080  0.0772  0.0505 -0.4469
 6596TIP3    H241204   1.807   3.306  12.937  0.6031 -1.1081 -0.8712
 6597TIP3   OH241205   0.093   4.676   3.151  0.0745  0.5514  0.3652
 6597TIP3    H141206   0.063   4.596   3.192  1.6158 -0.8477 -1.0779
 6597TIP3    H241207   0.032   4.691   3.079 -0.6500  1.1200  1.0831
 6598TIP3   OH241208   6.592   0.935  12.602 -0.1654 -0.0495  0.6316
 6598TIP3    H141209   6.641   0.905  12.525  2.1546  0.9416  1.6313
 6598TIP3    H241210   6.588   1.030  12.593 -1.9580 -0.0851  0.6230
 6599TIP3   OH241211   4.234   0.954  16.743  0.0447  0.3240 -0.1274
 6599TIP3    H141212   4.299   1.008  16.788  0.8403 -0.0966 -0.7624
 6599TIP3    H241213   4.226   0.992  16.656  1.5728 -1.3106 -1.0352
 6600TIP3   OH241214   6.209   4.097   4.707  0.2015 -0.2966  0.3666
 6600TIP3    H141215   6.270   4.166   4.680  0.4138 -0.4018  0.5739
 6600TIP3    H241216   6.205   4.037   4.633 -1.2417  0.7790 -0.4824
 6601TIP3   OH241217   4.847   2.244   1.557 -0.2335  0.1624  0.0885
 6601TIP3    H141218   4.858   2.302   1.482  0.4911  0.7211  0.6105
 6601TIP3    H241219   4.845   2.303   1.632  1.2116 -0.4986  0.6950
 6602TIP3   OH241220   1.272   6.437  15.613  0.0170 -0.6127  0.1404
 6602TIP3    H141221   1.325   6.512  15.640 -2.0457 -0.0414  3.0274
 6602TIP3    H241222   1.336   6.368  15.593  1.8690  1.0065  0.2515
 6603TIP3   OH241223   1.055   2.827   0.657  0.2895  0.1952 -0.6263
 6603TIP3    H141224   1.078   2.850   0.747  0.5997 -0.9616 -0.3934
 6603TIP3    H241225   1.125   2.865   0.604  2.6718 -2.8947  0.0339
 6604TIP3   OH241226   4.275   5.824   1.214  0.0742 -0.2507  0.1914
 6604TIP3    H141227   4.323   5.900   1.247 -3.0029  1.5321  1.0152
 6604TIP3    H241228   4.321   5.799   1.134  1.6545  2.0003  0.3003
 6605TIP3   OH241229   5.616   1.114  13.240 -0.6386 -0.1407 -0.3270
 6605TIP3    H141230   5.688   1.066  13.199 -1.4421 -1.8109  0.1323
 6605TIP3    H241231   5.604   1.191  13.184  2.3765  0.9658  0.3291
 6606TIP3   OH241232   1.664   2.727  11.617  0.2666 -0.1929 -0.2847
 6606TIP3    H141233   1.656   2.796  11.682  0.9947 -0.3007 -0.0657
 6606TIP3    H241234   1.745   2.748  11.570 -0.0821 -0.2919 -0.9494
 6607TIP3   OH241235   2.747   1.506  15.450 -0.4080  0.2275 -0.4950
 6607TIP3    H141236   2.735   1.490  15.357 -2.1337  0.5690 -0.3566
 6607TIP3    H241237   2.757   1.601  15.458  0.3020  0.1529 -0.3669
 6608TIP3   OH241238   0.037   0.012  11.198  0.1654 -0.5562  0.2417
 6608TIP3    H141239   0.130   0.006  11.179 -0.1097  0.3021 -1.5860
 6608TIP3    H241240   0.008  -0.079  11.206  1.4188 -0.8279  2.4841
 6609TIP3   OH241241   0.117   6.072  13.309  0.0896  0.2729 -0.2667
 6609TIP3    H141242   0.145   6.037  13.224  0.7407 -2.4432  0.9757
 6609TIP3    H241243   0.021   6.064  13.307  0.1658 -0.8578 -0.3658
 6610TIP3   OH241244   3.026   3.278  16.934 -0.1216  0.2747  0.3991
 6610TIP3    H141245   3.023   3.346  16.868 -1.9025  0.8054  0.9692
 6610TIP3    H241246   3.023   3.325  17.018 -0.9603 -0.4709  0.8042
 6611TIP3   OH241247   6.503   0.360   6.195  0.3306 -0.5809 -0.9351
 6611TIP3    H141248   6.497   0.396   6.106 -1.4907  0.4862 -0.4427
 6611TIP3    H241249   6.412   0.353   6.224  0.6751 -3.8456 -0.2449
 6612TIP3   OH241250   1.308   0.161  15.383  0.2145 -0.2883  0.7681
 6612TIP3    H141251   1.363   0.109  15.324  1.0028  1.1042  0.2486
 6612TIP3    H241252   1.240   0.198  15.327  0.6640  0.6221  0.8063
 6613TIP3   OH241253   4.502   6.649   3.706  0.0011  0.4089  0.1685
 6613TIP3    H141254   4.499   6.636   3.611 -0.6942 -1.9718  0.4530
 6613TIP3    H241255   4.410   6.654   3.732  0.1426  3.6956  0.5182
 6614TIP3   OH241256   1.786   2.446   0.033  0.4501 -0.1604 -0.3871
 6614TIP3    H141257   1.790   2.404   0.119 -0.1235  0.5093 -0.0238
 6614TIP3    H241258   1.821   2.380  -0.027  1.3509 -0.4402  0.4198
 6615TIP3   OH241259   6.261   1.074   5.166  0.6891 -0.8841 -0.0389
 6615TIP3    H141260   6.313   1.121   5.232  2.5247  0.6017 -2.3995
 6615TIP3    H241261   6.300   0.986   5.164  0.2013 -1.1540  1.2466
 6616TIP3   OH241262   2.363   1.246  14.974  0.4736 -0.2331  0.4759
 6616TIP3    H141263   2.269   1.240  14.962  0.1519 -0.0077  2.4550
 6616TIP3    H241264   2.380   1.193  15.053  1.9913 -0.2394  0.1781
 6617TIP3   OH241265   3.218   3.262   1.620  0.3361 -0.2351 -0.3637
 6617TIP3    H141266   3.253   3.327   1.560  0.4115 -0.0223 -0.0880
 6617TIP3    H241267   3.216   3.305   1.705 -0.7357 -0.1793 -0.3955
 6618TIP3   OH241268   5.694   4.078  15.319 -0.0790 -0.0554  0.0599
 6618TIP3    H141269   5.732   4.066  15.233 -0.3262 -1.6710  0.1518
 6618TIP3    H241270   5.618   4.020  15.321  0.8883 -1.3738  1.9242
 6619TIP3   OH241271   1.858   5.795  15.240 -0.5217  0.0788  0.1634
 6619TIP3    H141272   1.764   5.782  15.242 -0.6119  0.7510  0.5031
 6619TIP3    H241273   1.878   5.815  15.149 -0.6336 -0.5738 -0.0060
 6620TIP3   OH241274   2.995   2.896  14.436  0.3156 -0.7263  0.2034
 6620TIP3    H141275   3.008   2.921  14.527 -1.6407 -0.3140  0.4160
 6620TIP3    H241276   2.982   2.801  14.438 -0.2143 -0.6507  0.4227
 6621TIP3   OH241277   0.839   0.249   6.445 -0.4185 -0.5509 -0.3802
 6621TIP3    H141278   0.803   0.337   6.439  0.8878  0.2350  1.9642
 6621TIP3    H241279   0.776   0.200   6.498 -1.4626 -1.2914 -2.2026
 6622TIP3   OH241280   1.789   5.050  11.701  0.3488 -0.0617 -0.0045
 6622TIP3    H141281   1.739   5.100  11.636  0.4499  0.4335  0.2934
 6622TIP3    H241282   1.842   5.116  11.746  1.1475 -0.5648 -0.2032
 6623TIP3   OH241283   3.962   4.379   4.582 -0.3403 -0.9248  0.0195
 6623TIP3    H141284   3.960   4.427   4.664 -0.2008 -2.3322  0.8725
 6623TIP3    H241285   4.038   4.322   4.589 -0.8432 -1.7110 -0.7082
 6624TIP3   OH241286   5.342   0.682  12.880  0.0572 -0.1443  0.5219
 6624TIP3    H141287   5.379   0.699  12.793 -0.0071 -0.9585  0.3219
 6624TIP3    H241288   5.413   0.704  12.941  0.3455 -0.2274  0.2201
 6625TIP3   OH241289   2.356   4.252  14.592 -0.0144  0.2228  0.3169
 6625TIP3    H141290   2.447   4.228  14.614  0.1514  1.3233  0.9099
 6625TIP3    H241291   2.365   4.314  14.520 -0.3730 -0.5902 -0.4371
 6626TIP3   OH241292   5.862   1.343  16.898 -0.4800  0.1953  0.1873
 6626TIP3    H141293   5.803   1.334  16.823  0.6245  0.3367 -0.7317
 6626TIP3    H241294   5.913   1.422  16.879 -0.0464  0.1227  0.9934
 6627TIP3   OH241295   5.965   1.724   5.039 -0.3822 -0.5917 -0.2222
 6627TIP3    H141296   5.960   1.629   5.050  1.5654 -0.9805 -2.0421
 6627TIP3    H241297   6.000   1.737   4.951  1.3374  1.7547  0.6882
 6628TIP3   OH241298   5.346   0.313   5.625  0.1470  0.9735 -0.1226
 6628TIP3    H141299   5.310   0.325   5.713  0.2721 -1.0979  0.2630
 6628TIP3    H241300   5.440   0.326   5.635  0.0762  1.4641 -0.0992
 6629TIP3   OH241301   4.251   2.089  11.136  0.8449 -0.3255  0.3954
 6629TIP3    H141302   4.195   2.011  11.142 -0.2855  0.5619  2.1400
 6629TIP3    H241303   4.212   2.141  11.066 -0.0507 -0.0990  1.0434
 6630TIP3   OH241304   1.856   6.020  12.404  0.2589 -0.4089 -0.2228
 6630TIP3    H141305   1.776   5.967  12.409 -0.6000  0.7538 -0.9531
 6630TIP3    H241306   1.828   6.101  12.361  1.5236  0.6435  0.8455
 6631TIP3   OH241307   3.187   3.525   2.601 -0.3493 -0.2188  0.0712
 6631TIP3    H141308   3.136   3.599   2.635  1.6104 -0.0342  2.9736
 6631TIP3    H241309   3.233   3.490   2.678  2.4730 -1.4722 -1.9983
 6632TIP3   OH241310   5.078   2.620   1.475  0.0977  0.8178  0.1838
 6632TIP3    H141311   5.147   2.601   1.539  0.6873  2.3138  0.0320
 6632TIP3    H241312   5.075   2.715   1.471 -1.4319  0.7600 -0.4324
 6633TIP3   OH241313   1.984   1.008   3.886 -0.1813  0.1588 -0.2447
 6633TIP3    H141314   1.947   1.096   3.885  1.8570  1.0935 -2.3519
 6633TIP3    H241315   1.915   0.953   3.848 -0.9282  1.1122 -0.3049
 6634TIP3   OH241316   1.471   2.638   1.184  0.0145 -0.4297  0.0961
 6634TIP3    H141317   1.427   2.721   1.164 -0.1750 -0.9258 -1.7922
 6634TIP3    H241318   1.521   2.656   1.264  0.2072  1.5904 -0.4076
 6635TIP3   OH241319   0.617   3.461   1.994  0.5256  0.1932  0.2530
 6635TIP3    H141320   0.710   3.442   2.010  0.1960 -1.5600  0.2720
 6635TIP3    H241321   0.606   3.445   1.900  0.1172 -0.1888  0.3636
 6636TIP3   OH241322   5.884   1.334  13.205  0.2799  0.0240 -0.4731
 6636TIP3    H141323   5.867   1.258  13.149 -0.5285  0.4327 -0.7963
 6636TIP3    H241324   5.855   1.306  13.292  1.2516 -0.5058 -0.3097
 6637TIP3   OH241325   3.515   2.625   1.637  0.0096 -0.1185  0.1886
 6637TIP3    H141326   3.477   2.659   1.556  0.5182 -0.4913 -0.2127
 6637TIP3    H241327   3.590   2.682   1.654  1.5647 -1.6648 -1.1079
 6638TIP3   OH241328   0.595   0.815   6.063  0.3603  0.1556 -0.4700
 6638TIP3    H141329   0.552   0.854   6.139  1.2519  0.7633 -0.2717
 6638TIP3    H241330   0.608   0.723   6.087 -0.0914  0.1557 -0.2194
 6639TIP3   OH241331   2.682   1.108  13.623 -0.0459 -0.2332 -0.4858
 6639TIP3    H141332   2.658   1.039  13.561 -2.2045 -0.4330  0.4763
 6639TIP3    H241333   2.632   1.088  13.701  0.3828  1.6470  0.3223
 6640TIP3   OH241334   0.675   2.873  16.729  0.1081 -0.4776 -0.7298
 6640TIP3    H141335   0.676   2.821  16.808  0.7606  0.9038  0.2138
 6640TIP3    H241336   0.613   2.828  16.671 -1.7563 -0.5754  1.2227
 6641TIP3   OH241337   5.664   4.043   0.034  0.0505  0.4402  1.0340
 6641TIP3    H141338   5.605   3.971   0.056  1.1821 -0.4282  1.2889
 6641TIP3    H241339   5.605   4.115   0.009 -1.1379 -1.4680 -2.3544
 6642TIP3   OH241340   1.922   2.940  11.166 -0.3989  0.5891  0.1264
 6642TIP3    H141341   1.924   3.020  11.218  0.0540  0.8013 -0.2085
 6642TIP3    H241342   1.984   2.956  11.095 -1.2017  0.4129 -0.6312
 6643TIP3   OH241343   2.724   2.002   1.358 -0.1411 -0.0029  0.3197
 6643TIP3    H141344   2.800   1.994   1.416 -0.8564  1.7715  1.5905
 6643TIP3    H241345   2.756   2.055   1.285  0.5170 -1.4949 -0.5274
 6644TIP3   OH241346   1.219   5.309   1.837 -0.1566  0.7756 -0.2172
 6644TIP3    H141347   1.217   5.402   1.814  0.1670  0.3177 -2.3024
 6644TIP3    H241348   1.127   5.288   1.855 -0.4991  1.1185 -1.4739
 6645TIP3   OH241349   3.323   0.158  15.849 -0.3669  0.1954 -0.2648
 6645TIP3    H141350   3.325   0.063  15.836  0.2017  0.0782  0.6071
 6645TIP3    H241351   3.414   0.186  15.841 -0.7186  0.9587 -2.3463
 6646TIP3   OH241352   6.105   5.769  11.513  0.7142  0.5717  0.8366
 6646TIP3    H141353   6.026   5.802  11.554  0.4828 -0.0580  0.9108
 6646TIP3    H241354   6.079   5.686  11.473  1.6311 -0.3148  1.9959
 6647TIP3   OH241355   3.048   2.136   4.568 -0.6894  0.0590  0.7515
 6647TIP3    H141356   2.953   2.139   4.577 -0.8151 -1.2943  0.0890
 6647TIP3    H241357   3.069   2.043   4.564  0.5655  0.3497 -0.0386
 6648TIP3   OH241358   2.254   4.442  11.757  0.1673 -0.3785  0.2980
 6648TIP3    H141359   2.290   4.485  11.680  0.6733 -0.4523  0.4943
 6648TIP3    H241360   2.253   4.349  11.734 -2.5199 -0.1859 -0.8088
 6649TIP3   OH241361   4.506   4.234  16.790 -0.5442 -0.1483  0.3006
 6649TIP3    H141362   4.496   4.299  16.860  0.5199 -1.4994  1.7848
 6649TIP3    H241363   4.600   4.215  16.788 -0.7322 -1.0962 -0.6050
 6650TIP3   OH241364   0.995   0.976  13.566  0.4042  0.2505 -0.6572
 6650TIP3    H141365   1.033   0.888  13.559  0.7404  0.2952  0.4326
 6650TIP3    H241366   1.070   1.035  13.554 -0.1060  0.4745 -3.3177
 6651TIP3   OH241367   0.999   1.394   1.687  0.7692  0.3114 -0.2440
 6651TIP3    H141368   1.066   1.362   1.627  1.1327 -0.3020  0.4670
 6651TIP3    H241369   1.044   1.402   1.771  0.2263  0.9866 -0.0131
 6652TIP3   OH241370   0.127   1.042   4.597  0.0215  0.6075  0.0312
 6652TIP3    H141371   0.214   1.071   4.626 -0.0809 -0.1744  1.1774
 6652TIP3    H241372   0.109   1.097   4.521  0.9677  1.6923  0.5397
 6653TIP3   OH241373   0.555   1.150  10.914 -0.6766 -0.1019 -0.1439
 6653TIP3    H141374   0.473   1.166  10.959  0.4387  0.3833  1.7983
 6653TIP3    H241375   0.538   1.071  10.862 -2.5919  0.4641 -0.4600
 6654TIP3   OH241376   0.412   0.143  10.966 -0.2379  0.5812 -0.2370
 6654TIP3    H141377   0.316   0.136  10.969 -0.1640 -0.1737  2.5887
 6654TIP3    H241378   0.434   0.206  11.034  1.2794  1.6919 -1.6593
 6655TIP3   OH241379   2.394   6.352   3.909  0.3541  0.5502  0.0061
 6655TIP3    H141380   2.416   6.386   3.996 -0.4133  1.3840 -0.0993
 6655TIP3    H241381   2.302   6.324   3.917  1.2139 -2.4902  0.3512
 6656TIP3   OH241382   3.967   1.566   3.439 -0.7165  0.1484 -0.1876
 6656TIP3    H141383   3.878   1.533   3.441 -1.5674  2.2862  2.4691
 6656TIP3    H241384   3.962   1.654   3.475  2.4542  0.3990 -0.0177
 6657TIP3   OH241385   3.858   3.986  12.810 -0.0700 -0.4032 -0.1094
 6657TIP3    H141386   3.833   4.004  12.720 -0.8307  2.3532  0.5626
 6657TIP3    H241387   3.939   4.036  12.823  0.2627 -1.1013  0.6349
 6658TIP3   OH241388   5.950   4.176  12.516 -0.0072 -0.9384 -0.5221
 6658TIP3    H141389   5.973   4.268  12.507 -0.3306 -0.7121  0.7395
 6658TIP3    H241390   5.884   4.160  12.449 -1.0847  0.1530  0.2550
 6659TIP3   OH241391   1.695   1.520  14.951  0.4969 -0.8223  0.3978
 6659TIP3    H141392   1.708   1.460  14.878  2.7897  0.2162 -0.1432
 6659TIP3    H241393   1.603   1.545  14.945 -0.1229 -3.0383 -0.2860
 6660TIP3   OH241394   5.903   1.681   4.444  0.1780 -0.5997 -0.6270
 6660TIP3    H141395   5.886   1.634   4.362 -0.9659 -0.4998 -0.4617
 6660TIP3    H241396   5.878   1.619   4.512  0.3683 -0.3918 -0.3659
 6661TIP3   OH241397   4.837   1.542  14.254 -0.0666  0.0804  0.4294
 6661TIP3    H141398   4.825   1.538  14.349  1.9545 -0.0264  0.7247
 6661TIP3    H241399   4.772   1.606  14.225  0.1394  1.0998  2.0689
 6662TIP3   OH241400   4.187   6.766   5.484  0.2560 -0.3222  0.2780
 6662TIP3    H141401   4.139   6.849   5.485  0.6961 -0.0196  2.8540
 6662TIP3    H241402   4.127   6.704   5.443 -0.7852  0.8731 -0.0745
 6663TIP3   OH241403   1.338   3.137   5.803  0.1544 -0.5579  0.1353
 6663TIP3    H141404   1.281   3.087   5.744 -0.2189 -0.0750  0.0868
 6663TIP3    H241405   1.396   3.071   5.841  0.0433 -0.9478 -0.3685
 6664TIP3   OH241406   6.499   4.968  15.085 -0.0513 -0.5308 -0.6884
 6664TIP3    H141407   6.547   4.926  15.013  0.2592  1.8332 -1.9506
 6664TIP3    H241408   6.520   5.061  15.077 -1.9808  0.1236  0.9720
 6665TIP3   OH241409   5.772   1.162   4.259 -0.0120  0.3961 -0.5458
 6665TIP3    H141410   5.845   1.107   4.231  0.7672  0.5096  1.1615
 6665TIP3    H241411   5.795   1.250   4.228  0.5464  0.4165 -0.0763
 6666TIP3   OH241412   1.959   4.005  10.856  0.2066 -0.1868 -0.7038
 6666TIP3    H141413   1.889   3.939  10.858 -0.1346  0.1527  1.1697
 6666TIP3    H241414   1.915   4.085  10.825  0.0521 -0.2706 -0.7036
 6667TIP3   OH241415   1.985   5.982  16.912 -0.4935  0.2330  0.4814
 6667TIP3    H141416   2.027   5.954  16.994 -0.2346  0.5758  0.4634
 6667TIP3    H241417   2.055   6.019  16.860 -0.5383 -0.5643 -0.1633
 6668TIP3   OH241418   3.208   5.919  13.172 -0.4119  0.4691  0.6270
 6668TIP3    H141419   3.250   6.003  13.151  0.3240  0.4247  1.8090
 6668TIP3    H241420   3.246   5.894  13.257 -1.2309 -0.6586  0.6832
 6669TIP3   OH241421   0.112   3.498  15.263 -0.0230 -0.4382  0.3242
 6669TIP3    H141422   0.043   3.565  15.265  1.1450  0.9298 -1.6775
 6669TIP3    H241423   0.194   3.547  15.267  0.8747 -1.8241 -0.1704
 6670TIP3   OH241424   4.743   1.053   2.748  0.3276  0.4945 -0.4805
 6670TIP3    H141425   4.807   1.091   2.808  2.2640 -0.8068 -1.6086
 6670TIP3    H241426   4.687   1.000   2.803  1.1903  0.4309  0.3688
 6671TIP3   OH241427   0.798   2.667  13.584  0.7136 -0.2824  0.2357
 6671TIP3    H141428   0.782   2.713  13.502 -1.1594 -0.6841  0.3197
 6671TIP3    H241429   0.799   2.574  13.560 -0.6972 -0.4569  0.7308
 6672TIP3   OH241430   0.139   4.814   6.366  0.4597 -0.0508 -0.4975
 6672TIP3    H141431   0.214   4.828   6.308  1.8108 -0.3986  1.0898
 6672TIP3    H241432   0.151   4.877   6.437 -0.3368 -0.6133  0.1592
 6673TIP3   OH241433   0.628   3.661  13.775 -0.1002  0.2389 -0.5860
 6673TIP3    H141434   0.587   3.697  13.853  0.4687 -0.6700  0.1634
 6673TIP3    H241435   0.561   3.605  13.736 -0.2391  0.3510 -0.5097
 6674TIP3   OH241436   3.348   2.507  14.100 -0.6960  0.4679 -0.9929
 6674TIP3    H141437   3.335   2.549  14.015 -2.4940 -0.3657 -1.1906
 6674TIP3    H241438   3.427   2.547  14.136 -0.6945  1.8374 -2.4449
 6675TIP3   OH241439   5.077   0.504  16.151 -0.2935 -0.5131 -0.4013
 6675TIP3    H141440   5.046   0.414  16.167  1.3633 -0.5428  3.9653
 6675TIP3    H241441   5.169   0.494  16.129 -0.5584  0.1229 -1.9387
 6676TIP3   OH241442   6.443   4.231  13.185  0.1306 -0.5363  0.1067
 6676TIP3    H141443   6.453   4.300  13.119 -0.8579 -0.3922  0.0928
 6676TIP3    H241444   6.385   4.269  13.251 -0.0671 -1.2016  0.3203
 6677TIP3   OH241445   6.481   1.829  12.657  0.1851 -0.3859  0.0071
 6677TIP3    H141446   6.486   1.922  12.679 -1.0555 -0.6641  1.5642
 6677TIP3    H241447   6.573   1.802  12.647  0.6485  1.8321 -4.5875
 6678TIP3   OH241448   0.286   5.546   2.464  0.0408 -0.6484  0.2099
 6678TIP3    H141449   0.214   5.595   2.425  0.0254 -0.3856  0.5655
 6678TIP3    H241450   0.356   5.611   2.475 -0.2003 -0.5529  1.2747
 6679TIP3   OH241451   1.486   2.372   4.702 -0.2227 -0.4186 -0.0510
 6679TIP3    H141452   1.447   2.285   4.688  0.2388 -0.4394 -1.2867
 6679TIP3    H241453   1.414   2.424   4.738 -0.4445 -1.3601  0.9216
 6680TIP3   OH241454   0.993   4.094  15.242 -0.1697  0.7838  0.1344
 6680TIP3    H141455   0.929   4.146  15.291  1.4892  1.7249  1.4206
 6680TIP3    H241456   1.053   4.060  15.309  1.7253  1.4383 -1.1426
 6681TIP3   OH241457   0.102   5.445  12.732 -0.5048 -0.5678 -0.7078
 6681TIP3    H141458   0.137   5.491  12.808 -2.8615  0.2086 -0.0039
 6681TIP3    H241459   0.151   5.482  12.658  1.2470 -0.7343  0.3127
 6682TIP3   OH241460   0.700   1.396  13.874 -0.1393 -0.4458 -0.1278
 6682TIP3    H141461   0.687   1.475  13.927 -1.7981 -0.3340 -0.6219
 6682TIP3    H241462   0.646   1.330  13.917  0.3327 -0.9997 -0.3715
 6683TIP3   OH241463   6.117   2.747   2.935  0.0618  0.3086 -0.1938
 6683TIP3    H141464   6.095   2.736   3.027 -1.3127 -2.2488 -0.7459
 6683TIP3    H241465   6.206   2.712   2.927 -0.1283 -0.2365  0.0381
 6684TIP3   OH241466   6.406   2.315   3.921 -0.6331  0.2560 -0.2019
 6684TIP3    H141467   6.386   2.407   3.901  1.6086  0.6774 -0.7989
 6684TIP3    H241468   6.369   2.301   4.008 -1.8908  1.4006 -0.5134
 6685TIP3   OH241469   6.409   3.787   2.822 -0.1323  0.0028  0.0564
 6685TIP3    H141470   6.329   3.825   2.858  0.5179  2.0894 -0.5703
 6685TIP3    H241471   6.455   3.752   2.899 -0.8130  0.3776  0.6461
 6686TIP3   OH241472   3.004   0.501   0.905  0.4109 -0.1215 -0.4999
 6686TIP3    H141473   2.958   0.479   0.824  0.3854  2.5786 -1.3081
 6686TIP3    H241474   3.079   0.443   0.907 -0.0347 -0.7892 -2.0314
 6687TIP3   OH241475   1.510   4.221  15.550 -0.0030 -0.1083 -0.3204
 6687TIP3    H141476   1.572   4.249  15.482 -0.4352 -0.2102 -0.7651
 6687TIP3    H241477   1.456   4.298  15.566 -0.1356 -0.1939 -0.3568
 6688TIP3   OH241478   2.200   3.985  10.988  0.2034 -0.8621 -0.0916
 6688TIP3    H141479   2.233   3.904  10.950 -1.9264 -1.9044  0.1370
 6688TIP3    H241480   2.123   4.007  10.936  0.1891  0.4803  0.4593
 6689TIP3   OH241481   0.241   3.492   0.514  0.2245  0.3114 -0.2790
 6689TIP3    H141482   0.289   3.410   0.505 -0.5422 -0.5209  2.2167
 6689TIP3    H241483   0.308   3.558   0.533  0.7268 -0.0105 -0.9297
 6690TIP3   OH241484   6.546   4.140   5.907 -0.4213 -0.3819 -0.0691
 6690TIP3    H141485   6.630   4.097   5.920 -0.1402  0.4265  0.8799
 6690TIP3    H241486   6.530   4.133   5.813  2.2986  2.2364 -0.9003
 6691TIP3   OH241487   3.836   1.154  14.093  0.4390  0.0447  0.2181
 6691TIP3    H141488   3.819   1.094  14.020 -1.4340  1.7920 -0.9082
 6691TIP3    H241489   3.922   1.191  14.073 -0.5779  1.4702 -1.9287
 6692TIP3   OH241490   2.185   4.217   4.478  0.8645 -0.7209  0.6125
 6692TIP3    H141491   2.164   4.229   4.571  1.0460 -1.7841  0.8039
 6692TIP3    H241492   2.203   4.305   4.446 -1.4296 -0.0379  1.0215
 6693TIP3   OH241493   6.418   0.094   1.448  0.3247  0.1165 -0.2329
 6693TIP3    H141494   6.439   0.004   1.423 -0.5817 -0.0537 -0.4197
 6693TIP3    H241495   6.397   0.088   1.541 -0.7381 -0.0605 -0.4702
 6694TIP3   OH241496   5.212   0.129  11.669  0.5427 -0.0591  0.4923
 6694TIP3    H141497   5.228   0.215  11.708  1.2942 -0.0380  0.1573
 6694TIP3    H241498   5.293   0.081  11.685  0.0364 -0.7884  0.8883
 6695TIP3   OH241499   1.980   0.228  13.694 -0.2939  0.2935  0.2672
 6695TIP3    H141500   1.901   0.199  13.739  1.0050  0.4119  2.8449
 6695TIP3    H241501   1.968   0.322  13.682 -1.0353  0.1110 -0.4693
 6696TIP3   OH241502   4.397   0.041   3.070 -0.0656 -0.6164  0.4730
 6696TIP3    H141503   4.331   0.075   3.010 -0.2956  2.2222  2.1501
 6696TIP3    H241504   4.346   0.011   3.146  0.2048 -4.2499 -0.5889
 6697TIP3   OH241505   2.726   5.277  14.634  0.1099  0.0275 -0.4689
 6697TIP3    H141506   2.708   5.268  14.541 -0.6119  1.0218 -0.4420
 6697TIP3    H241507   2.715   5.370  14.652  1.2018  0.0059  0.4183
 6698TIP3   OH241508   5.007   3.103  10.199 -0.3790 -0.0831 -0.0128
 6698TIP3    H141509   5.085   3.092  10.253 -0.6794 -1.1131  0.2227
 6698TIP3    H241510   4.992   3.018  10.159 -2.1797 -0.3317  1.0506
 6699TIP3   OH241511   1.271   2.516  11.467 -0.1253  0.6277  0.1868
 6699TIP3    H141512   1.198   2.501  11.527 -0.5750  0.4303 -0.3979
 6699TIP3    H241513   1.342   2.548  11.523 -0.4464  0.1840  0.8601
 6700TIP3   OH241514   0.197   0.776   1.060 -0.1695  0.5538 -0.3935
 6700TIP3    H141515   0.225   0.686   1.070  1.5289  1.1333  0.4650
 6700TIP3    H241516   0.224   0.801   0.972 -0.8363  0.1882 -0.7123
 6701TIP3   OH241517   3.587   0.095   1.248 -0.7034  0.5224 -0.1127
 6701TIP3    H141518   3.554   0.165   1.305 -0.3149  3.2826 -3.0215
 6701TIP3    H241519   3.511   0.065   1.200 -0.6570 -0.3177  0.3156
 6702TIP3   OH241520   0.465   6.413  16.632  0.3587  0.1376  0.0676
 6702TIP3    H141521   0.407   6.346  16.598 -0.0524 -0.7708  2.3370
 6702TIP3    H241522   0.430   6.495  16.598 -0.0361 -0.6726 -1.5416
 6703TIP3   OH241523   3.741   5.271   5.050 -0.6417  0.2701 -0.1107
 6703TIP3    H141524   3.687   5.219   5.110 -2.2808  0.2832 -1.4982
 6703TIP3    H241525   3.739   5.359   5.086 -0.5069  0.0162  0.5269
 6704TIP3   OH241526   5.154   1.535   0.669  0.6054  0.5728  0.3608
 6704TIP3    H141527   5.072   1.513   0.625  0.9403 -0.7513  0.3581
 6704TIP3    H241528   5.154   1.631   0.673 -1.1989  0.5805  0.8849
 6705TIP3   OH241529   2.643   2.786   3.390  0.7700 -0.3832 -0.2280
 6705TIP3    H141530   2.601   2.855   3.339 -2.2888 -1.9377 -0.0078
 6705TIP3    H241531   2.697   2.738   3.326  0.8762  0.6160 -0.9086
 6706TIP3   OH241532   0.442   1.213   3.321 -0.3243 -0.1553 -0.2962
 6706TIP3    H141533   0.407   1.152   3.257 -0.0557 -3.3257  2.3089
 6706TIP3    H241534   0.366   1.264   3.350 -0.8255 -0.1485 -1.5673
 6707TIP3   OH241535   3.517   3.668  10.856 -0.0127  0.1485  0.4027
 6707TIP3    H141536   3.439   3.642  10.806  0.2983  0.8993 -0.5204
 6707TIP3    H241537   3.588   3.668  10.791  0.6225  0.1045  1.0867
 6708TIP3   OH241538   6.708   0.191   4.396  0.5839 -0.6220  0.2774
 6708TIP3    H141539   6.649   0.180   4.471  0.0879 -1.4260 -0.2116
 6708TIP3    H241540   6.700   0.108   4.348  0.5216  0.0594 -0.9195
 6709TIP3   OH241541   1.465   4.269  13.184  0.2920  0.6181  0.4905
 6709TIP3    H141542   1.395   4.328  13.212 -0.2599  0.0457  0.3314
 6709TIP3    H241543   1.452   4.259  13.090  0.5938  0.5115  0.4587
 6710TIP3   OH241544   1.819   6.269   0.031 -0.2639 -0.6636  0.3533
 6710TIP3    H141545   1.846   6.318   0.109  1.5863 -1.2352  0.1203
 6710TIP3    H241546   1.853   6.319  -0.042  0.4342 -1.5535  0.0493
 6711TIP3   OH241547   3.254   0.526   1.443  0.3092  0.2108 -0.2611
 6711TIP3    H141548   3.222   0.511   1.532 -1.5856  1.6999 -0.6261
 6711TIP3    H241549   3.341   0.485   1.441  0.0505 -0.5649  2.0044
 6712TIP3   OH241550   6.559   3.928  12.594  0.2123 -0.2289  0.0531
 6712TIP3    H141551   6.654   3.938  12.587  0.4408 -2.0009 -0.0000
 6712TIP3    H241552   6.547   3.850  12.648 -1.2864  1.3792  2.2259
 6713TIP3   OH241553   6.711   1.997  16.368 -0.1532 -0.4613 -0.1213
 6713TIP3    H141554   6.754   2.031  16.289  0.7251 -2.0404 -0.3707
 6713TIP3    H241555   6.723   2.066  16.433  2.0238 -0.4323 -0.4538
 6714TIP3   OH241556   2.810   0.536   1.575  0.6199  0.6836 -0.4540
 6714TIP3    H141557   2.878   0.538   1.507 -0.1463  1.4537 -1.2350
 6714TIP3    H241558   2.857   0.546   1.657  1.8655 -2.8362 -0.5801
 6715TIP3   OH241559   5.466   5.663   0.833 -0.4575 -0.3952  0.1518
 6715TIP3    H141560   5.455   5.671   0.928  0.4379 -0.6828  0.2819
 6715TIP3    H241561   5.495   5.573   0.820  0.0838 -0.1520 -0.3339
 6716TIP3   OH241562   2.144   3.806   3.054 -0.0946 -0.3391  0.2555
 6716TIP3    H141563   2.157   3.712   3.050  1.3614 -0.1761  0.7463
 6716TIP3    H241564   2.142   3.834   2.963 -0.7640 -0.8574  0.1015
 6717TIP3   OH241565   5.763   1.815  14.862 -0.6002 -0.3619  0.5284
 6717TIP3    H141566   5.791   1.829  14.953 -0.6658 -1.6738  0.7718
 6717TIP3    H241567   5.792   1.726  14.842  2.3695  0.9487 -1.8396
 6718TIP3   OH241568   5.009   3.466   3.530 -0.2285 -0.3519 -0.7153
 6718TIP3    H141569   4.979   3.555   3.549 -0.6601 -1.0285  2.1736
 6718TIP3    H241570   5.035   3.470   3.438  0.7280  3.0152 -0.4589
 6719TIP3   OH241571   4.090   1.440  14.009  0.1007  0.1878 -0.2839
 6719TIP3    H141572   4.094   1.345  14.011 -2.6761  0.0176  0.4365
 6719TIP3    H241573   4.144   1.468  14.083  0.8169 -0.8068 -0.4063
 6720TIP3   OH241574   4.827   5.615  12.635 -0.4021  0.3457  0.0360
 6720TIP3    H141575   4.855   5.673  12.564  1.3022 -0.9305 -0.4032
 6720TIP3    H241576   4.888   5.541  12.631 -2.5969 -1.6066  0.4381
 6721TIP3   OH241577   3.875   3.255  12.409  0.0528 -0.4628  0.5537
 6721TIP3    H141578   3.933   3.325  12.439 -0.2449  0.5826 -1.2077
 6721TIP3    H241579   3.788   3.293  12.414 -0.1450 -0.8348 -0.0633
 6722TIP3   OH241580   1.612   4.644  11.691  0.2994 -0.4879 -0.9298
 6722TIP3    H141581   1.648   4.702  11.623 -1.2880  0.4622 -0.9974
 6722TIP3    H241582   1.679   4.645  11.760 -0.2339  2.6258 -0.2979
 6723TIP3   OH241583   2.534   1.229  16.278 -0.1910 -0.1829  0.3598
 6723TIP3    H141584   2.584   1.290  16.223 -1.2482  1.6442  1.3149
 6723TIP3    H241585   2.569   1.143  16.257 -0.6436  0.3613 -3.3156
 6724TIP3   OH241586   4.114   3.566   4.998  0.3405  0.0063 -0.4040
 6724TIP3    H141587   4.116   3.635   4.932 -1.4043 -1.1048 -1.7300
 6724TIP3    H241588   4.197   3.519   4.986  0.3876  0.2900 -1.3037
 6725TIP3   OH241589   3.014   5.158   1.332  0.2722 -0.0313  0.2219
 6725TIP3    H141590   2.928   5.122   1.311  0.7860 -1.0323 -0.2390
 6725TIP3    H241591   3.068   5.140   1.255  0.1812  3.1944 -0.7364
 6726TIP3   OH241592   6.542   3.273  12.045  0.3002 -0.2899 -0.5318
 6726TIP3    H141593   6.601   3.202  12.069 -0.4740 -0.7882 -0.0562
 6726TIP3    H241594   6.539   3.329  12.123  0.3654 -0.1110 -0.6574
 6727TIP3   OH241595   6.116   1.991  16.548 -0.0631  0.3763  0.4284
 6727TIP3    H141596   6.169   1.921  16.586  0.0849 -0.0604 -0.5517
 6727TIP3    H241597   6.034   1.988  16.598 -0.0354 -0.4508  0.4446
 6728TIP3   OH241598   2.332   6.714   0.624 -0.2800 -0.0026 -0.2391
 6728TIP3    H141599   2.365   6.729   0.536 -1.1207 -2.0942 -0.9762
 6728TIP3    H241600   2.313   6.620   0.627  0.6702 -0.1959  2.5022
 6729TIP3   OH241601   2.322   1.082  10.731  0.4853  0.1969  0.2004
 6729TIP3    H141602   2.278   1.001  10.758  0.6225  0.5530  1.5579
 6729TIP3    H241603   2.279   1.151  10.781  0.3216  0.9999 -0.9912
 6730TIP3   OH241604   2.093   1.542   2.234  0.3502 -0.4571 -0.2031
 6730TIP3    H141605   2.098   1.605   2.162 -0.5086 -2.3414 -1.9948
 6730TIP3    H241606   2.185   1.522   2.254  0.6336  1.1421  0.2604
 6731TIP3   OH241607   4.792   5.258  16.010 -0.0610  0.3129  0.5248
 6731TIP3    H141608   4.713   5.281  16.058 -1.9451 -2.8518 -0.7178
 6731TIP3    H241609   4.814   5.170  16.040  1.3132 -0.0066 -1.1991
 6732TIP3   OH241610   0.350   5.144  12.629 -0.0097  0.5792  0.2329
 6732TIP3    H141611   0.344   5.211  12.697  1.3995  1.1056 -0.1322
 6732TIP3    H241612   0.277   5.162  12.570 -0.6561  0.7182  1.0694
 6733TIP3   OH241613   5.121   0.326  10.903  0.4109  0.7487 -0.6041
 6733TIP3    H141614   5.210   0.360  10.913 -0.5870  2.8202  3.1573
 6733TIP3    H241615   5.128   0.234  10.926  1.6565  0.7256 -0.9865
 6734TIP3   OH241616   2.628   6.693  14.857  0.0369  0.1781  0.0334
 6734TIP3    H141617   2.706   6.651  14.893  0.1695 -0.9256 -1.4189
 6734TIP3    H241618   2.568   6.700  14.930  0.9378 -0.3364  0.8459
 6735TIP3   OH241619   3.916   2.909   1.300 -0.3327  0.7685  0.1901
 6735TIP3    H141620   3.877   2.835   1.346 -0.1079 -0.6842 -1.8007
 6735TIP3    H241621   4.002   2.877   1.273 -0.1897  1.7952 -0.6369
 6736TIP3   OH241622   0.763   4.032   3.823 -0.9154 -0.2382 -0.1465
 6736TIP3    H141623   0.801   4.043   3.737 -0.4862 -0.5955 -0.0038
 6736TIP3    H241624   0.752   4.121   3.856 -2.1032 -0.0363 -0.9996
 6737TIP3   OH241625   2.786   6.028  10.932 -0.1512  0.0516  0.1775
 6737TIP3    H141626   2.699   5.989  10.924  0.2971 -0.6415 -1.6937
 6737TIP3    H241627   2.779   6.113  10.888  0.1369 -0.0559 -0.0823
 6738TIP3   OH241628   0.191   2.146   2.310  0.5386  0.0142 -0.4772
 6738TIP3    H141629   0.240   2.221   2.344  0.3411  0.5356 -1.3042
 6738TIP3    H241630   0.100   2.176   2.308  0.7305  0.7110 -3.1444
 6739TIP3   OH241631   1.486   2.865  15.778 -0.3585  0.0087  0.2542
 6739TIP3    H141632   1.562   2.923  15.771  0.0604 -0.4128  1.2036
 6739TIP3    H241633   1.468   2.859  15.872 -1.3572 -0.1693  0.0642
 6740TIP3   OH241634   4.511   2.950   5.232  0.4260  0.2101  0.4828
 6740TIP3    H141635   4.529   2.982   5.320 -1.1195  0.5435  0.7114
 6740TIP3    H241636   4.541   2.859   5.233  3.4768  1.0882  0.2895
 6741TIP3   OH241637   5.977   0.956  16.984 -0.0190  0.2713  0.2382
 6741TIP3    H141638   6.029   1.028  16.950 -0.5740  0.0016 -1.2605
 6741TIP3    H241639   5.888   0.975  16.956 -0.0872 -1.2576 -0.7099
 6742TIP3   OH241640   0.436   5.943  13.780 -0.0391 -0.0465 -0.1999
 6742TIP3    H141641   0.343   5.926  13.762 -0.0947 -0.7413  0.6541
 6742TIP3    H241642   0.443   5.934  13.875  1.1308 -1.2171 -0.3656
 6743TIP3   OH241643   0.251   1.310   1.054  0.2685 -0.1694 -0.3987
 6743TIP3    H141644   0.274   1.315   0.961 -0.2365 -1.1004 -0.5872
 6743TIP3    H241645   0.178   1.249   1.057  0.0728  0.1003  0.5814
 6744TIP3   OH241646   0.984   0.761  14.548  0.0738  0.5067 -0.9368
 6744TIP3    H141647   1.045   0.786  14.478  2.1037 -0.0661  0.5453
 6744TIP3    H241648   0.994   0.831  14.613  1.1483 -0.8868  0.4664
 6745TIP3   OH241649   3.852   5.916  13.728  0.0422 -0.1102 -0.2024
 6745TIP3    H141650   3.918   5.919  13.659 -0.0813  0.9920 -0.2968
 6745TIP3    H241651   3.902   5.927  13.809  0.1474 -1.0149 -0.1407
 6746TIP3   OH241652   1.865   1.744   4.166  0.1914 -0.4480 -0.5242
 6746TIP3    H141653   1.775   1.771   4.146 -0.0475  0.4222  1.4554
 6746TIP3    H241654   1.854   1.674   4.231  0.9440 -1.6922 -1.6850
 6747TIP3   OH241655   6.583   1.522  14.303  0.2364  0.2005  0.1702
 6747TIP3    H141656   6.629   1.603  14.283  1.5762 -0.5623  0.0801
 6747TIP3    H241657   6.599   1.507  14.396 -1.7484  1.0851  0.7131
 6748TIP3   OH241658   1.758   0.216   1.704  0.0891 -0.2686  0.1470
 6748TIP3    H141659   1.667   0.190   1.686 -0.1873  1.2298 -0.8179
 6748TIP3    H241660   1.759   0.310   1.688  1.5888 -0.0884  1.1714
 6749TIP3   OH241661   3.504   1.694   2.127  0.1033  0.1682 -0.4514
 6749TIP3    H141662   3.434   1.669   2.188  0.0390  0.9827 -0.1765
 6749TIP3    H241663   3.503   1.790   2.128  1.8297  0.2206  0.2910
 6750TIP3   OH241664   2.190   2.040   4.924 -0.2002  0.1871  0.1313
 6750TIP3    H141665   2.188   2.105   4.854 -0.7505 -1.0052 -0.9944
 6750TIP3    H241666   2.155   2.086   5.000 -1.3355  0.9842 -0.8321
 6751TIP3   OH241667   3.364   6.720   4.746  0.0403  0.1318 -0.4905
 6751TIP3    H141668   3.361   6.770   4.827 -0.1143  2.3920 -1.8272
 6751TIP3    H241669   3.303   6.648   4.761 -1.1141  1.3210  0.8723
 6752TIP3   OH241670   2.814   6.046  14.676 -0.2148 -0.2223 -0.0413
 6752TIP3    H141671   2.876   6.110  14.640 -1.1390  1.0992  0.6170
 6752TIP3    H241672   2.759   6.021  14.602  0.8397 -1.1295 -0.5503
 6753TIP3   OH241673   1.460   3.360  17.106 -0.1168 -0.4784  0.0068
 6753TIP3    H141674   1.478   3.424  17.037 -0.7804 -2.2575 -1.9471
 6753TIP3    H241675   1.404   3.406  17.168  0.7323  1.2832 -0.4558
 6754TIP3   OH241676   2.933   2.526  17.121 -0.1909  0.0966 -0.0349
 6754TIP3    H141677   2.938   2.507  17.215  0.1625 -2.0436 -0.4366
 6754TIP3    H241678   2.982   2.608  17.111 -0.4260  0.4842  1.6670
 6755TIP3   OH241679   6.199   6.460  11.997 -0.4763 -0.0130 -0.2424
 6755TIP3    H141680   6.126   6.458  12.060 -0.4456  0.1181 -0.2023
 6755TIP3    H241681   6.267   6.509  12.042  0.6796 -2.4257  0.8527
 6756TIP3   OH241682   1.233   4.998   1.856 -0.3242 -0.0219 -0.2888
 6756TIP3    H141683   1.240   5.078   1.804 -1.4236 -0.3883 -1.0248
 6756TIP3    H241684   1.174   5.021   1.928 -0.5137 -0.1299 -0.4106
 6757TIP3   OH241685   0.066   6.558  11.274 -0.2968  0.6666 -0.0931
 6757TIP3    H141686   0.015   6.499  11.218  0.1790  0.1411  0.0208
 6757TIP3    H241687   0.147   6.574  11.224 -0.4809  1.3416 -0.1875
 6758TIP3   OH241688   2.878   4.042   3.852  0.4316  0.2218  0.0389
 6758TIP3    H141689   2.808   3.996   3.805  1.1077  0.1340 -0.9134
 6758TIP3    H241690   2.930   4.083   3.783 -0.1350  2.4363  0.8415
 6759TIP3   OH241691   5.139   6.179  10.844 -0.4008  0.1092 -0.0207
 6759TIP3    H141692   5.115   6.180  10.751 -1.2048  0.6762  0.1828
 6759TIP3    H241693   5.088   6.251  10.882 -0.8121 -0.7239  1.0363
 6760TIP3   OH241694   1.344   6.799   1.284 -0.1202  0.3969  0.2904
 6760TIP3    H141695   1.410   6.858   1.319  2.7242 -1.3794 -1.6459
 6760TIP3    H241696   1.318   6.744   1.359 -0.9382  2.3492  1.5088
 6761TIP3   OH241697   5.606   5.120   3.628 -0.1909  0.1246  0.7063
 6761TIP3    H141698   5.611   5.207   3.589  1.2147 -0.7693 -1.2860
 6761TIP3    H241699   5.678   5.072   3.589 -0.7106 -1.8666  2.0183
 6762TIP3   OH241700   2.366   3.399  16.239 -0.0953  0.3294  0.4538
 6762TIP3    H141701   2.432   3.329  16.244 -0.1990  0.0053 -1.6318
 6762TIP3    H241702   2.407   3.473  16.283  1.6467  0.0837 -0.6325
 6763TIP3   OH241703   4.990   3.039   1.733 -0.3353 -0.2388 -0.6576
 6763TIP3    H141704   5.054   3.110   1.727 -0.2902 -0.2865 -0.7421
 6763TIP3    H241705   4.993   2.996   1.647 -0.4277 -0.2860 -0.6374
 6764TIP3   OH241706   1.396   0.699  11.612  0.0822 -0.0975 -0.3391
 6764TIP3    H141707   1.393   0.789  11.643 -0.3292 -0.9076  2.1657
 6764TIP3    H241708   1.489   0.679  11.606  0.1736  0.4173 -0.7201
 6765TIP3   OH241709   4.402   6.305  15.888  0.1239  0.3431 -0.5124
 6765TIP3    H141710   4.443   6.364  15.825  2.8166 -0.2834  0.5112
 6765TIP3    H241711   4.309   6.327  15.884  0.4528  1.6990 -3.1968
 6766TIP3   OH241712   3.655   6.688  11.935  0.0987  0.3233 -0.1757
 6766TIP3    H141713   3.722   6.718  11.874  0.4140 -0.1492 -0.0677
 6766TIP3    H241714   3.678   6.729  12.018 -0.8837  1.7493 -0.5727
 6767TIP3   OH241715   1.933   0.989   5.281  0.1733 -0.4524  0.6417
 6767TIP3    H141716   1.869   0.922   5.254  0.4957 -0.1461 -1.0040
 6767TIP3    H241717   1.890   1.036   5.353 -0.9377 -1.0477  0.3962
 6768TIP3   OH241718   4.594   4.374   1.489 -0.2375  0.4368 -0.3566
 6768TIP3    H141719   4.552   4.314   1.551 -0.0021 -0.2650 -0.8678
 6768TIP3    H241720   4.612   4.452   1.541 -0.2745 -0.0436  0.4078
 6769TIP3   OH241721   5.100   2.080   0.020  0.3734  0.0079  0.2391
 6769TIP3    H141722   5.063   1.994   0.001 -0.2996 -0.0671  1.8015
 6769TIP3    H241723   5.025   2.140   0.017  0.2920  0.0463  2.2060
 6770TIP3   OH241724   5.317   5.446   4.836 -0.5369 -0.5345  0.0025
 6770TIP3    H141725   5.369   5.460   4.916 -1.5077 -1.7832  0.8840
 6770TIP3    H241726   5.379   5.407   4.774  0.0220 -0.3399  0.4241
 6771TIP3   OH241727   1.047   2.404   0.101  0.2673  0.3731 -0.3271
 6771TIP3    H141728   1.111   2.450   0.046  0.2474 -0.4674 -1.0825
 6771TIP3    H241729   1.048   2.452   0.184  3.2334 -0.6838  0.3761
 6772TIP3   OH241730   5.554   4.963  16.333 -0.4995  0.1740  0.1749
 6772TIP3    H141731   5.601   4.924  16.407 -1.5360 -1.0745  0.2174
 6772TIP3    H241732   5.603   5.043  16.313  0.3287  0.0708  1.6223
 6773TIP3   OH241733   3.830   3.789  13.591  0.1090 -0.2106 -0.0670
 6773TIP3    H141734   3.842   3.775  13.685  0.4832  3.9073  0.7003
 6773TIP3    H241735   3.738   3.816  13.583  0.7438  2.1471 -0.3039
 6774TIP3   OH241736   4.329   0.816  14.001  0.1374 -0.3111 -0.0849
 6774TIP3    H141737   4.242   0.842  13.972 -0.6464 -0.8779  1.6724
 6774TIP3    H241738   4.381   0.896  13.995 -2.0453  1.7888  4.5796
 6775TIP3   OH241739   5.457   2.200   1.540 -0.1544  0.0950 -0.1260
 6775TIP3    H141740   5.465   2.140   1.466 -0.3949 -0.0198 -0.0605
 6775TIP3    H241741   5.363   2.209   1.553 -0.1253  0.8950 -0.4653
 6776TIP3   OH241742   3.106   4.038   5.174  0.3803 -0.1178 -0.9661
 6776TIP3    H141743   3.197   4.059   5.153  0.2519  1.6427 -0.0196
 6776TIP3    H241744   3.055   4.100   5.122 -0.2695 -0.7895 -1.1485
 6777TIP3   OH241745   0.001   2.799  11.933  0.0349 -0.2119 -0.6848
 6777TIP3    H141746   0.060   2.841  11.870  0.1517  0.5904 -0.0660
 6777TIP3    H241747  -0.086   2.833  11.911  0.1665  0.6280 -0.0058
 6778TIP3   OH241748   3.739   5.173   1.968  0.8321 -0.1545  0.4861
 6778TIP3    H141749   3.783   5.189   2.052  1.3124 -1.6102  0.5269
 6778TIP3    H241750   3.809   5.146   1.909  0.5574  1.1874 -0.5156
 6779TIP3   OH241751   5.816   2.832   5.245  0.3509 -0.6319  0.3267
 6779TIP3    H141752   5.783   2.908   5.294 -0.4919 -1.8568  1.7443
 6779TIP3    H241753   5.908   2.854   5.228 -0.1666  1.2168 -0.3954
 6780TIP3   OH241754   4.450   6.351   2.224 -0.5474 -0.7340 -0.2396
 6780TIP3    H141755   4.408   6.391   2.300 -1.5447 -2.0311 -0.0551
 6780TIP3    H241756   4.517   6.414   2.197 -1.1593  0.4179  0.8077
 6781TIP3   OH241757   3.594   5.809   5.899 -0.6635 -0.4561  0.3172
 6781TIP3    H141758   3.614   5.786   5.990  1.2972 -0.6620 -0.1271
 6781TIP3    H241759   3.517   5.757   5.877  0.0046 -1.8803  1.2542
 6782TIP3   OH241760   0.009   2.577   2.497 -0.4680  0.0863  0.1802
 6782TIP3    H141761  -0.025   2.609   2.413 -0.4722  0.3987  0.3002
 6782TIP3    H241762   0.093   2.621   2.507  0.5791 -1.5997 -0.6943
 6783TIP3   OH241763   4.921   4.273   0.252  0.1409 -0.1666  0.6791
 6783TIP3    H141764   4.974   4.343   0.213  0.8527 -0.1889  1.5602
 6783TIP3    H241765   4.888   4.223   0.177  2.2447 -0.7844  0.0966
 6784TIP3   OH241766   0.184   5.870   0.749 -0.1533  0.4899 -0.1733
 6784TIP3    H141767   0.270   5.878   0.791 -0.8350 -0.4186  1.4726
 6784TIP3    H241768   0.205   5.841   0.660  1.2807  1.4100 -0.1808
 6785TIP3   OH241769   0.544   4.208   2.076 -0.2913 -0.0627 -0.3101
 6785TIP3    H141770   0.473   4.174   2.129  0.0125 -0.6572 -0.2812
 6785TIP3    H241771   0.621   4.159   2.104 -0.0090  0.0537 -0.8634
 6786TIP3   OH241772   5.997   3.043   0.693 -0.4206  0.1185 -0.0546
 6786TIP3    H141773   6.086   3.015   0.710 -0.0361  1.5973  0.5809
 6786TIP3    H241774   5.942   2.979   0.737  0.2937 -1.1322 -0.9426
 6787TIP3   OH241775   1.049   2.918   0.257  0.6730  0.3305 -0.0382
 6787TIP3    H141776   1.144   2.909   0.264  0.7320  0.1506 -0.9874
 6787TIP3    H241777   1.025   2.976   0.329  1.2577 -1.1201  1.3767
 6788TIP3   OH241778   1.135   4.762  11.853  0.3842 -0.2564 -0.1376
 6788TIP3    H141779   1.207   4.766  11.791  1.4206  3.5401  1.0050
 6788TIP3    H241780   1.172   4.722  11.931 -0.0683 -2.2679 -0.9065
 6789TIP3   OH241781   4.790   4.512  15.360 -0.1399 -0.3722 -0.6545
 6789TIP3    H141782   4.853   4.443  15.380 -0.9354 -0.9403 -0.0800
 6789TIP3    H241783   4.826   4.590  15.402 -1.2379 -1.2923  2.2355
 6790TIP3   OH241784   5.377   0.584  16.083  0.6213 -0.1330 -0.2924
 6790TIP3    H141785   5.468   0.602  16.108  0.3998  0.9658 -0.2447
 6790TIP3    H241786   5.384   0.537  16.000  1.2056  1.3787 -1.1315
 6791TIP3   OH241787   2.652   1.876   3.679 -0.1092  0.0575 -0.1015
 6791TIP3    H141788   2.725   1.889   3.618  0.2016  1.6904  0.5731
 6791TIP3    H241789   2.689   1.894   3.765 -0.4129 -2.7443  0.7088
 6792TIP3   OH241790   2.785   3.790   1.143  0.1987  0.0515  0.0528
 6792TIP3    H141791   2.810   3.703   1.112 -0.9257  0.2867 -1.6115
 6792TIP3    H241792   2.772   3.779   1.237  0.9882 -1.3557  0.0177
 6793TIP3   OH241793   0.396   5.192  11.364  0.4932  0.5705 -0.2372
 6793TIP3    H141794   0.469   5.132  11.348  1.1029  0.9027  1.1281
 6793TIP3    H241795   0.392   5.246  11.286  1.7938  0.6124 -0.3028
 6794TIP3   OH241796   5.062   3.783  12.630 -0.6318  0.2642  0.2573
 6794TIP3    H141797   4.973   3.769  12.599  0.1832  0.4413 -2.3593
 6794TIP3    H241798   5.084   3.702  12.678 -1.4776 -0.6664 -0.8766
 6795TIP3   OH241799   5.954   4.260  16.621  1.1878  0.0742 -0.6127
 6795TIP3    H141800   5.864   4.256  16.587  0.8845 -3.7937  0.1867
 6795TIP3    H241801   5.950   4.214  16.704  3.6457  1.4319  0.3432
 6796TIP3   OH241802   4.459   4.821   1.440 -0.1523 -0.4361  0.5098
 6796TIP3    H141803   4.507   4.773   1.373  1.7395  0.9062  0.8111
 6796TIP3    H241804   4.479   4.775   1.522 -1.3930 -1.2877  0.3726
 6797TIP3   OH241805   3.259   4.471  10.457  0.2292  0.9258  0.7847
 6797TIP3    H141806   3.260   4.439  10.548 -1.8314 -0.4347  0.4078
 6797TIP3    H241807   3.271   4.392  10.404 -2.1562  1.1064 -0.1422
 6798TIP3   OH241808   5.624   5.516   5.706 -0.1184  0.2161 -0.4213
 6798TIP3    H141809   5.597   5.608   5.707 -2.0720 -0.2923  1.3568
 6798TIP3    H241810   5.714   5.517   5.739  1.0268  1.6913 -3.2904
 6799TIP3   OH241811   6.129   5.525  13.838 -0.2909  0.0258 -0.1543
 6799TIP3    H141812   6.199   5.576  13.798  0.7492  0.2749  1.8458
 6799TIP3    H241813   6.073   5.590  13.881 -1.4680 -0.2171 -1.2748
 6800TIP3   OH241814   6.458   2.865   3.553 -0.0514  0.0157 -0.1117
 6800TIP3    H141815   6.406   2.857   3.633  2.6372  1.3084  1.9264
 6800TIP3    H241816   6.549   2.867   3.583  1.4319 -3.3332 -3.5138
 6801TIP3   OH241817   2.773   1.770   3.323 -0.0042 -0.3064  0.5597
 6801TIP3    H141818   2.846   1.789   3.265  0.0738 -0.3746  0.6353
 6801TIP3    H241819   2.776   1.840   3.388  1.2371 -1.4152  1.7596
 6802TIP3   OH241820   6.338   0.236  15.195  0.2096  0.6018  0.1979
 6802TIP3    H141821   6.256   0.208  15.154 -0.0175  0.3998  0.7691
 6802TIP3    H241822   6.407   0.198  15.140 -0.0892  0.2196  0.0800
 6803TIP3   OH241823   0.375   6.376  14.930 -0.3366  0.7913  0.2301
 6803TIP3    H141824   0.447   6.325  14.892 -1.9195 -0.0929 -1.7333
 6803TIP3    H241825   0.385   6.363  15.025  1.6824  0.1723 -0.0112
 6804TIP3   OH241826   0.709   5.959   5.211  0.0837  0.4200 -0.2263
 6804TIP3    H141827   0.621   5.963   5.173  0.4619  2.3167 -1.0276
 6804TIP3    H241828   0.694   5.960   5.305 -0.7691 -0.5912 -0.3292
 6805TIP3   OH241829   5.574   6.232  15.850  0.5661  0.2299 -0.2634
 6805TIP3    H141830   5.614   6.163  15.797 -1.1534 -0.7111 -0.3939
 6805TIP3    H241831   5.511   6.187  15.905  2.9845  1.0122  3.5163
 6806TIP3   OH241832   0.480   5.830   1.900  0.4676 -0.4424 -0.2170
 6806TIP3    H141833   0.394   5.833   1.858  0.6658  0.0435 -0.5873
 6806TIP3    H241834   0.464   5.860   1.990  0.5982  1.7327 -0.8683
 6807TIP3   OH241835   5.246   4.448  15.078  0.2366 -0.6979  0.0073
 6807TIP3    H141836   5.231   4.354  15.078  0.5912 -0.7633 -1.1745
 6807TIP3    H241837   5.337   4.458  15.049 -0.0499  0.0386 -0.6729
 6808TIP3   OH241838   1.104   3.914   3.889  0.1988  0.2833 -0.4460
 6808TIP3    H141839   1.075   3.988   3.942  0.1437 -0.9204  1.2655
 6808TIP3    H241840   1.035   3.849   3.897  0.5779 -0.2511 -1.3194
 6809TIP3   OH241841   4.497   1.514   0.648 -0.1984 -0.1726  0.5936
 6809TIP3    H141842   4.420   1.469   0.616 -1.4382  2.0743  0.1960
 6809TIP3    H241843   4.465   1.571   0.719  1.4419 -0.5773  1.7360
 6810TIP3   OH241844   2.907   4.904  13.516  0.3092  0.2370 -1.0927
 6810TIP3    H141845   2.962   4.934  13.588 -1.0577  0.2154 -0.0091
 6810TIP3    H241846   2.887   4.813  13.536 -0.3248  0.3157 -1.3277
 6811TIP3   OH241847   2.488   2.733   4.754 -0.6747  0.5670  0.0702
 6811TIP3    H141848   2.421   2.772   4.698  0.4223 -1.5056 -3.0081
 6811TIP3    H241849   2.455   2.645   4.773  0.2970  0.1868  0.0711
 6812TIP3   OH241850   5.242   2.180   2.036  0.1967 -0.1521 -0.7119
 6812TIP3    H141851   5.247   2.217   2.124 -2.5225  0.8833 -0.8932
 6812TIP3    H241852   5.332   2.151   2.017  1.2112  1.0898  1.7159
 6813TIP3   OH241853   4.896   0.935   3.334 -0.6399  0.2885 -0.2562
 6813TIP3    H141854   4.960   0.877   3.293 -0.3652  0.6691 -0.3671
 6813TIP3    H241855   4.811   0.906   3.300 -0.6608 -1.0155  0.8114
 6814TIP3   OH241856   3.273   5.420   0.586 -0.4704 -0.8590 -0.0694
 6814TIP3    H141857   3.229   5.393   0.667  2.7299 -0.7323  1.8788
 6814TIP3    H241858   3.343   5.355   0.575  2.1870  1.8063  0.0527
 6815TIP3   OH241859   2.829   2.688  15.467  0.6202  0.0925 -0.0565
 6815TIP3    H141860   2.760   2.754  15.478  1.2873  0.8944 -0.5381
 6815TIP3    H241861   2.782   2.606  15.455 -0.2348  0.1282  2.4627
 6816TIP3   OH241862   5.612   0.880   6.598  0.0633 -0.3304  0.5985
 6816TIP3    H141863   5.675   0.918   6.660 -0.6160  0.2008  0.9755
 6816TIP3    H241864   5.529   0.882   6.644 -0.2335 -1.0474  0.1077
 6817TIP3   OH241865   4.861   1.607   2.259 -0.5379  0.4229 -0.1313
 6817TIP3    H141866   4.767   1.615   2.244 -0.5750  2.4690  0.8391
 6817TIP3    H241867   4.883   1.682   2.315  1.7435  0.2602 -0.6994
 6818TIP3   OH241868   4.683   5.487  12.241 -0.2662  0.2517 -0.0262
 6818TIP3    H141869   4.717   5.446  12.321 -0.3527  0.4377  0.1058
 6818TIP3    H241870   4.686   5.580  12.259 -0.7970  0.2689 -0.0419
 6819TIP3   OH241871   6.077   0.309   2.959  0.3802  0.3330  0.9647
 6819TIP3    H141872   6.173   0.308   2.966  0.3985  0.5339  0.7749
 6819TIP3    H241873   6.058   0.392   2.915  0.0657  0.7080  1.7763
 6820TIP3   OH241874   6.654   5.732   5.209 -0.3708  0.4183 -0.3938
 6820TIP3    H141875   6.702   5.706   5.130  0.2103  0.3601 -0.0329
 6820TIP3    H241876   6.677   5.665   5.274  3.3016  3.0204  1.3906
 6821TIP3   OH241877   1.190   6.312   5.496  0.0228 -0.6410 -0.3853
 6821TIP3    H141878   1.177   6.229   5.450 -0.0746 -0.7000 -0.2509
 6821TIP3    H241879   1.284   6.314   5.515 -0.1593 -1.2632  0.6401
 6822TIP3   OH241880   6.455   6.177  13.660  0.0497 -0.7889 -0.0032
 6822TIP3    H141881   6.514   6.248  13.686 -0.3599 -0.5405  0.2573
 6822TIP3    H241882   6.375   6.193  13.710  0.2898 -1.9983  0.8124
 6823TIP3   OH241883   2.468   0.261   4.661 -0.3855 -0.0249  0.1706
 6823TIP3    H141884   2.553   0.282   4.624 -0.2071  1.1515  1.2114
 6823TIP3    H241885   2.487   0.220   4.745 -0.8371 -0.8057 -0.0902
 6824TIP3   OH241886   2.861   0.922   1.567  0.0105 -0.2686 -0.0558
 6824TIP3    H141887   2.806   0.848   1.591 -0.9639 -0.4497 -2.5597
 6824TIP3    H241888   2.847   0.933   1.473 -0.6729  3.6971  0.3106
 6825TIP3   OH241889   2.132   6.196   6.058  0.0747 -0.1051 -0.1827
 6825TIP3    H141890   2.112   6.174   5.967 -0.5248  0.6335 -0.2402
 6825TIP3    H241891   2.049   6.182   6.104 -0.7750  3.2408 -0.4525
 6826TIP3   OH241892   2.221   1.262   2.143 -0.2000 -0.0544 -0.3515
 6826TIP3    H141893   2.258   1.228   2.225 -1.2690  1.7011  0.9256
 6826TIP3    H241894   2.283   1.330   2.116 -1.1263  1.1184  0.4034
 6827TIP3   OH241895   4.143   3.322   4.395 -0.2506  0.0961  0.2372
 6827TIP3    H141896   4.156   3.299   4.487 -0.4574  1.5337  0.6539
 6827TIP3    H241897   4.110   3.242   4.355  0.8516 -0.8636  1.1707
 6828TIP3   OH241898   5.834   5.984   2.774 -0.2048  0.5980  0.1903
 6828TIP3    H141899   5.927   6.008   2.779  0.5906 -2.2592  1.5469
 6828TIP3    H241900   5.828   5.931   2.694  0.2270 -2.0061  1.7372
 6829TIP3   OH241901   1.703   6.613  16.365 -0.2064 -0.5151  0.4473
 6829TIP3    H141902   1.791   6.638  16.334 -1.1715  2.3425 -0.3753
 6829TIP3    H241903   1.676   6.543  16.306  0.8276 -0.1801 -0.4670
 6830TIP3   OH241904   5.373   5.589  12.740 -0.3811 -0.0644  0.8808
 6830TIP3    H141905   5.296   5.533  12.742  0.4384 -1.4281 -1.4449
 6830TIP3    H241906   5.365   5.639  12.658  1.1576 -0.2065  0.6025
 6831TIP3   OH241907   5.589   5.416   0.879  0.3706  1.0050 -0.4143
 6831TIP3    H141908   5.554   5.409   0.967 -0.3203  1.2696 -0.6675
 6831TIP3    H241909   5.678   5.380   0.886 -0.9354 -2.7171 -0.3842
 6832TIP3   OH241910   1.959   0.105   6.676  0.2559 -0.0519 -0.0948
 6832TIP3    H141911   1.954   0.025   6.624  1.3823  0.9741 -1.9071
 6832TIP3    H241912   2.010   0.166   6.622 -2.0884  2.5252  0.3837
 6833TIP3   OH241913   2.844   2.908  13.404  0.3043  0.4362  0.4484
 6833TIP3    H141914   2.929   2.953  13.408 -0.4241  2.2104 -2.0897
 6833TIP3    H241915   2.866   2.819  13.376  1.3816  0.5879  0.7407
 6834TIP3   OH241916   4.367   2.644  15.681 -0.2347 -0.5098 -0.2831
 6834TIP3    H141917   4.353   2.602  15.596  3.1162  0.3585 -1.4197
 6834TIP3    H241918   4.416   2.580  15.732 -0.0541 -0.1000  0.0639
 6835TIP3   OH241919   4.973   4.670  16.540 -0.3786  0.0141  0.2717
 6835TIP3    H141920   4.946   4.578  16.542  0.4333 -0.2111  1.3447
 6835TIP3    H241921   4.996   4.686  16.449  2.3050 -1.7109  0.5530
 6836TIP3   OH241922   5.594   5.403  14.212 -0.3648  0.0356  0.1726
 6836TIP3    H141923   5.530   5.463  14.172 -1.8927 -1.8183 -0.3436
 6836TIP3    H241924   5.564   5.316  14.185  2.3765 -0.9333 -0.0119
 6837TIP3   OH241925   0.067   4.869  14.588  0.7005  0.4121 -0.2643
 6837TIP3    H141926   0.093   4.781  14.614  1.7456  1.1657  1.3880
 6837TIP3    H241927   0.069   4.920  14.669 -2.4131  1.4023 -0.7051
 6838TIP3   OH241928   2.356   2.518  16.700 -0.6567 -0.4976 -0.0573
 6838TIP3    H141929   2.422   2.501  16.767 -1.0672 -0.4506  0.3737
 6838TIP3    H241930   2.299   2.584  16.740 -0.7402 -0.2553 -0.5703
 6839TIP3   OH241931   1.477   4.252  16.823 -0.4291  0.0215 -0.5827
 6839TIP3    H141932   1.566   4.254  16.786 -0.6489 -1.0354 -1.1989
 6839TIP3    H241933   1.432   4.325  16.781 -0.1097  0.0186 -0.9314
 6840TIP3   OH241934   6.107   4.771   2.208  0.1105  0.4974  0.1111
 6840TIP3    H141935   6.111   4.850   2.154  0.4405 -1.5150 -3.1147
 6840TIP3    H241936   6.198   4.749   2.224  0.0468  0.2549  0.1385
 6841TIP3   OH241937   4.235   5.983   3.911  0.4434 -0.3550  1.1798
 6841TIP3    H141938   4.251   5.897   3.949  1.4550 -1.5315 -1.6359
 6841TIP3    H241939   4.309   5.999   3.853 -1.1643  1.0253 -0.6589
 6842TIP3   OH241940   3.217   6.073   1.280 -0.0768  0.0262  0.1860
 6842TIP3    H141941   3.300   6.120   1.277 -0.3768  0.6431  1.1303
 6842TIP3    H241942   3.225   6.007   1.211  0.9099  0.5329 -0.2150
 6843TIP3   OH241943   3.301   0.872  14.747  0.4775  0.2070 -0.0998
 6843TIP3    H141944   3.206   0.875  14.729  0.4071 -0.1844  0.1912
 6843TIP3    H241945   3.317   0.781  14.771  0.6502  0.6031  1.3988
 6844TIP3   OH241946   1.561   5.311  15.656 -0.3228  0.0253 -0.0487
 6844TIP3    H141947   1.530   5.220  15.654 -1.8057  0.3945  2.3446
 6844TIP3    H241948   1.490   5.362  15.616  0.9318  0.1381 -2.3470
 6845TIP3   OH241949   2.642   1.300   1.600 -0.2947 -0.3132 -0.6418
 6845TIP3    H141950   2.633   1.395   1.591 -1.8601 -0.3219  0.3751
 6845TIP3    H241951   2.736   1.285   1.602  0.0406  1.4726  1.3007
 6846TIP3   OH241952   4.803   0.028  15.427 -0.1979 -0.5493 -0.0608
 6846TIP3    H141953   4.717   0.062  15.402 -0.6126 -1.1975  0.4350
 6846TIP3    H241954   4.859   0.106  15.430 -1.4642  0.3888  2.5261
 6847TIP3   OH241955   2.886   0.757  12.254 -0.4916 -0.4115 -0.4717
 6847TIP3    H141956   2.833   0.736  12.177 -0.6316  0.4687 -0.6265
 6847TIP3    H241957   2.951   0.687  12.258 -0.3399 -0.3553 -1.5301
 6848TIP3   OH241958   0.209   3.272  13.314 -0.1431 -0.1426  0.0557
 6848TIP3    H141959   0.149   3.205  13.347  1.6504 -1.8856 -0.0625
 6848TIP3    H241960   0.249   3.233  13.236  0.4137  1.3752 -0.4680
 6849TIP3   OH241961   2.937   1.182  11.333 -0.3150  0.0956 -0.6089
 6849TIP3    H141962   2.847   1.202  11.306 -0.6545 -0.5558 -0.0146
 6849TIP3    H241963   2.951   1.236  11.411 -0.8910 -1.1876  0.4282
 6850TIP3   OH241964   5.580   0.200   5.155 -0.1842 -0.0208  0.3530
 6850TIP3    H141965   5.491   0.172   5.179 -0.7890  0.4895 -1.1775
 6850TIP3    H241966   5.576   0.214   5.061  1.7889 -0.8605  0.1017
 6851TIP3   OH241967   3.183   4.905  11.578 -0.1906  0.0802 -0.0319
 6851TIP3    H141968   3.164   4.844  11.506  1.5838 -0.8285  0.2048
 6851TIP3    H241969   3.223   4.850  11.645 -1.9310  0.8824  1.7474
 6852TIP3   OH241970   2.767   0.711  16.454 -0.2188 -0.2317 -0.0202
 6852TIP3    H141971   2.816   0.642  16.500 -1.7932 -1.5188 -0.1756
 6852TIP3    H241972   2.760   0.679  16.364  0.9415  1.2309 -0.6800
 6853TIP3   OH241973   1.752   2.873  13.341  0.3437  0.0029  0.6289
 6853TIP3    H141974   1.749   2.819  13.262  0.2261 -1.3530  1.5337
 6853TIP3    H241975   1.811   2.945  13.318 -0.3797  0.1248 -0.9804
 6854TIP3   OH241976   1.842   2.167  11.529 -0.1313 -0.4201 -0.1417
 6854TIP3    H141977   1.931   2.173  11.563 -1.0915 -0.8979  2.7027
 6854TIP3    H241978   1.828   2.250  11.483  0.7079  1.2292  2.3479
 6855TIP3   OH241979   1.057   1.844   3.976  0.1513  0.6865  0.4868
 6855TIP3    H141980   0.981   1.901   3.989  0.3025  0.7290  1.1964
 6855TIP3    H241981   1.022   1.755   3.982 -0.1977  0.6635 -1.2347
 6856TIP3   OH241982   3.675   6.419  12.412 -0.2081  0.3830 -0.1510
 6856TIP3    H141983   3.639   6.495  12.457 -1.6210  0.0591 -0.6754
 6856TIP3    H241984   3.601   6.360  12.401  1.0507 -1.5637  1.1587
 6857TIP3   OH241985   6.772   1.769   5.775 -0.4928  0.4050 -0.5813
 6857TIP3    H141986   6.775   1.829   5.701 -1.5312  0.7070 -0.4012
 6857TIP3    H241987   6.746   1.685   5.738 -0.3548  0.3943 -0.6523
 6858TIP3   OH241988   6.482   4.076  12.300 -0.0329  0.3370  0.2164
 6858TIP3    H141989   6.438   3.993  12.316 -0.9307  0.8630  0.5173
 6858TIP3    H241990   6.542   4.058  12.228  1.9063 -1.3231  2.1034
 6859TIP3   OH241991   1.135   1.748  11.001  0.3672 -0.1211 -0.4502
 6859TIP3    H141992   1.203   1.758  11.068  0.1833  0.5665 -0.3606
 6859TIP3    H241993   1.134   1.832  10.956 -1.2378  0.3050  0.3209
 6860TIP3   OH241994   0.655   2.890  13.675 -0.0832 -0.0538  0.0712
 6860TIP3    H141995   0.678   2.923  13.761  0.5857 -1.2896  0.3934
 6860TIP3    H241996   0.733   2.841  13.646 -1.0451 -1.4062 -0.3231
 6861TIP3   OH241997   0.620   4.322  11.685  0.2641  0.0230 -0.8414
 6861TIP3    H141998   0.693   4.292  11.632  0.1596  0.6812 -1.3741
 6861TIP3    H241999   0.652   4.402  11.727 -0.9986  1.9205 -3.2558
 6862TIP3   OH242000   3.951   0.928   5.553  0.2840  0.3025 -0.2310
 6862TIP3    H142001   3.900   0.963   5.625  0.2528  1.0755 -0.6205
 6862TIP3    H242002   3.949   0.833   5.566 -0.9186  0.3463 -0.0311
 6863TIP3   OH242003   5.773   5.307   4.063 -0.4517 -0.2926 -0.0912
 6863TIP3    H142004   5.846   5.325   4.005  0.2430  0.0412  0.8686
 6863TIP3    H242005   5.717   5.246   4.013 -0.2426  0.5154 -1.3686
 6864TIP3   OH242006   5.557   3.216   0.148  0.3923 -0.3204  0.3087
 6864TIP3    H142007   5.569   3.164   0.069  0.5343 -0.6095  0.5141
 6864TIP3    H242008   5.606   3.297   0.132  1.1286 -0.7315  0.4296
 6865TIP3   OH242009   6.745   6.468   0.532  0.1622  0.6118  0.0216
 6865TIP3    H142010   6.692   6.514   0.468 -1.2110  0.9852  1.3885
 6865TIP3    H242011   6.770   6.535   0.595  0.6781  0.0589  0.4150
 6866TIP3   OH242012   6.005   5.900  15.774  0.2959 -0.0424 -0.6436
 6866TIP3    H142013   6.004   5.896  15.870 -0.4388  0.8207 -0.6069
 6866TIP3    H242014   6.058   5.825  15.748  0.0208 -0.6291  0.4219
 6867TIP3   OH242015   2.657   5.973  14.445  0.5640  0.4178 -0.2751
 6867TIP3    H142016   2.717   5.927  14.385  0.9260  3.0994 -2.1143
 6867TIP3    H242017   2.572   5.933  14.428  1.2942 -1.5103  0.3170
 6868TIP3   OH242018   5.344   6.436   4.323  0.0889 -0.2153  0.4012
 6868TIP3    H142019   5.376   6.349   4.298 -2.0103 -0.6675 -0.8879
 6868TIP3    H242020   5.350   6.488   4.243  0.7478  0.6968  1.0171
 6869TIP3   OH242021   4.730   3.978   0.335 -0.2863  0.1279  0.7852
 6869TIP3    H142022   4.673   3.972   0.259 -0.4821 -1.8380  1.0282
 6869TIP3    H242023   4.819   3.979   0.299 -0.4069  0.4363  0.4968
 6870TIP3   OH242024   0.341   1.002   1.828  0.1408  0.5084  0.4194
 6870TIP3    H142025   0.299   1.018   1.743 -2.1741  0.5256  1.4909
 6870TIP3    H242026   0.341   1.087   1.871 -1.6472 -0.0575  1.6412
 6871TIP3   OH242027   5.365   2.037   3.211  0.4261  0.2558  0.3424
 6871TIP3    H142028   5.422   1.968   3.245  1.6288  0.9546 -0.1886
 6871TIP3    H242029   5.399   2.117   3.251 -0.1210  0.6918 -0.0613
 6872TIP3   OH242030   4.996   5.488   0.709 -0.1564 -0.0764 -0.4056
 6872TIP3    H142031   4.910   5.459   0.679 -0.2175 -1.5705  1.1306
 6872TIP3    H242032   5.007   5.574   0.667 -1.6052 -0.6119 -2.0413
 6873TIP3   OH242033   5.095   0.842   4.654 -1.0999  0.0159 -0.5397
 6873TIP3    H142034   5.015   0.876   4.614 -0.6644 -0.0059 -1.4448
 6873TIP3    H242035   5.130   0.781   4.590 -0.5048 -0.1918 -0.0272
 6874TIP3   OH242036   6.145   2.348  14.521 -0.1349 -0.1718  0.1672
 6874TIP3    H142037   6.229   2.365  14.562 -0.0855  0.3052 -0.1244
 6874TIP3    H242038   6.164   2.288  14.449  0.2638  1.3821 -1.0795
 6875TIP3   OH242039   2.398   1.084  13.033  0.4342 -0.1630 -0.2596
 6875TIP3    H142040   2.327   1.088  12.968  1.3574  0.6444 -1.2754
 6875TIP3    H242041   2.470   1.041  12.986  0.2234 -2.2671  1.1986
 6876TIP3   OH242042   1.968   3.464   2.826  0.4131  0.2969  0.3615
 6876TIP3    H142043   1.905   3.520   2.870 -0.5740 -0.6084  0.1449
 6876TIP3    H242044   1.936   3.375   2.841  0.3036 -0.0703 -1.7593
 6877TIP3   OH242045   1.101   2.157  13.358  0.0828  0.1880  0.2082
 6877TIP3    H142046   1.062   2.238  13.323 -0.1312  0.1849  0.4294
 6877TIP3    H242047   1.106   2.098  13.283 -0.9524 -0.0389  0.3054
 6878TIP3   OH242048   6.176   0.387   4.114 -0.4727  0.2098  1.2611
 6878TIP3    H142049   6.216   0.473   4.131  2.2105 -0.3592 -1.2894
 6878TIP3    H242050   6.093   0.390   4.161 -0.2823  4.0041  1.7037
 6879TIP3   OH242051   3.221   6.353  12.284  0.0006 -0.1351  0.0274
 6879TIP3    H142052   3.233   6.280  12.345  3.0400  1.0486  1.0567
 6879TIP3    H242053   3.205   6.311  12.199  0.4019 -1.9623  0.8102
 6880TIP3   OH242054   3.533   2.841   6.046 -0.4613  0.3539 -0.1488
 6880TIP3    H142055   3.626   2.851   6.029 -0.4832 -0.9887 -1.1975
 6880TIP3    H242056   3.513   2.910   6.109  0.8210  1.8923 -1.3643
 6881TIP3   OH242057   4.103   0.424   1.764  0.0509 -0.2621  0.4225
 6881TIP3    H142058   4.029   0.397   1.819 -1.5943  1.8643 -0.6055
 6881TIP3    H242059   4.136   0.504   1.806  1.7174 -1.1020  0.7793
 6882TIP3   OH242060   0.193   3.910   0.255 -0.3533 -0.5937 -0.5451
 6882TIP3    H142061   0.212   3.985   0.312  2.1051 -0.9080 -0.8823
 6882TIP3    H242062   0.168   3.950   0.171 -3.5388 -0.1403  0.4547
 6883TIP3   OH242063   5.761   1.043   5.024  1.1182 -0.0561 -0.5580
 6883TIP3    H142064   5.702   1.098   4.973  0.1194  0.7173  1.3386
 6883TIP3    H242065   5.803   0.987   4.960 -2.9043 -1.8811 -1.9442
 6884TIP3   OH242066   0.192   2.633  13.043  0.4061  0.4739 -0.5502
 6884TIP3    H142067   0.107   2.589  13.037  1.1595 -1.0255 -0.6825
 6884TIP3    H242068   0.171   2.720  13.080 -1.0319 -0.3286  0.6610
 6885TIP3   OH242069   3.828   5.239   4.427 -0.2739  0.4782  0.0452
 6885TIP3    H142070   3.788   5.204   4.507  0.1339  1.3092  0.6239
 6885TIP3    H242071   3.769   5.212   4.357 -1.8717  1.6792  0.8675
 6886TIP3   OH242072   6.172   4.493   0.134 -0.4910  0.0623  0.1152
 6886TIP3    H142073   6.145   4.573   0.088 -1.6955 -0.2406  0.2791
 6886TIP3    H242074   6.244   4.522   0.191 -0.6399  0.9459 -0.1268
 6887TIP3   OH242075   3.384   3.070   3.032 -0.4289  0.2131 -0.3967
 6887TIP3    H142076   3.400   3.048   3.123 -2.3548 -1.0314 -0.2979
 6887TIP3    H242077   3.470   3.065   2.990  0.2344 -0.7551  1.0238
 6888TIP3   OH242078   5.299   6.117   5.832 -0.1865  0.3758 -0.2357
 6888TIP3    H142079   5.311   6.058   5.906 -0.0105  1.1778  0.3927
 6888TIP3    H242080   5.213   6.157   5.846 -1.3073 -1.3057 -1.8168
 6889TIP3   OH242081   2.686   3.028  16.369 -0.3250 -0.0120  0.4085
 6889TIP3    H142082   2.625   2.957  16.349  0.7779 -0.3788 -1.8538
 6889TIP3    H242083   2.755   2.987  16.422 -0.6662 -0.1746  0.7345
 6890TIP3   OH242084   6.085   3.131  16.785 -0.2757 -0.1984 -0.1630
 6890TIP3    H142085   6.120   3.165  16.702  3.6549 -0.8690  1.0134
 6890TIP3    H242086   6.138   3.054  16.803 -0.9396 -0.0258  3.0348
 6891TIP3   OH242087   5.278   0.014  13.761  0.2038  0.0395 -0.3081
 6891TIP3    H142088   5.197   0.010  13.710  0.5070 -1.3929 -0.7355
 6891TIP3    H242089   5.318  -0.072  13.748  2.1563  0.9527 -0.6855
 6892TIP3   OH242090   3.987   0.689  14.730 -0.2667  0.3545  0.2220
 6892TIP3    H142091   3.980   0.767  14.785  1.3222 -0.4249  1.6122
 6892TIP3    H242092   4.071   0.697  14.685 -0.0019 -0.6094  0.5124
 6893TIP3   OH242093   4.430   5.091  13.125 -0.1280 -0.1202 -0.3270
 6893TIP3    H142094   4.419   5.077  13.219 -0.8631 -0.4415 -0.4567
 6893TIP3    H242095   4.429   5.003  13.088  0.4051 -0.0096 -0.6170
 6894TIP3   OH242096   1.307   3.578   1.922 -0.0941 -0.2329  0.2654
 6894TIP3    H142097   1.227   3.553   1.968 -0.8744 -0.0774 -0.9596
 6894TIP3    H242098   1.283   3.576   1.830  1.1716  0.3566 -0.0995
 6895TIP3   OH242099   6.280   3.474  15.498 -0.1067 -0.4421  0.2746
 6895TIP3    H142100   6.241   3.408  15.440 -1.2442 -0.3027  0.8453
 6895TIP3    H242101   6.314   3.425  15.572 -1.6808 -0.3501  1.0924
 6896TIP3   OH242102   0.372   5.325  13.990  0.2964 -0.0144  0.1040
 6896TIP3    H142103   0.365   5.276  13.909 -1.4182 -0.6422  0.5784
 6896TIP3    H242104   0.420   5.405  13.966  0.7274 -0.6591 -1.2706
 6897TIP3   OH242105   0.795   1.687  15.743  0.0031  0.5318  0.4103
 6897TIP3    H142106   0.804   1.644  15.658  1.1201  1.2872  0.1191
 6897TIP3    H242107   0.881   1.727  15.759 -0.3205  0.7680  1.6950
 6898TIP3   OH242108   5.057   1.940   0.393  0.4969 -0.0142  0.2996
 6898TIP3    H142109   5.096   1.862   0.351  0.7004 -0.1621  0.7619
 6898TIP3    H242110   4.983   1.906   0.442  0.4109  0.1263  0.2676
 6899TIP3   OH242111   3.691   4.503   2.272 -0.0431  0.3868 -0.3673
 6899TIP3    H142112   3.726   4.591   2.284 -2.1596  1.3222 -0.6987
 6899TIP3    H242113   3.666   4.498   2.180  0.1114 -0.5937 -0.3741
 6900TIP3   OH242114   5.463   6.031   3.773 -0.3189  0.4137  0.1910
 6900TIP3    H142115   5.421   5.945   3.776 -0.1861  0.3515  0.2658
 6900TIP3    H242116   5.557   6.012   3.777 -0.3041  0.5893  0.8114
 6901TIP3   OH242117   5.070   0.827  13.023 -0.3181 -0.1988 -0.0736
 6901TIP3    H142118   5.138   0.893  13.008 -1.3938  1.0827  0.4967
 6901TIP3    H242119   5.064   0.780  12.940  1.2718 -0.3832 -0.1317
 6902TIP3   OH242120   1.500   6.806   0.556 -0.7045 -0.4156  0.0300
 6902TIP3    H142121   1.582   6.822   0.602  0.4273  2.5156 -2.6329
 6902TIP3    H242122   1.432   6.839   0.615  0.4236  0.7920  0.7048
 6903TIP3   OH242123   5.108   2.663  13.344 -0.3452 -0.2307  0.1670
 6903TIP3    H142124   5.032   2.676  13.401 -0.0760  1.1639  0.2380
 6903TIP3    H242125   5.183   2.676  13.402 -0.0663  0.8058 -0.4156
 6904TIP3   OH242126   6.791   6.099  16.722  0.2238 -0.5820  0.5307
 6904TIP3    H142127   6.719   6.147  16.682  0.4408 -1.4187 -0.9499
 6904TIP3    H242128   6.749   6.038  16.783 -0.3650 -1.2117 -0.4799
 6905TIP3   OH242129   6.465   6.591  11.342 -0.0990 -0.0014 -0.7173
 6905TIP3    H142130   6.540   6.547  11.380  1.6069  1.0632 -2.6456
 6905TIP3    H242131   6.503   6.655  11.281 -2.5366  1.4476 -0.8551
 6906TIP3   OH242132   0.400   5.563  11.339 -0.2643  0.1669  0.1240
 6906TIP3    H142133   0.355   5.506  11.401 -1.8754 -0.4369 -1.4832
 6906TIP3    H242134   0.393   5.517  11.255  4.2208 -0.4180 -0.1745
 6907TIP3   OH242135   3.538   4.330   1.436 -0.4055 -0.3657  0.4841
 6907TIP3    H142136   3.542   4.341   1.341  0.2616 -0.5391  0.4894
 6907TIP3    H242137   3.602   4.262   1.455 -0.3810 -0.1805  1.0840
 6908TIP3   OH242138   1.463   4.593   2.644 -0.2491  0.1293 -0.3530
 6908TIP3    H142139   1.431   4.504   2.635  0.5549 -0.2486  0.3905
 6908TIP3    H242140   1.558   4.585   2.639  0.0717  0.4572  3.1238
 6909TIP3   OH242141   2.143   6.018   4.413 -0.3935 -0.1840 -0.4688
 6909TIP3    H142142   2.232   5.994   4.436 -0.2258  0.4839 -0.4121
 6909TIP3    H242143   2.101   6.040   4.497 -0.6995 -0.7884 -0.4617
 6910TIP3   OH242144   6.046   2.766  13.389  0.8369 -0.0744 -0.0347
 6910TIP3    H142145   6.008   2.831  13.449 -0.8967 -1.5700  0.5691
 6910TIP3    H242146   6.113   2.815  13.342  0.3040  1.9011  1.1016
 6911TIP3   OH242147   0.119   0.044  15.651 -0.0152  0.1733 -0.1452
 6911TIP3    H142148   0.122  -0.032  15.710 -0.7265  0.4028  0.1955
 6911TIP3    H242149   0.208   0.079  15.653 -0.3765  1.1272  2.0811
 6912TIP3   OH242150   4.719   4.801  16.345 -0.4165  0.3099 -0.5486
 6912TIP3    H142151   4.674   4.736  16.399  1.2492 -0.5202 -0.0788
 6912TIP3    H242152   4.649   4.847  16.299 -1.6408 -2.1916 -1.3530
 6913TIP3   OH242153   1.104   3.221  10.435 -0.6790 -0.1946 -0.2176
 6913TIP3    H142154   1.096   3.314  10.455 -2.3436 -0.0998 -1.1721
 6913TIP3    H242155   1.194   3.212  10.404 -0.6785  1.2403 -0.7399
 6914TIP3   OH242156   4.179   3.661  15.131 -0.1053  0.1260 -0.3829
 6914TIP3    H142157   4.182   3.673  15.036  0.6053  0.9220 -0.2687
 6914TIP3    H242158   4.135   3.577  15.143 -0.3631  0.1021 -1.4080
 6915TIP3   OH242159   5.200   2.739  13.936  0.5571  0.1948 -0.5906
 6915TIP3    H142160   5.123   2.775  13.893  1.1875  1.5072 -0.6806
 6915TIP3    H242161   5.165   2.685  14.007 -0.4737  2.2934  0.6085
 6916TIP3   OH242162   1.517   5.134  16.768  0.0418  0.2327  0.4118
 6916TIP3    H142163   1.423   5.124  16.783  0.1467 -2.6057 -0.3717
 6916TIP3    H242164   1.555   5.050  16.793  1.8808 -0.0148 -2.6822
 6917TIP3   OH242165   4.698   0.266   1.568 -0.0367 -0.1390  0.2702
 6917TIP3    H142166   4.668   0.175   1.558 -0.3597 -0.1591  1.3256
 6917TIP3    H242167   4.634   0.318   1.520  0.9402 -0.5544 -1.5902
 6918TIP3   OH242168   3.846   0.614  11.829 -0.4651  0.1729  0.6173
 6918TIP3    H142169   3.922   0.644  11.778 -0.2780  0.0192  0.8035
 6918TIP3    H242170   3.844   0.520  11.814  0.1447 -0.0119  1.6333
 6919TIP3   OH242171   3.391   3.681  15.707  0.1476 -0.8725 -0.4631
 6919TIP3    H142172   3.303   3.697  15.742 -1.0074  0.7377 -3.7007
 6919TIP3    H242173   3.418   3.599  15.748 -2.1117 -0.5898  1.9156
 6920TIP3   OH242174   6.498   2.079  12.764 -0.2770 -0.5931 -0.2119
 6920TIP3    H142175   6.542   2.074  12.848  0.2973  1.7440 -0.3220
 6920TIP3    H242176   6.554   2.134  12.710 -2.3766  0.9980 -0.9372
 6921TIP3   OH242177   3.181   4.499   2.705 -0.0921 -0.0537  0.0815
 6921TIP3    H142178   3.114   4.495   2.773  0.4673  1.7659  0.8266
 6921TIP3    H242179   3.263   4.484   2.752  0.1148 -1.3499 -0.6626
 6922TIP3   OH242180   2.349   1.819  14.357  0.1412 -0.7176 -0.1010
 6922TIP3    H142181   2.435   1.857  14.376 -0.3059 -0.6068  1.8836
 6922TIP3    H242182   2.292   1.894  14.341  0.1009 -0.7272 -0.0035
 6923TIP3   OH242183   3.921   3.859  14.069 -0.0390  0.4055 -0.2024
 6923TIP3    H142184   3.985   3.923  14.102 -1.6204  1.9321  0.0701
 6923TIP3    H242185   3.874   3.830  14.147 -0.2460 -0.0555 -0.4975
 6924TIP3   OH242186   0.317   4.397  12.536  0.6951 -0.0503 -0.1260
 6924TIP3    H142187   0.327   4.485  12.573  2.4768 -0.3463  0.2011
 6924TIP3    H242188   0.317   4.411  12.441  0.8583  0.3252 -0.0757
 6925TIP3   OH242189   0.856   5.029  16.584  0.3543 -0.2837  0.2804
 6925TIP3    H142190   0.899   4.984  16.657 -0.5832  1.2765  1.8673
 6925TIP3    H242191   0.769   4.989  16.581  0.1203  0.2034  0.5467
 6926TIP3   OH242192   4.500   2.805  14.965 -0.1933  0.4098 -0.4493
 6926TIP3    H142193   4.537   2.766  15.044  1.5264 -1.3276 -1.9961
 6926TIP3    H242194   4.445   2.877  14.997  1.0123  0.2602  2.2543
 6927TIP3   OH242195   2.142   6.552  11.413 -0.0773 -0.3232  0.3601
 6927TIP3    H142196   2.203   6.556  11.487  0.4042  0.1327 -0.0562
 6927TIP3    H242197   2.056   6.537  11.454  0.1723 -0.0140  1.0199
 6928TIP3   OH242198   4.512   4.520  14.765 -0.2376  0.1167  0.6992
 6928TIP3    H142199   4.557   4.592  14.721  1.2343 -1.9704 -1.4858
 6928TIP3    H242200   4.574   4.489  14.831  2.0138 -2.9279 -2.4851
 6929TIP3   OH242201   5.264   1.717  11.989 -0.1040  0.5733 -0.2927
 6929TIP3    H142202   5.234   1.626  11.994  1.9267 -0.3276 -2.5895
 6929TIP3    H242203   5.221   1.752  11.910  2.6368  0.0196 -2.1858
 6930TIP3   OH242204   3.765   4.762   2.341 -0.4991 -0.0020  0.4919
 6930TIP3    H142205   3.853   4.786   2.368 -0.2788  0.6306 -0.7010
 6930TIP3    H242206   3.748   4.816   2.264 -2.2643  0.5109  1.1885
 6931TIP3   OH242207   3.884   4.900  13.736 -0.1255  0.2205 -0.4662
 6931TIP3    H142208   3.800   4.855  13.744  1.1933 -2.2281  0.8923
 6931TIP3    H242209   3.941   4.837  13.693  1.6360  0.8672  0.7799
 6932TIP3   OH242210   0.085   3.173   3.869 -0.1832 -0.3695 -0.6055
 6932TIP3    H142211   0.038   3.194   3.950  2.4240 -0.1470  0.9416
 6932TIP3    H242212   0.084   3.254   3.819 -1.8499 -0.5178 -0.8947
 6933TIP3   OH242213   4.150   0.633   4.003  0.3774 -0.4859  0.2907
 6933TIP3    H142214   4.126   0.540   4.010  1.7018 -0.8712  0.0128
 6933TIP3    H242215   4.127   0.670   4.088 -0.4068 -1.0002  0.3180
 6934TIP3   OH242216   4.735   5.426   5.568  0.1706  0.5698  0.5958
 6934TIP3    H142217   4.694   5.512   5.579 -0.4242  0.2165  1.3334
 6934TIP3    H242218   4.801   5.422   5.637  1.1132  0.9418 -0.2775
 6935TIP3   OH242219   0.901   0.867   4.284 -0.3493 -0.2675 -0.1797
 6935TIP3    H142220   0.954   0.798   4.246 -0.6726 -1.4334  1.3900
 6935TIP3    H242221   0.909   0.940   4.223 -0.6262 -1.9228 -2.3234
 6936TIP3   OH242222   4.604   3.622  16.821  0.1632  0.4883 -0.3522
 6936TIP3    H142223   4.682   3.585  16.779  0.5625  2.1823 -1.1956
 6936TIP3    H242224   4.633   3.707  16.854 -1.3407  1.2277 -0.8207
 6937TIP3   OH242225   1.753   0.829  11.222  0.2908  0.5264 -0.1295
 6937TIP3    H142226   1.802   0.908  11.245  1.1169 -0.1066  0.3248
 6937TIP3    H242227   1.680   0.827  11.284 -0.2664  1.4137 -0.7384
 6938TIP3   OH242228   5.825   5.097   1.520  0.4706  0.2792  0.7946
 6938TIP3    H142229   5.771   5.036   1.570  0.2485  0.1138  0.3574
 6938TIP3    H242230   5.883   5.137   1.585  1.2192 -1.0336  0.9552
 6939TIP3   OH242231   1.386   4.840   5.924 -0.1606  0.5122 -0.0206
 6939TIP3    H142232   1.416   4.818   5.835 -0.7333  3.4710 -1.0579
 6939TIP3    H242233   1.460   4.815   5.980  1.4130  1.1564 -1.6876
 6940TIP3   OH242234   1.009   1.758   2.391  0.2993  0.3378  0.4488
 6940TIP3    H142235   0.957   1.824   2.345  1.1471  0.1889 -0.7791
 6940TIP3    H242236   1.041   1.802   2.469  0.7678  1.3572 -0.3005
 6941TIP3   OH242237   5.598   0.240  12.041 -0.0972  0.0210  0.1385
 6941TIP3    H142238   5.599   0.147  12.020 -0.4910  0.4041 -1.7218
 6941TIP3    H242239   5.558   0.245  12.128  0.2052 -1.5595  0.3872
 6942TIP3   OH242240   4.581   4.982   3.630  0.6019  0.3125  0.3336
 6942TIP3    H142241   4.524   4.947   3.562  2.2537  1.8480 -1.9991
 6942TIP3    H242242   4.650   4.917   3.641 -0.2003 -0.4087  1.3776
 6943TIP3   OH242243   1.742   0.584  13.910 -0.0211 -0.7261 -0.5342
 6943TIP3    H142244   1.677   0.514  13.907 -0.0062 -0.7068 -1.9312
 6943TIP3    H242245   1.825   0.538  13.924 -0.1986 -0.8405  0.1828
 6944TIP3   OH242246   4.510   0.186  10.529  0.5097  0.2367  0.3273
 6944TIP3    H142247   4.554   0.120  10.583  3.2871  1.5829 -0.1076
 6944TIP3    H242248   4.545   0.269  10.560  0.2415  1.2261 -1.8681
 6945TIP3   OH242249   4.257   0.501   6.163 -0.2363  0.6427  0.1100
 6945TIP3    H142250   4.208   0.537   6.237 -1.3617  3.1118 -1.6864
 6945TIP3    H242251   4.345   0.539   6.173  0.4438 -1.1367  1.5138
 6946TIP3   OH242252   6.141   1.294   1.555 -0.3087 -0.3241  0.7005
 6946TIP3    H142253   6.168   1.209   1.590 -0.7112 -0.9118 -0.3527
 6946TIP3    H242254   6.077   1.327   1.617 -0.8484 -1.2370  0.6467
 6947TIP3   OH242255   0.919   2.878   5.530  0.0737  0.6078 -0.2567
 6947TIP3    H142256   0.918   2.957   5.476 -0.8633  0.6219 -0.2312
 6947TIP3    H242257   0.827   2.851   5.536  0.2278  0.2760  0.8488
 6948TIP3   OH242258   4.051   3.925   3.018 -0.3988  0.0623 -0.1920
 6948TIP3    H142259   4.135   3.946   3.059 -1.0113  1.6191  0.3430
 6948TIP3    H242260   3.987   3.931   3.089 -1.1425  0.2828 -0.8589
 6949TIP3   OH242261   5.686   0.299  13.224  0.4820 -0.4736 -0.9871
 6949TIP3    H142262   5.751   0.362  13.254 -1.0382  0.4002  0.6160
 6949TIP3    H242263   5.681   0.234  13.294  0.0547 -0.8642 -1.3746
 6950TIP3   OH242264   6.758   0.672  11.747 -0.1441  0.5537 -0.4222
 6950TIP3    H142265   6.818   0.724  11.694 -0.2747  1.9801  0.7956
 6950TIP3    H242266   6.783   0.581  11.727  1.5551  1.0800 -0.9064
 6951TIP3   OH242267   3.253   2.589  10.445 -0.4573  0.1308 -0.1198
 6951TIP3    H142268   3.161   2.599  10.467 -0.1406  0.0739  1.3054
 6951TIP3    H242269   3.262   2.496  10.422 -1.0919  0.5113 -2.0642
 6952TIP3   OH242270   1.690   5.788  12.795  0.4145  0.2913  0.6524
 6952TIP3    H142271   1.663   5.732  12.722  0.7047 -0.3943  1.0647
 6952TIP3    H242272   1.608   5.828  12.826  0.1541 -0.2077  0.6066
 6953TIP3   OH242273   1.356   0.854  13.143 -0.6946  0.3817 -0.2333
 6953TIP3    H142274   1.261   0.855  13.129 -0.6628  0.4533 -0.4468
 6953TIP3    H242275   1.393   0.832  13.058 -0.5889 -1.5728  0.2485
 6954TIP3   OH242276   4.035   6.482  15.844  0.1000 -0.1990 -0.0258
 6954TIP3    H142277   4.094   6.558  15.843 -1.1014  0.7684 -0.1484
 6954TIP3    H242278   4.014   6.470  15.937 -0.7951  0.5055 -0.1291
 6955TIP3   OH242279   3.849   1.855   5.134 -0.7919  0.7029  0.0321
 6955TIP3    H142280   3.778   1.859   5.198  1.3381  0.4360  2.6168
 6955TIP3    H242281   3.847   1.940   5.091 -1.2542  1.6145  1.7404
 6956TIP3   OH242282   1.146   6.339   5.086  0.3546  0.5398  0.0701
 6956TIP3    H142283   1.133   6.388   5.005 -0.3072 -0.7217 -0.6167
 6956TIP3    H242284   1.108   6.253   5.069  1.0355 -0.0631  1.4081
 6957TIP3   OH242285   6.368   6.378   3.131  0.5587 -0.1716  0.4891
 6957TIP3    H142286   6.435   6.310   3.132 -0.0507 -0.7818  0.2274
 6957TIP3    H242287   6.314   6.359   3.055  2.3393  2.5727 -1.6689
 6958TIP3   OH242288   4.513   1.101  14.226  0.2715  0.1371  0.4060
 6958TIP3    H142289   4.565   1.179  14.204  0.0206  0.1947  0.0119
 6958TIP3    H242290   4.493   1.111  14.319 -1.4003  1.5246 -0.0525
 6959TIP3   OH242291   1.319   2.696  13.538 -0.6542  0.2593  0.4500
 6959TIP3    H142292   1.288   2.623  13.591 -1.9328 -0.3926 -1.1104
 6959TIP3    H242293   1.279   2.773  13.579  0.0761  0.0359  1.6402
 6960TIP3   OH242294   3.633   0.092  11.482 -0.4904  0.1092  0.2905
 6960TIP3    H142295   3.671   0.127  11.402 -3.0885  3.8648  0.4098
 6960TIP3    H242296   3.562   0.036  11.453 -0.7811  0.6423 -0.0359
 6961TIP3   OH242297   4.471   3.850  10.541  0.0705  0.0803 -0.1874
 6961TIP3    H142298   4.463   3.912  10.469 -0.6913  2.6796  1.9766
 6961TIP3    H242299   4.561   3.859  10.572  1.3536 -3.1873 -2.4730
 6962TIP3   OH242300   1.966   4.905   3.727 -0.0133  0.2484 -0.5216
 6962TIP3    H142301   1.973   4.919   3.821  2.0265  0.9819 -0.7354
 6962TIP3    H242302   2.009   4.821   3.711 -3.3746 -1.6667 -0.4737
 6963TIP3   OH242303   0.058   4.802  12.301  0.3169  0.1293  0.4604
 6963TIP3    H142304   0.120   4.870  12.271  1.8032 -0.1327  2.6982
 6963TIP3    H242305   0.090   4.777  12.388 -1.2540 -2.1668  0.4676
 6964TIP3   OH242306   5.423   5.789  14.183  0.0294  0.4835  0.1321
 6964TIP3    H142307   5.357   5.774  14.250  1.4477 -0.4163  1.3994
 6964TIP3    H242308   5.373   5.810  14.104 -1.6983  1.4845  1.4199
 6965TIP3   OH242309   0.881   0.266  11.863 -0.2295  0.3963  0.6498
 6965TIP3    H142310   0.823   0.221  11.802 -0.5125  0.0651  1.1597
 6965TIP3    H242311   0.898   0.351  11.821 -0.1752  0.0590 -0.0259
 6966TIP3   OH242312   4.777   3.517   4.748 -0.0449  0.3356 -0.0810
 6966TIP3    H142313   4.832   3.595   4.753  0.0804  0.3054 -0.7935
 6966TIP3    H242314   4.691   3.547   4.777  0.4755  0.2229  1.6829
 6967TIP3   OH242315   6.691   0.852   0.129  0.1163  0.2600 -0.0127
 6967TIP3    H142316   6.598   0.865   0.149 -0.4668 -2.4623 -0.5770
 6967TIP3    H242317   6.698   0.874   0.036 -0.1808 -0.4262 -0.2021
 6968TIP3   OH242318   3.614   3.372  12.468 -0.4042 -0.3690  0.8917
 6968TIP3    H142319   3.563   3.438  12.515 -0.4529 -0.0325  0.3786
 6968TIP3    H242320   3.549   3.307  12.441 -1.3378  1.7712 -2.8631
 6969TIP3   OH242321   1.023   2.201   2.504  0.1506 -0.5292  0.4191
 6969TIP3    H142322   0.981   2.287   2.511  1.6372  0.2840 -0.1292
 6969TIP3    H242323   0.997   2.169   2.417  4.3167  2.1582 -2.1558
 6970TIP3   OH242324   6.143   4.824   1.723 -0.5301  0.4014  0.0203
 6970TIP3    H142325   6.128   4.765   1.797 -0.9824  0.2156 -0.2175
 6970TIP3    H242326   6.218   4.785   1.677 -0.3795  0.4031  0.2610
 6971TIP3   OH242327   1.487   4.911   2.783  0.9707 -0.1120  0.5357
 6971TIP3    H142328   1.540   4.842   2.823  0.4594 -0.5427  0.4947
 6971TIP3    H242329   1.532   4.933   2.702  2.3711  1.2273  1.6455
 6972TIP3   OH242330   3.515   0.954  14.138  0.4909  0.2406 -0.2190
 6972TIP3    H142331   3.590   0.929  14.193  2.8198  1.4042 -2.6281
 6972TIP3    H242332   3.494   1.043  14.166  0.5550  0.2155 -0.0907
 6973TIP3   OH242333   1.478   0.452   5.077  0.3787 -0.0451  0.0744
 6973TIP3    H142334   1.434   0.537   5.076 -0.5777 -0.5205 -0.6398
 6973TIP3    H242335   1.406   0.389   5.081  1.0900 -0.8195  1.1406
 6974TIP3   OH242336   0.099   3.838  10.206 -0.0129 -0.5862  0.4924
 6974TIP3    H142337   0.129   3.748  10.219  1.3561 -0.4355 -1.2262
 6974TIP3    H242338   0.029   3.832  10.142 -0.8272 -0.5302  1.3586
 6975TIP3   OH242339   5.080   0.753  16.300  0.3280  0.4061 -0.3489
 6975TIP3    H142340   5.078   0.675  16.244  0.3147  1.2980 -1.6556
 6975TIP3    H242341   5.012   0.737  16.366 -0.2699 -0.3312 -1.1108
 6976TIP3   OH242342   6.223   3.572   5.170 -0.1376  0.6508 -0.3132
 6976TIP3    H142343   6.189   3.483   5.170 -0.9145  0.8930  1.4336
 6976TIP3    H242344   6.305   3.566   5.122 -0.4378 -0.8915 -0.6968
 6977TIP3   OH242345   6.746   0.272  13.210  0.1415 -0.2237 -0.1576
 6977TIP3    H142346   6.656   0.242  13.204  0.1894 -0.1501 -1.5919
 6977TIP3    H242347   6.796   0.210  13.157  0.3585  1.8037 -2.4980
 6978TIP3   OH242348   2.179   6.444  14.950  0.2720 -0.3879 -0.1128
 6978TIP3    H142349   2.208   6.474  14.864 -1.4507  0.9694 -0.2896
 6978TIP3    H242350   2.087   6.419  14.937 -0.0617 -0.0330  1.3430
 6979TIP3   OH242351   3.565   3.906  11.015  0.2946  0.1005  0.2666
 6979TIP3    H142352   3.495   3.847  10.986 -0.2754 -0.9987  3.5021
 6979TIP3    H242353   3.544   3.989  10.973 -1.8420 -0.6892 -0.3802
 6980TIP3   OH242354   3.831   2.556   2.608 -0.1642 -0.2198  0.1723
 6980TIP3    H142355   3.890   2.618   2.565 -0.7023 -0.0813 -0.3884
 6980TIP3    H242356   3.812   2.596   2.693 -1.2183  0.8541 -0.5323
 6981TIP3   OH242357   4.753   3.732   2.732  0.2702  0.2526  0.0150
 6981TIP3    H142358   4.795   3.672   2.671  1.7612 -0.7290  1.9034
 6981TIP3    H242359   4.795   3.816   2.714 -1.2341  0.6526 -2.0676
 6982TIP3   OH242360   0.378   2.280  14.032 -0.6801 -0.0398 -0.2025
 6982TIP3    H142361   0.301   2.275  13.976 -0.8190  0.9664 -0.1091
 6982TIP3    H242362   0.343   2.286  14.121 -0.5122  0.8085 -0.1853
 6983TIP3   OH242363   4.356   0.323   1.001  0.1464 -0.1997  0.6963
 6983TIP3    H142364   4.272   0.368   1.012 -0.3573 -1.0064  0.2495
 6983TIP3    H242365   4.413   0.362   1.067  0.0230  1.7602 -0.2843
 6984TIP3   OH242366   4.503   6.021   3.764  0.3415 -0.1761 -0.3550
 6984TIP3    H142367   4.511   6.087   3.833  0.1717  1.2628 -1.6697
 6984TIP3    H242368   4.502   6.071   3.683  0.7341 -1.8448 -1.4344
 6985TIP3   OH242369   1.311   2.906   0.286 -0.0998 -0.7286 -0.6146
 6985TIP3    H142370   1.323   2.931   0.195  2.9461  1.0849  0.1047
 6985TIP3    H242371   1.394   2.864   0.310 -1.3907 -2.5630  0.9780
 6986TIP3   OH242372   2.995   2.820   3.413  0.1824 -0.6462 -0.2287
 6986TIP3    H142373   3.077   2.778   3.388  1.7568  1.2825  1.3854
 6986TIP3    H242374   2.999   2.907   3.372  0.2805  0.4941  2.0799
 6987TIP3   OH242375   4.635   1.227  12.610  0.1145 -0.4470 -0.5626
 6987TIP3    H142376   4.655   1.280  12.533  0.0055 -1.6644 -1.4562
 6987TIP3    H242377   4.550   1.261  12.641  0.0712 -0.0674 -1.0760
 6988TIP3   OH242378   2.033   4.822   4.392 -0.3789  0.2258  0.1833
 6988TIP3    H142379   2.113   4.808   4.340 -1.3916 -0.5780 -1.2214
 6988TIP3    H242380   2.051   4.903   4.440  0.7766  0.7990 -1.1210
 6989TIP3   OH242381   2.211   1.976  15.319 -1.1487 -0.4082  0.1028
 6989TIP3    H142382   2.191   2.045  15.383 -0.4078  1.6409 -1.7585
 6989TIP3    H242383   2.297   1.944  15.344 -2.1365 -1.9060  1.9234
 6990TIP3   OH242384   6.700   0.961   4.342 -0.4491  0.0963 -0.4115
 6990TIP3    H142385   6.741   0.884   4.303 -1.1909 -0.9581  0.8185
 6990TIP3    H242386   6.695   1.024   4.271  0.3798 -0.9020 -1.3930
 6991TIP3   OH242387   1.292   3.044   2.093  0.5576  0.4230  0.3176
 6991TIP3    H142388   1.276   3.018   2.183  2.0315  0.2313  0.5615
 6991TIP3    H242389   1.360   2.983   2.063  0.2430  0.6265 -0.8505
 6992TIP3   OH242390   6.125   4.691  11.527 -0.2509 -0.0286  0.1936
 6992TIP3    H142391   6.059   4.723  11.465  0.5113 -0.4942 -0.8828
 6992TIP3    H242392   6.074   4.654  11.599 -1.1632  0.1730 -0.3303
 6993TIP3   OH242393   3.961   0.002  11.488  0.1946 -0.2388 -0.5484
 6993TIP3    H142394   3.966  -0.085  11.447 -2.4613 -0.5392 -0.3822
 6993TIP3    H242395   3.910  -0.012  11.567 -0.4250  1.5199 -0.6141
 6994TIP3   OH242396   6.083   5.364   4.236  0.2123 -0.2439  0.6586
 6994TIP3    H142397   6.033   5.412   4.170  0.7596 -1.4595 -0.6949
 6994TIP3    H242398   6.134   5.431   4.281  0.4714  0.5427 -0.7460
 6995TIP3   OH242399   2.191   3.373   2.097 -0.4713 -0.3316 -0.4267
 6995TIP3    H142400   2.211   3.461   2.064 -0.6282 -0.3652 -0.6074
 6995TIP3    H242401   2.243   3.315   2.041  0.0322 -0.3213  0.0193
 6996TIP3   OH242402   4.737   6.059  13.537  0.4604 -0.7241 -0.3563
 6996TIP3    H142403   4.749   6.067  13.442 -1.6412 -0.5331 -0.6535
 6996TIP3    H242404   4.799   6.123  13.574  1.7089 -1.1891 -1.5356
 6997TIP3   OH242405   1.109   6.175  15.404  0.0597  0.3332 -0.5985
 6997TIP3    H142406   1.114   6.146  15.313 -0.7245  0.4112 -0.6769
 6997TIP3    H242407   1.192   6.148  15.443  0.4198  0.3495 -1.3503
 6998TIP3   OH242408   4.833   0.357  10.962  0.1959  0.3608 -0.3047
 6998TIP3    H142409   4.925   0.335  10.946  0.2929 -0.3386  1.1389
 6998TIP3    H242410   4.784   0.287  10.919  0.4675 -1.7512  2.5252
 6999TIP3   OH242411   3.709   2.910  14.591 -0.2674  0.3762 -0.4711
 6999TIP3    H142412   3.625   2.956  14.601 -0.2751  0.0668  1.2194
 6999TIP3    H242413   3.690   2.838  14.531 -0.7754  1.3041 -1.4511
 7000TIP3   OH242414   6.713   0.024  15.471  0.4719 -0.0153 -0.1519
 7000TIP3    H142415   6.734  -0.012  15.385 -0.4948 -0.7650 -0.0904
 7000TIP3    H242416   6.792   0.012  15.522  1.2571  0.9678 -1.0907
 7001TIP3   OH242417   4.181   0.446   0.020 -0.2525 -0.2826  0.0767
 7001TIP3    H142418   4.183   0.392  -0.060  0.0309 -1.2658  0.7286
 7001TIP3    H242419   4.161   0.384   0.090  0.0805  0.4687  0.8546
 7002TIP3   OH242420   6.082   6.443   5.114 -0.0194 -0.0908  0.0918
 7002TIP3    H142421   5.991   6.431   5.140  0.0497 -0.4680  0.1581
 7002TIP3    H242422   6.131   6.438   5.195 -0.1127  2.1448  0.3571
 7003TIP3   OH242423   0.380   1.451   4.548  0.2609  0.5047 -0.7252
 7003TIP3    H142424   0.443   1.394   4.504 -0.4899 -0.3931 -0.6781
 7003TIP3    H242425   0.311   1.391   4.577 -0.0350  1.3036  0.2687
 7004TIP3   OH242426   4.552   1.405  17.139  0.0794 -0.4912 -0.1673
 7004TIP3    H142427   4.462   1.435  17.146  0.0588 -0.3301 -1.0004
 7004TIP3    H242428   4.601   1.482  17.112  0.6838 -0.2779  1.4370
 7005TIP3   OH242429   0.787   1.161   4.960 -0.1727  0.0620  0.5144
 7005TIP3    H142430   0.799   1.197   5.048  2.4757 -0.8066  0.6266
 7005TIP3    H242431   0.854   1.093   4.954 -0.4464 -0.0662 -2.1128
 7006TIP3   OH242432   6.573   6.257   5.246  0.6971  0.3507 -0.1138
 7006TIP3    H142433   6.597   6.168   5.220  0.5703  0.0202  0.8431
 7006TIP3    H242434   6.554   6.250   5.340 -1.4817  0.9358 -0.4542
 7007TIP3   OH242435   4.363   2.612  11.982 -0.3167 -0.6643  0.3197
 7007TIP3    H142436   4.346   2.696  12.025  2.1889 -0.5729  1.2584
 7007TIP3    H242437   4.434   2.630  11.921  1.2882 -2.3610  1.5829
 7008TIP3   OH242438   2.722   1.702   1.998 -0.1612 -0.0963  0.3591
 7008TIP3    H142439   2.667   1.680   1.923 -1.1252  1.0764  0.6974
 7008TIP3    H242440   2.806   1.659   1.979  0.0449  1.1698 -1.9991
 7009TIP3   OH242441   4.684   4.904  15.933  0.4875 -0.6858  0.2289
 7009TIP3    H142442   4.698   4.946  15.849  2.6545 -0.7276  0.5105
 7009TIP3    H242443   4.611   4.843  15.918 -0.1696  0.3865 -1.1677
 7010TIP3   OH242444   1.626   4.932   3.105 -0.1655  0.1690 -0.7314
 7010TIP3    H142445   1.617   4.894   3.192  0.0302  0.6903 -0.4792
 7010TIP3    H242446   1.649   4.858   3.049 -2.1964 -0.5438 -0.7166
 7011TIP3   OH242447   3.525   6.759   2.799 -0.1736 -1.0154 -0.3111
 7011TIP3    H142448   3.504   6.775   2.707  1.4287 -1.3921 -0.7738
 7011TIP3    H242449   3.508   6.842   2.843 -0.9004 -0.8203 -0.9580
 7012TIP3   OH242450   4.053   5.305  13.331  0.8476  0.8230 -1.0245
 7012TIP3    H142451   4.107   5.266  13.401  1.2361  1.9337 -0.6794
 7012TIP3    H242452   4.011   5.230  13.289  1.0826  0.0777  0.0119
 7013TIP3   OH242453   0.221   4.766  11.702  0.0497 -0.0499 -0.6250
 7013TIP3    H142454   0.156   4.708  11.743  0.9453  0.1170  1.1120
 7013TIP3    H242455   0.174   4.848  11.687  0.1972  0.6548  2.1767
 7014TIP3   OH242456   4.426   3.092  17.067 -0.1309 -0.0002  0.0126
 7014TIP3    H142457   4.409   3.036  16.992 -1.4074  1.3154 -0.7286
 7014TIP3    H242458   4.342   3.101  17.111 -0.5229  2.9747 -1.1154
 7015TIP3   OH242459   3.437   0.400   6.037  0.0991  0.1430  0.3069
 7015TIP3    H142460   3.529   0.382   6.021 -0.0685 -1.2033  0.7532
 7015TIP3    H242461   3.435   0.492   6.064  1.4537 -0.1002  1.3417
 7016TIP3   OH242462   6.410   0.226   3.598  0.1407  0.0250  0.6298
 7016TIP3    H142463   6.372   0.311   3.574 -0.0190 -0.7117 -2.0725
 7016TIP3    H242464   6.341   0.182   3.648 -0.9553  0.3633 -0.5265
 7017TIP3   OH242465   5.589   0.078   5.471  0.2183  0.0409 -0.6938
 7017TIP3    H142466   5.621   0.099   5.384 -0.2964  0.6911 -0.7391
 7017TIP3    H242467   5.567   0.163   5.510  1.0280 -0.1873  0.3053
 7018TIP3   OH242468   4.820   1.481   3.111  0.0433  0.5143 -0.4962
 7018TIP3    H142469   4.858   1.560   3.073  0.2266  0.2861 -0.7939
 7018TIP3    H242470   4.894   1.437   3.153  0.0651  0.1937 -0.8639
 7019TIP3   OH242471   4.606   4.609   5.264 -0.3624  0.0532 -0.4334
 7019TIP3    H142472   4.560   4.533   5.227 -1.2892  0.0264  0.7464
 7019TIP3    H242473   4.604   4.595   5.359  0.3376  1.0636 -0.2512
 7020TIP3   OH242474   0.851   6.440  13.343 -0.0499  0.2086  0.1825
 7020TIP3    H142475   0.816   6.361  13.301 -0.3394  0.5486 -0.2225
 7020TIP3    H242476   0.793   6.455  13.418 -0.7429  0.7264 -0.4436
 7021TIP3   OH242477   2.234   2.718  11.452 -0.2628  0.2681  0.3047
 7021TIP3    H142478   2.328   2.714  11.436  0.0772  0.7602  2.0517
 7021TIP3    H242479   2.211   2.810  11.442 -0.7465  0.0427 -0.9137
 7022TIP3   OH242480   3.544   0.862   4.521  0.0832 -0.5192  0.1867
 7022TIP3    H142481   3.619   0.804   4.528  1.4407  1.1409 -0.1118
 7022TIP3    H242482   3.578   0.949   4.539 -1.5593  0.4277 -0.9735
 7023TIP3   OH242483   1.337   5.163   2.727  0.1524 -0.1311 -0.5418
 7023TIP3    H142484   1.319   5.069   2.734 -0.4350  0.0554  0.7525
 7023TIP3    H242485   1.415   5.176   2.780  0.7858 -0.0149 -1.4758
 7024TIP3   OH242486   0.985   6.446  11.764 -0.3834  0.1446 -0.1369
 7024TIP3    H142487   0.894   6.440  11.735 -0.1985 -1.2634 -0.4954
 7024TIP3    H242488   1.025   6.363  11.737  0.9826  0.6908  0.1082
 7025TIP3   OH242489   3.614   1.817  15.187 -0.2095 -0.0828 -0.6524
 7025TIP3    H142490   3.679   1.805  15.256 -0.1683  0.8157 -0.5256
 7025TIP3    H242491   3.533   1.781  15.223 -0.0067 -0.3224 -0.4384
 7026TIP3   OH242492   1.865   5.497  15.267 -0.5686 -0.2193 -0.0980
 7026TIP3    H142493   1.839   5.581  15.230  0.2750  0.4556  0.7796
 7026TIP3    H242494   1.961   5.499  15.266 -0.5347 -0.7721  0.7871
 7027TIP3   OH242495   4.286   1.722  13.213  0.4972 -0.0400 -0.0842
 7027TIP3    H142496   4.307   1.710  13.306  0.5108  2.3528  0.2908
 7027TIP3    H242497   4.244   1.640  13.187  1.5735 -1.2282  1.7004
 7028TIP3   OH242498   5.080   6.776  13.094 -0.4989  0.5002 -0.0371
 7028TIP3    H142499   5.036   6.698  13.128  0.1045 -0.1838 -0.8027
 7028TIP3    H242500   5.012   6.844  13.097 -0.7168  0.2724  1.7045
 7029TIP3   OH242501   3.031   6.637   0.914  0.1428  0.6541 -0.2662
 7029TIP3    H142502   2.993   6.549   0.920 -0.0500  0.6697 -1.0374
 7029TIP3    H242503   3.029   6.657   0.820  0.3138  1.4267 -0.1145
 7030TIP3   OH242504   3.283   2.910  14.058 -0.1428  0.3614  0.5377
 7030TIP3    H142505   3.331   2.913  14.140  0.0836  0.7230  0.3998
 7030TIP3    H242506   3.191   2.915  14.083 -0.2028 -1.8993  0.8858
 7031TIP3   OH242507   6.508   3.333   4.477 -0.6562  0.4954  0.1326
 7031TIP3    H142508   6.564   3.377   4.412 -1.9826 -0.3430 -1.6485
 7031TIP3    H242509   6.486   3.402   4.539 -1.5848  2.0735 -1.8385
 7032TIP3   OH242510   1.009   2.028  12.557  0.1743 -0.5604  0.2832
 7032TIP3    H142511   0.957   1.961  12.602  2.6904 -1.7528  1.6505
 7032TIP3    H242512   1.020   1.995  12.469 -1.5090 -0.1528 -0.1220
 7033TIP3   OH242513   3.443   4.039  11.719 -0.0032 -0.1408  0.4625
 7033TIP3    H142514   3.508   3.972  11.741  2.4349  2.2293  1.0428
 7033TIP3    H242515   3.410   4.069  11.804 -1.5043 -0.9111  0.1908
 7034TIP3   OH242516   5.756   2.322  14.799 -0.0451 -0.1315  0.1021
 7034TIP3    H142517   5.806   2.253  14.754  1.0758  0.3435  0.5718
 7034TIP3    H242518   5.741   2.388  14.732  1.1674  0.3342  0.2490
 7035TIP3   OH242519   3.540   4.571  15.190 -0.0549 -0.0862 -0.5416
 7035TIP3    H142520   3.565   4.483  15.162  2.4088  0.7870 -1.3751
 7035TIP3    H242521   3.445   4.570  15.193 -0.0830 -3.1851  0.8909
 7036TIP3   OH242522   6.152   6.737  11.632 -0.6022  0.3741 -0.4537
 7036TIP3    H142523   6.079   6.737  11.695 -1.7826 -0.2193 -1.7576
 7036TIP3    H242524   6.158   6.647  11.602  0.7338  0.4059 -0.3424
 7037TIP3   OH242525   4.570   0.629  13.686  0.4636 -0.5992  0.4928
 7037TIP3    H142526   4.591   0.545  13.643 -2.3784 -0.3932 -1.5879
 7037TIP3    H242527   4.554   0.605  13.777  1.6116 -1.9769  0.3737
 7038TIP3   OH242528   2.043   0.430   1.200 -0.0808  0.3084  0.3090
 7038TIP3    H142529   2.098   0.388   1.266 -3.1532 -3.1370  0.9441
 7038TIP3    H242530   1.992   0.494   1.249 -0.3574 -0.2420  0.7449
 7039TIP3   OH242531   6.142   0.770  16.645 -0.0145  0.9217  0.0251
 7039TIP3    H142532   6.226   0.752  16.687  1.6412  1.9204 -2.5827
 7039TIP3    H242533   6.083   0.702  16.679  1.4123  0.9912  2.9474
 7040TIP3   OH242534   5.553   2.959   0.717 -0.1719 -0.4873 -0.1664
 7040TIP3    H142535   5.563   2.867   0.693 -1.2846 -0.3835 -1.1242
 7040TIP3    H242536   5.557   3.006   0.633 -1.6788  0.1237  0.0735
 7041TIP3   OH242537   5.949   5.585  11.347 -0.6160 -0.4794  0.3181
 7041TIP3    H142538   5.866   5.631  11.332 -0.5739 -0.3637  0.4385
 7041TIP3    H242539   5.973   5.552  11.261 -0.9943 -0.8671  0.3574
 7042TIP3   OH242540   3.952   0.538  12.927  0.4701  0.0394  0.1620
 7042TIP3    H142541   3.912   0.454  12.948 -1.6682  0.6108 -1.2639
 7042TIP3    H242542   3.964   0.536  12.832  1.6368  0.8557  0.2614
 7043TIP3   OH242543   2.095   0.211   4.309  0.3033  0.3950 -0.0617
 7043TIP3    H142544   2.119   0.282   4.367  0.1408 -0.8446  1.5886
 7043TIP3    H242545   2.052   0.147   4.366  1.1798 -1.3931 -1.3238
 7044TIP3   OH242546   4.354   3.893  14.815  0.4871 -0.2316  0.4172
 7044TIP3    H142547   4.332   3.857  14.729 -0.4963  2.0228 -0.3678
 7044TIP3    H242548   4.365   3.817  14.871 -2.4274 -1.7671 -0.8466
 7045TIP3   OH242549   0.005   5.898  11.659 -0.1187 -0.1659  0.1275
 7045TIP3    H142550   0.026   5.930  11.572  1.0367  0.0262  0.4658
 7045TIP3    H242551   0.035   5.808  11.660  0.3771  0.0006  0.5047
 7046TIP3   OH242552   6.403   5.958  16.735  0.1163 -0.0729  0.1851
 7046TIP3    H142553   6.482   5.995  16.696  0.3103 -0.5107  0.1589
 7046TIP3    H242554   6.340   6.030  16.735  0.3420  0.1265 -0.2842
 7047TIP3   OH242555   6.745   0.157   1.493  0.2538 -0.5677 -0.1186
 7047TIP3    H142556   6.680   0.089   1.514  0.5614 -0.4731  1.2471
 7047TIP3    H242557   6.695   0.239   1.497  0.1280 -0.6174 -0.6274
 7048TIP3   OH242558   1.724   2.024   4.016  0.6116 -0.6167  0.1060
 7048TIP3    H142559   1.723   1.947   3.960  0.4305 -0.1410 -0.5544
 7048TIP3    H242560   1.669   2.001   4.090  2.4740 -2.0050  1.1372
 7049TIP3   OH242561   3.124   6.526  13.722  0.2541  0.1129  0.2079
 7049TIP3    H142562   3.114   6.610  13.768  0.8809 -0.5976  1.7180
 7049TIP3    H242563   3.047   6.520  13.666 -0.4147  1.1565  0.9801
 7050TIP3   OH242564   0.159   4.236  14.132 -0.2637  0.8356 -0.3886
 7050TIP3    H142565   0.090   4.267  14.190 -0.3757 -1.0932  0.5980
 7050TIP3    H242566   0.145   4.141  14.125  1.0818  0.6817 -1.7931
 7051TIP3   OH242567   5.047   5.881   4.315 -0.7179 -0.0254 -0.1277
 7051TIP3    H142568   5.024   5.859   4.224 -1.4164  0.1711 -0.0087
 7051TIP3    H242569   4.962   5.889   4.359 -0.4777  2.0005  0.0430
 7052TIP3   OH242570   0.443   5.806  13.442 -0.0377 -0.4118 -0.2919
 7052TIP3    H142571   0.507   5.737  13.432 -1.4323 -1.9201  0.6569
 7052TIP3    H242572   0.493   5.881  13.475  1.4947 -0.9484 -1.2947
 7053TIP3   OH242573   5.395   3.780  16.001 -0.0142 -0.2209  0.5168
 7053TIP3    H142574   5.453   3.756  16.073  0.4534 -0.4144  0.0771
 7053TIP3    H242575   5.309   3.789  16.042  0.0578 -1.3026  0.9319
 7054TIP3   OH242576   2.047   2.551  16.481  0.4738 -0.1812  0.2662
 7054TIP3    H142577   2.050   2.536  16.386 -0.9764  0.4996  0.0863
 7054TIP3    H242578   2.137   2.569  16.505  0.4804  2.8836 -1.5662
 7055TIP3   OH242579   0.822   6.017  16.356  0.3503 -0.4164  0.7607
 7055TIP3    H142580   0.826   5.979  16.268  1.7569  0.0902  0.5859
 7055TIP3    H242581   0.784   6.104  16.343 -2.4744 -1.4869  1.1095
 7056TIP3   OH242582   0.337   1.174  14.647 -0.8243  0.0618 -0.0574
 7056TIP3    H142583   0.267   1.110  14.656 -0.8308  0.1885  0.8850
 7056TIP3    H242584   0.294   1.252  14.611 -0.9095 -0.2853 -0.7239
 7057TIP3   OH242585   3.771   4.662  13.926  0.1248  0.1644  0.2280
 7057TIP3    H142586   3.766   4.598  13.996  1.2128  0.2652  0.4213
 7057TIP3    H242587   3.773   4.747  13.971  3.3745  0.1659  0.2976
 7058TIP3   OH242588   4.716   2.202  10.830 -0.3721  0.0033 -0.1780
 7058TIP3    H142589   4.718   2.159  10.744  1.1785 -0.3826  0.0290
 7058TIP3    H242590   4.648   2.156  10.878  0.7012 -1.7145 -0.2360
 7059TIP3   OH242591   3.846   3.573   4.407  0.1830 -0.4304  0.1720
 7059TIP3    H142592   3.874   3.549   4.495  0.5289  0.4696  0.3094
 7059TIP3    H242593   3.906   3.642   4.380 -2.3059  2.1717  0.7878
 7060TIP3   OH242594   1.419   3.894   6.130  0.2894  0.3012 -0.4139
 7060TIP3    H142595   1.470   3.812   6.128  0.0279  0.1366 -0.4198
 7060TIP3    H242596   1.443   3.935   6.214  1.2624  0.7647 -0.9008
 7061TIP3   OH242597   0.537   0.938   4.419 -0.1060 -0.2097  0.3446
 7061TIP3    H142598   0.567   1.003   4.356  2.3330 -1.6632 -0.1396
 7061TIP3    H242599   0.535   0.984   4.502  1.1114  0.6408 -0.0595
 7062TIP3   OH242600   4.037   5.030  14.778  0.1644  0.0748 -0.1414
 7062TIP3    H142601   4.007   5.048  14.689  0.6790  0.5373 -0.2254
 7062TIP3    H242602   4.124   4.991  14.767 -0.4765 -1.5097  0.0874
 7063TIP3   OH242603   2.699   3.645   1.428 -0.1546  0.2043  0.6927
 7063TIP3    H142604   2.662   3.561   1.455  0.5955 -0.0343  0.9908
 7063TIP3    H242605   2.632   3.709   1.452 -0.7920 -0.3135  0.3369
 7064TIP3   OH242606   6.277   4.088   4.318  0.1227 -0.0281  0.2237
 7064TIP3    H142607   6.358   4.130   4.350 -0.9351  0.5747  2.2776
 7064TIP3    H242608   6.252   4.141   4.242  0.4898  1.1723  0.9004
 7065TIP3   OH242609   0.106   1.362  14.368 -0.1344 -0.0313 -0.4778
 7065TIP3    H142610   0.123   1.386  14.459  1.0560 -1.9712 -0.1193
 7065TIP3    H242611   0.077   1.271  14.372  2.3427 -1.0131 -2.1578
 7066TIP3   OH242612   3.596   3.395  13.832  0.1438 -0.0078  0.5160
 7066TIP3    H142613   3.502   3.395  13.815 -0.0955  0.3806  1.7896
 7066TIP3    H242614   3.626   3.312  13.794 -0.5612  0.2314 -0.6187
 7067TIP3   OH242615   2.909   4.790   2.827 -0.1262  0.0563  0.1320
 7067TIP3    H142616   2.926   4.881   2.850 -0.3570 -0.2057  1.4186
 7067TIP3    H242617   2.926   4.785   2.733 -0.7276  1.5690 -0.0755
 7068TIP3   OH242618   4.866   0.512   1.548  0.2019  0.4330 -0.3399
 7068TIP3    H142619   4.935   0.494   1.612  0.2592  0.5980 -0.3546
 7068TIP3    H242620   4.804   0.439   1.558  0.4255  0.2365 -0.3910
 7069TIP3   OH242621   5.674   4.937   4.741  0.5418  0.4904  0.3608
 7069TIP3    H142622   5.680   5.004   4.810 -1.9277  0.3611  0.7980
 7069TIP3    H242623   5.580   4.922   4.731  0.8695 -0.1220 -2.4753
 7070TIP3   OH242624   3.502   4.265   3.538 -0.4349  0.1913 -0.0337
 7070TIP3    H142625   3.488   4.269   3.633 -0.3201 -0.3830  0.0075
 7070TIP3    H242626   3.588   4.224   3.528 -1.5885 -2.3029 -0.4381
 7071TIP3   OH242627   3.164   4.581   0.459 -0.1153 -0.4236 -0.4730
 7071TIP3    H142628   3.186   4.590   0.366 -0.9700  0.9308 -0.5808
 7071TIP3    H242629   3.106   4.505   0.462  0.6137 -1.0094 -0.9070
 7072TIP3   OH242630   4.332   3.026  13.980  0.2310 -0.3369 -0.0206
 7072TIP3    H142631   4.342   3.052  13.888  0.8520 -2.7841 -0.7163
 7072TIP3    H242632   4.252   3.069  14.008 -0.7270 -0.6034 -2.1381
 7073TIP3   OH242633   4.836   4.354  12.331  0.5874 -0.2469 -0.2574
 7073TIP3    H142634   4.785   4.421  12.375  0.2652 -1.6226  1.5799
 7073TIP3    H242635   4.780   4.276  12.332  1.1813 -0.7336 -1.7975
 7074TIP3   OH242636   2.474   5.688   2.432  0.0073 -0.4342  0.1968
 7074TIP3    H142637   2.531   5.697   2.509  0.2715 -0.8774  0.0562
 7074TIP3    H242638   2.534   5.692   2.357 -0.2742  0.2425 -0.0024
 7075TIP3   OH242639   1.595   0.470   1.748 -0.1993 -1.0264  0.4621
 7075TIP3    H142640   1.630   0.532   1.683 -0.5729 -0.0763  1.1346
 7075TIP3    H242641   1.610   0.513   1.832 -0.8218 -1.6834  0.9198
 7076TIP3   OH242642   2.705   5.621  16.453 -0.0520  0.1683  0.0912
 7076TIP3    H142643   2.716   5.527  16.439  1.3943  0.5910 -2.3198
 7076TIP3    H242644   2.779   5.646  16.508 -0.4424 -0.0817  0.7388
 7077TIP3   OH242645   0.949   3.435  16.761  1.2542 -0.2147 -0.3338
 7077TIP3    H142646   0.854   3.443  16.750  1.4391  0.3194 -1.8082
 7077TIP3    H242647   0.979   3.392  16.681  2.2022 -0.9291  0.3846
 7078TIP3   OH242648   1.531   0.006  11.636 -0.0229 -0.1691 -0.2348
 7078TIP3    H142649   1.605  -0.052  11.657 -1.3737 -1.3904  1.5050
 7078TIP3    H242650   1.477  -0.045  11.577 -0.1723  0.1829 -0.4036
 7079TIP3   OH242651   5.784   1.861  17.124  0.0039 -0.0270 -0.0749
 7079TIP3    H142652   5.871   1.900  17.122 -0.8181  1.9340 -1.2620
 7079TIP3    H242653   5.730   1.922  17.073 -2.3842 -0.3547  1.8846
 7080TIP3   OH242654   2.125   3.609  12.419 -0.2646  0.0951  0.2133
 7080TIP3    H142655   2.217   3.583  12.416 -0.7445 -2.2819  2.7975
 7080TIP3    H242656   2.119   3.681  12.356  2.3688 -2.5934 -3.6200
 7081TIP3   OH242657   4.999   1.476  13.147 -0.3204  0.3985  0.4837
 7081TIP3    H142658   4.924   1.419  13.162 -0.5207  0.2521 -0.8990
 7081TIP3    H242659   4.988   1.548  13.209 -2.5558  1.2627 -0.7737
 7082TIP3   OH242660   1.242   1.178  16.452 -0.3352  0.2226 -0.5613
 7082TIP3    H142661   1.161   1.135  16.479  0.4930 -0.3732  1.1503
 7082TIP3    H242662   1.287   1.113  16.398 -0.0515 -0.2830  0.2624
 7083TIP3   OH242663   3.697   6.503  14.781  0.5701  0.9637  0.1405
 7083TIP3    H142664   3.743   6.551  14.713  0.7507  0.7188  0.0888
 7083TIP3    H242665   3.646   6.569  14.827 -0.8107  0.9154 -1.2348
 7084TIP3   OH242666   2.778   5.616   5.606 -0.1027 -0.2483  0.0406
 7084TIP3    H142667   2.795   5.641   5.515  0.7508 -1.0892 -0.0435
 7084TIP3    H242668   2.773   5.521   5.604  0.5975 -0.3141  0.9925
 7085TIP3   OH242669   3.952   1.131  11.149 -0.3919  0.1215 -0.2159
 7085TIP3    H142670   4.039   1.129  11.111  0.2991  2.6919  1.0222
 7085TIP3    H242671   3.965   1.115  11.242 -0.6514  3.9021  0.6347
 7086TIP3   OH242672   1.875   1.145   1.732 -0.0343  0.3572  0.4562
 7086TIP3    H142673   1.818   1.181   1.800 -1.5279  0.8562 -0.9968
 7086TIP3    H242674   1.846   1.186   1.651 -0.1981 -2.2485 -0.9334
 7087TIP3   OH242675   5.765   3.278   4.581  0.7798  0.1266 -0.7696
 7087TIP3    H142676   5.717   3.197   4.563  1.6092 -0.7290  0.6545
 7087TIP3    H242677   5.732   3.340   4.517 -0.0137 -1.2892 -1.7935
 7088TIP3   OH242678   0.621   6.802   5.611  0.1655  0.8932  0.2006
 7088TIP3    H142679   0.578   6.835   5.690 -1.5795  0.8399 -0.6761
 7088TIP3    H242680   0.600   6.866   5.543  1.9064  1.1040 -0.1952
 7089TIP3   OH242681   5.597   3.513  13.102  0.7431  0.0004  0.1799
 7089TIP3    H142682   5.541   3.487  13.175  0.1937  0.7356  0.0256
 7089TIP3    H242683   5.539   3.515  13.026  0.7758  1.5236  0.1574
 7090TIP3   OH242684   4.502   6.756  11.984 -0.0556  0.1221  0.1120
 7090TIP3    H142685   4.591   6.721  11.985  0.6035  1.7129  1.1458
 7090TIP3    H242686   4.513   6.849  11.966 -1.5654  0.2679 -0.2241
 7091TIP3   OH242687   1.765   6.300  12.568 -0.0886 -0.3273 -0.1901
 7091TIP3    H142688   1.853   6.285  12.604 -0.5142 -0.4887  0.8423
 7091TIP3    H242689   1.767   6.388  12.533  0.3677 -0.1736  0.2143
 7092TIP3   OH242690   1.507   4.235  12.915 -0.1765  0.9137  0.2273
 7092TIP3    H142691   1.556   4.317  12.920 -1.1188  1.7691 -2.5199
 7092TIP3    H242692   1.572   4.170  12.891  0.3143  1.1777  0.8214
 7093TIP3   OH242693   4.061   0.597  12.046 -0.1654  0.1578 -1.1805
 7093TIP3    H142694   4.128   0.567  11.985  0.1385 -1.0962 -0.2830
 7093TIP3    H242695   3.993   0.530  12.042  0.3990 -0.6234  0.6604
 7094TIP3   OH242696   4.596   2.961  12.984  0.5119  0.7236  0.2141
 7094TIP3    H142697   4.544   2.961  13.065  1.1078 -1.7152  0.6707
 7094TIP3    H242698   4.655   2.887  12.994  0.7845  0.5097 -2.3849
 7095TIP3   OH242699   6.702   6.224  15.656 -0.4081  0.0215  0.4233
 7095TIP3    H142700   6.613   6.193  15.674 -0.0094 -1.5297 -0.1419
 7095TIP3    H242701   6.758   6.170  15.712  0.1178  1.9831  1.9069
 7096TIP3   OH242702   2.711   4.170  10.873 -0.0443  0.2538  0.0512
 7096TIP3    H142703   2.725   4.080  10.842 -0.2941  0.6122 -1.1805
 7096TIP3    H242704   2.629   4.197  10.831 -0.3092  0.8402  0.9295
 7097TIP3   OH242705   0.397   1.706   3.837  0.2046 -0.1247  0.0601
 7097TIP3    H142706   0.484   1.674   3.861 -0.5074 -2.6739 -0.4046
 7097TIP3    H242707   0.409   1.799   3.820  2.3986  0.0634  2.0530
 7098TIP3   OH242708   5.347   6.343  17.136  0.0819 -0.2249  0.2449
 7098TIP3    H142709   5.406   6.309  17.203  0.0313 -0.1819  0.3108
 7098TIP3    H242710   5.395   6.415  17.096 -0.2240  0.2925  0.7998
 7099TIP3   OH242711   3.580   2.744   3.190 -0.2395 -0.7377 -0.5352
 7099TIP3    H142712   3.501   2.700   3.222 -0.8241  0.1309 -0.7484
 7099TIP3    H242713   3.565   2.754   3.096 -1.0520  1.6889 -0.2232
 7100TIP3   OH242714   2.332   3.902  11.237 -0.7742  0.2757 -0.3772
 7100TIP3    H142715   2.349   3.991  11.269  0.7537  0.8478 -2.5609
 7100TIP3    H242716   2.262   3.913  11.172 -1.0220 -0.2263 -0.1999
 7101TIP3   OH242717   5.150   5.442   3.266  0.6411 -0.0827  0.4014
 7101TIP3    H142718   5.154   5.400   3.352  1.7229 -0.3704  0.2263
 7101TIP3    H242719   5.215   5.512   3.270 -1.7608  2.2955  1.0109
 7102TIP3   OH242720   0.563   5.480  13.437  0.0669 -0.3109 -0.2050
 7102TIP3    H142721   0.555   5.440  13.350 -0.0889 -1.1059  0.1716
 7102TIP3    H242722   0.638   5.437  13.477 -0.9693 -1.3063  0.7593
 7103TIP3   OH242723   2.641   5.994  16.324 -0.4711  0.3802  0.2940
 7103TIP3    H142724   2.722   5.978  16.275 -0.7914  0.3345 -0.2237
 7103TIP3    H242725   2.581   5.926  16.294 -0.2639 -0.4893  1.7209
 7104TIP3   OH242726   3.805   0.385   5.466  0.3518 -0.3352 -0.0996
 7104TIP3    H142727   3.858   0.455   5.504 -0.0709 -0.0648  0.0091
 7104TIP3    H242728   3.715   0.416   5.476  0.0609 -1.5179  1.2412
 7105TIP3   OH242729   2.628   2.092   4.174 -0.1125  0.0681  1.0123
 7105TIP3    H142730   2.680   2.162   4.214 -1.4771  0.1193  2.8526
 7105TIP3    H242731   2.578   2.055   4.247 -0.3545 -2.0234 -0.1320
 7106TIP3   OH242732   4.495   6.109   0.712 -0.5173 -0.6140  0.7301
 7106TIP3    H142733   4.420   6.139   0.764 -0.8512 -1.0640  0.5162
 7106TIP3    H242734   4.455   6.071   0.634  0.0105  1.0837 -0.4302
 7107TIP3   OH242735   1.297   4.512  11.830  0.3617  0.7153  0.2637
 7107TIP3    H142736   1.205   4.489  11.835  0.2896  0.2247 -2.1548
 7107TIP3    H242737   1.327   4.474  11.747  2.3792  2.0715  0.3016
 7108TIP3   OH242738   4.490   6.328   2.947 -0.2173  0.1168 -0.2139
 7108TIP3    H142739   4.529   6.395   3.003 -0.4072 -0.8071  1.0693
 7108TIP3    H242740   4.553   6.316   2.876  0.8471  0.1360  0.6967
 7109TIP3   OH242741   3.860   2.620  10.885  0.9527  0.4075 -0.1012
 7109TIP3    H142742   3.839   2.555  10.952  1.2663  1.5402  1.1353
 7109TIP3    H242743   3.795   2.604  10.815  0.4815 -0.6500  0.5524
 7110TIP3   OH242744   2.563   1.920   2.368 -0.5757 -0.0737 -0.5808
 7110TIP3    H142745   2.595   2.007   2.345  0.8051 -0.3066  0.3562
 7110TIP3    H242746   2.508   1.895   2.294  0.8170  0.6694 -1.9302
 7111TIP3   OH242747   4.035   4.870   1.020 -0.0637  0.0661  0.0801
 7111TIP3    H142748   3.970   4.933   0.986 -0.3801 -0.4616 -0.3138
 7111TIP3    H242749   3.983   4.809   1.073  0.2387  0.1206  0.4404
 7112TIP3   OH242750   5.335   3.290   0.265  0.6775 -0.6461  0.1205
 7112TIP3    H142751   5.355   3.338   0.346  0.6972  0.9222 -0.7871
 7112TIP3    H242752   5.421   3.265   0.230  0.6703 -1.2940  0.5279
 7113TIP3   OH242753   5.934   1.308  14.980  0.0790 -0.5781  0.1654
 7113TIP3    H142754   5.961   1.368  15.050  1.1325 -0.2690 -0.4935
 7113TIP3    H242755   5.978   1.340  14.902 -1.1054 -0.9036 -0.6723
 7114TIP3   OH242756   4.674   4.907   1.189  0.0468 -0.2506  0.3516
 7114TIP3    H142757   4.752   4.868   1.229 -0.5472 -1.6975  0.1814
 7114TIP3    H242758   4.612   4.914   1.261  0.6583  1.9484  0.7345
 7115TIP3   OH242759   6.386   4.376   3.475 -0.3309 -0.4429 -0.2244
 7115TIP3    H142760   6.322   4.429   3.523  1.2844 -0.7713  2.5077
 7115TIP3    H242761   6.423   4.436   3.411 -1.3598  0.5616  0.0829
 7116TIP3   OH242762   3.806   2.336  13.701  0.3785 -0.3807 -0.5757
 7116TIP3    H142763   3.835   2.271  13.636 -1.5079 -2.7117  0.7982
 7116TIP3    H242764   3.720   2.306  13.729  0.6086  1.2228  2.1522
 7117TIP3   OH242765   6.323   5.518   0.411 -0.1358  0.5866  0.1090
 7117TIP3    H142766   6.335   5.593   0.469  1.0240  0.3245  0.2334
 7117TIP3    H242767   6.318   5.443   0.470 -0.3152  0.4659 -0.0596
 7118TIP3   OH242768   0.191   4.268   1.977  0.3578 -0.6239 -0.3724
 7118TIP3    H142769   0.143   4.301   2.053 -0.4931 -1.8184 -0.3709
 7118TIP3    H242770   0.246   4.198   2.013  3.5535  1.7969 -0.0182
 7119TIP3   OH242771   3.138   5.295  15.565  0.6515  0.7957  0.5071
 7119TIP3    H142772   3.135   5.207  15.527 -0.2404 -0.2341  2.7925
 7119TIP3    H242773   3.085   5.348  15.505 -0.5986 -0.7070  0.2136
 7120TIP3   OH242774   0.306   4.445  10.190 -0.5433 -0.2298  0.5819
 7120TIP3    H142775   0.222   4.411  10.220 -1.0330 -0.6952 -1.2019
 7120TIP3    H242776   0.360   4.367  10.176  0.7781  0.1087  3.1552
 7121TIP3   OH242777   0.627   5.340  12.331  0.4911 -0.0173 -0.3741
 7121TIP3    H142778   0.602   5.320  12.241 -2.7052 -0.4140  0.4717
 7121TIP3    H242779   0.613   5.259  12.379  2.8854 -0.0354  0.4510
 7122TIP3   OH242780   0.691   4.820  13.734  0.2683  0.4516 -0.1898
 7122TIP3    H142781   0.625   4.853  13.672  1.0778  1.0388 -0.7548
 7122TIP3    H242782   0.771   4.813  13.683  0.9266  0.8429  0.7589
 7123TIP3   OH242783   4.272   2.773   2.339  0.3838 -0.2941  1.0412
 7123TIP3    H142784   4.327   2.818   2.403  1.7023  1.1849 -1.0114
 7123TIP3    H242785   4.188   2.818   2.343  0.1639 -0.7668  2.2569
 7124TIP3   OH242786   2.228   6.093   3.096 -0.0283 -0.3172 -0.1229
 7124TIP3    H142787   2.173   6.080   3.019  2.0288  2.1416 -2.1568
 7124TIP3    H242788   2.246   6.004   3.127  0.5591 -1.5726 -3.5948
 7125TIP3   OH242789   1.512   4.922  14.849  0.2399  0.4000  0.5945
 7125TIP3    H142790   1.495   5.012  14.879 -0.4619  0.7973 -0.8757
 7125TIP3    H242791   1.432   4.874  14.870 -0.1143  0.5933 -0.2579
 7126TIP3   OH242792   5.072   5.350   4.878 -0.2958 -0.7855 -0.1178
 7126TIP3    H142793   5.159   5.387   4.863 -0.3562 -0.8698 -0.6770
 7126TIP3    H242794   5.034   5.342   4.791 -1.4958  0.7545  0.2169
 7127TIP3   OH242795   3.985   3.032  13.345 -0.1409  0.4086 -0.0872
 7127TIP3    H142796   3.949   3.095  13.408  0.0866 -0.2474  0.7267
 7127TIP3    H242797   4.062   2.997  13.389  0.4803  0.5087 -1.0760
 7128TIP3   OH242798   4.601   2.126  13.803 -0.3537 -0.0192  0.2721
 7128TIP3    H142799   4.687   2.136  13.762 -0.0311  1.7461  1.2882
 7128TIP3    H242800   4.615   2.059  13.870 -0.5375 -1.8617 -1.4267
 7129TIP3   OH242801   1.420   3.837  11.775 -0.1225 -0.0422  0.3755
 7129TIP3    H142802   1.507   3.830  11.735 -0.6420 -1.2124 -0.6109
 7129TIP3    H242803   1.391   3.746  11.784 -1.1708  0.3313  0.8809
 7130TIP3   OH242804   6.665   6.788   4.073  0.4910 -0.1827  0.2652
 7130TIP3    H142805   6.678   6.736   4.152  2.1839 -0.1239  0.0486
 7130TIP3    H242806   6.713   6.741   4.005  1.6651  1.3770 -0.0431
 7131TIP3   OH242807   1.207   5.809   2.678 -0.1813  0.0811 -0.4661
 7131TIP3    H142808   1.195   5.772   2.766  0.2904  0.4652 -0.2347
 7131TIP3    H242809   1.296   5.784   2.654  0.6804  2.2258  0.2742
 7132TIP3   OH242810   0.134   2.814   2.103 -0.0022 -0.4516  0.2775
 7132TIP3    H142811   0.206   2.754   2.122  0.0745 -0.6336 -0.5703
 7132TIP3    H242812   0.165   2.899   2.134  0.9887 -0.3319 -0.9418
 7133TIP3   OH242813   6.578   6.531  15.710 -0.9657 -0.3819 -0.2341
 7133TIP3    H142814   6.556   6.513  15.801  1.7680  0.6881  0.7255
 7133TIP3    H242815   6.529   6.611  15.690  0.0704  0.6148  1.0480
 7134TIP3   OH242816   0.624   4.358   3.033 -0.4403 -0.2649 -1.5647
 7134TIP3    H142817   0.712   4.338   3.065 -1.2584  1.0955  1.9568
 7134TIP3    H242818   0.576   4.276   3.042 -0.5234 -0.0463  0.5877
 7135TIP3   OH242819   0.799   5.768  13.628  0.2123 -0.7315 -0.0052
 7135TIP3    H142820   0.713   5.729  13.645 -1.0264  0.7701 -2.2291
 7135TIP3    H242821   0.794   5.854  13.668  1.0236 -0.9327  0.5492
 7136TIP3   OH242822   4.796   4.747   0.946  0.3742  0.0266  0.0937
 7136TIP3    H142823   4.776   4.656   0.923  1.5340 -0.1208 -0.4337
 7136TIP3    H242824   4.742   4.799   0.886 -0.0030 -0.3157  0.1320
 7137TIP3   OH242825   0.202   3.208   1.930 -0.3590 -0.2737 -0.2990
 7137TIP3    H142826   0.115   3.227   1.894 -0.2819  0.9507  0.1330
 7137TIP3    H242827   0.246   3.292   1.932 -0.2290 -0.3320  2.3448
 7138TIP3   OH242828   5.624   1.800  15.820 -0.4447  0.3677 -0.4970
 7138TIP3    H142829   5.610   1.871  15.758 -2.4530  0.9352  0.4831
 7138TIP3    H242830   5.718   1.800  15.838 -0.1252  1.4392 -2.0381
 7139TIP3   OH242831   0.221   1.415  15.683 -0.6906 -0.2210  0.5051
 7139TIP3    H142832   0.132   1.445  15.664 -1.5368 -0.2880  3.7693
 7139TIP3    H242833   0.221   1.322  15.660 -1.2039 -0.0419 -0.2341
 7140TIP3   OH242834   5.757   2.569  11.893 -0.2409 -0.0731  0.2840
 7140TIP3    H142835   5.772   2.643  11.835  1.3264  1.2097  2.1883
 7140TIP3    H242836   5.676   2.529  11.861  0.0020  1.1888 -2.0739
 7141TIP3   OH242837   1.208   2.780   3.471 -0.2733  0.4625 -0.2142
 7141TIP3    H142838   1.201   2.762   3.377 -0.2688  1.1839 -0.3649
 7141TIP3    H242839   1.187   2.874   3.478  1.0784  0.7446  0.3365
 7142TIP3   OH242840   3.493   1.930  16.327  0.1382  0.2745  0.1752
 7142TIP3    H142841   3.478   2.011  16.375 -2.1422 -0.0817  0.1867
 7142TIP3    H242842   3.460   1.861  16.385 -1.8631 -0.2404 -1.4544
 7143TIP3   OH242843   0.167   1.588  11.432 -0.2384 -0.7693  0.0460
 7143TIP3    H142844   0.085   1.630  11.459  0.0922  1.3852 -2.0190
 7143TIP3    H242845   0.148   1.548  11.347  0.8714 -0.0396 -0.5796
 7144TIP3   OH242846   1.399   5.894   1.299 -0.4895  0.0374 -0.1496
 7144TIP3    H142847   1.486   5.856   1.316 -0.3244 -0.0090 -1.0449
 7144TIP3    H242848   1.349   5.822   1.260 -0.6410  0.3182 -0.4760
 7145TIP3   OH242849   0.510   1.966  14.988 -0.3109  0.3005 -0.3818
 7145TIP3    H142850   0.480   2.002  15.072  2.4815 -0.0035  0.8516
 7145TIP3    H242851   0.555   2.039  14.946 -0.6641  0.1148 -1.0912
 7146TIP3   OH242852   0.589   0.850   2.578 -0.2849  0.2384  0.2096
 7146TIP3    H142853   0.520   0.909   2.546 -0.4103  0.2440  0.4936
 7146TIP3    H242854   0.670   0.897   2.559 -0.3323  0.0031 -0.6008
 7147TIP3   OH242855   5.303   5.807   5.386 -0.0736  0.2694  0.2434
 7147TIP3    H142856   5.384   5.789   5.433  0.9495  0.6880 -1.2792
 7147TIP3    H242857   5.234   5.787   5.449  1.2125  0.7324  1.8750
 7148TIP3   OH242858   5.920   5.881  12.805 -0.0149 -0.0079 -0.4065
 7148TIP3    H142859   5.914   5.789  12.831 -3.8040 -1.0330 -3.8913
 7148TIP3    H242860   5.998   5.885  12.749  1.7539 -0.2832  1.8654
 7149TIP3   OH242861   5.980   0.686  11.630  0.4002  0.2254 -0.0595
 7149TIP3    H142862   5.928   0.746  11.683  0.5160 -0.6066  1.0247
 7149TIP3    H242863   6.067   0.688  11.670  1.5242  2.1875 -2.2933
 7150TIP3   OH242864   4.314   2.024   2.589  0.4074 -0.2091 -0.2231
 7150TIP3    H142865   4.352   1.937   2.578 -1.7298 -1.3147  0.4393
 7150TIP3    H242866   4.328   2.045   2.682  0.5880 -0.0290 -0.2922
 7151TIP3   OH242867   5.427   4.191  16.309  0.3374 -0.4143 -0.5140
 7151TIP3    H142868   5.490   4.121  16.320  0.4273 -0.1031  1.5237
 7151TIP3    H242869   5.479   4.267  16.283  0.6808 -0.3988  0.1929
 7152TIP3   OH242870   4.541   4.899   5.070 -0.3128 -0.3085  0.3453
 7152TIP3    H142871   4.469   4.929   5.126 -0.4712  0.9846 -0.5047
 7152TIP3    H242872   4.584   4.980   5.042  0.7425 -1.0137 -0.1154
 7153TIP3   OH242873   1.566   1.901   1.825  0.2642  0.2555  0.7355
 7153TIP3    H142874   1.632   1.885   1.757 -0.4292  1.1436 -0.1748
 7153TIP3    H242875   1.511   1.823   1.825  1.5190 -0.6898  1.7989
 7154TIP3   OH242876   3.732   5.201  10.614  0.3039  0.8008 -0.5019
 7154TIP3    H142877   3.689   5.217  10.530  0.4905  0.6100 -0.6354
 7154TIP3    H242878   3.679   5.131  10.654 -0.6361  1.8730  0.1767
 7155TIP3   OH242879   5.707   0.738  16.945  0.2767 -0.4512  0.0150
 7155TIP3    H142880   5.624   0.707  16.909 -0.2351  1.2940 -0.3788
 7155TIP3    H242881   5.699   0.833  16.946  1.6194 -0.3109  1.5595
 7156TIP3   OH242882   1.222   5.500   1.416  0.6021 -0.6412 -0.1729
 7156TIP3    H142883   1.223   5.497   1.511  0.6100 -1.0144 -0.1834
 7156TIP3    H242884   1.304   5.458   1.389 -0.0968 -1.9511 -0.3661
 7157TIP3   OH242885   3.501   0.328  14.955  0.2494 -0.1701 -0.7928
 7157TIP3    H142886   3.450   0.333  14.874  0.9205  0.2848 -1.1981
 7157TIP3    H242887   3.500   0.417  14.990 -0.4965 -0.4820 -0.0067
 7158TIP3   OH242888   2.402   5.834  16.220  0.1846  0.1169 -0.3407
 7158TIP3    H142889   2.368   5.750  16.251 -2.1309  1.4844  1.1241
 7158TIP3    H242890   2.353   5.851  16.140 -0.0962  0.5374 -0.0816
 7159TIP3   OH242891   3.365   3.011  11.119  0.4220  0.0080 -0.2544
 7159TIP3    H142892   3.450   3.047  11.146 -0.8059  2.7667  0.3549
 7159TIP3    H242893   3.361   3.024  11.025  1.0492 -1.0959 -0.4495
 7160TIP3   OH242894   5.981   5.687  13.339 -0.6306 -0.1691 -0.5324
 7160TIP3    H142895   5.969   5.778  13.368 -1.6242 -0.6933  0.7767
 7160TIP3    H242896   5.926   5.635  13.397 -0.7973 -1.5380 -1.8502
 7161TIP3   OH242897   6.700   3.982  12.142  0.1981  0.1430 -0.1010
 7161TIP3    H142898   6.761   3.927  12.191 -1.0082  1.1083  2.6687
 7161TIP3    H242899   6.756   4.031  12.081  1.8741 -0.6453  0.7434
 7162TIP3   OH242900   5.156   3.021   1.967  0.1126 -0.1781  0.4939
 7162TIP3    H142901   5.192   3.108   1.983  1.4674 -0.4872 -0.7060
 7162TIP3    H242902   5.082   3.037   1.908  1.6804  0.0385 -1.5376
 7163TIP3   OH242903   0.439   2.099  15.220 -0.1639  0.1080  0.7711
 7163TIP3    H142904   0.406   2.086  15.309 -0.1141 -0.2705  0.7341
 7163TIP3    H242905   0.529   2.130  15.232  0.0823 -0.6145  0.8463
 7164TIP3   OH242906   2.477   2.740   1.569  0.1775 -0.1437 -0.2761
 7164TIP3    H142907   2.392   2.747   1.526 -0.9155 -2.0595  1.3934
 7164TIP3    H242908   2.518   2.663   1.530 -1.4369 -2.7977  2.8162
 7165TIP3   OH242909   5.918   3.610  14.102 -0.1347  0.1290  0.5677
 7165TIP3    H142910   5.868   3.580  14.178 -0.5003  1.5055  0.9140
 7165TIP3    H242911   5.954   3.695  14.130 -2.7717  2.1855 -1.7529
 7166TIP3   OH242912   0.262   2.331  16.102  0.1184 -0.8566  0.5352
 7166TIP3    H142913   0.334   2.392  16.083  1.5028 -1.7675  2.4722
 7166TIP3    H242914   0.186   2.368  16.058  1.9063 -0.2440 -2.2518
 7167TIP3   OH242915   1.187   6.676  16.731  0.2156  0.2312  0.0512
 7167TIP3    H142916   1.136   6.596  16.718 -0.5979  0.3288  2.2268
 7167TIP3    H242917   1.253   6.674  16.662 -1.9497 -0.5165 -2.1286
 7168TIP3   OH242918   1.472   4.389  14.028 -0.4475 -0.1989 -0.3499
 7168TIP3    H142919   1.405   4.324  14.006 -0.8939  0.3969 -0.7958
 7168TIP3    H242920   1.473   4.392  14.124 -1.1192 -0.1559 -0.3414
 7169TIP3   OH242921   6.259   6.685  14.360 -0.7367  0.0038 -0.1899
 7169TIP3    H142922   6.240   6.761  14.305  0.4988 -0.6859 -1.6252
 7169TIP3    H242923   6.298   6.722  14.440 -0.4432  0.9032 -0.7407
 7170TIP3   OH242924   4.922   3.065   0.221 -1.0058  0.4123 -0.3963
 7170TIP3    H142925   4.860   3.016   0.166 -0.8358  1.4451 -1.5591
 7170TIP3    H242926   5.003   3.066   0.171  0.4761 -2.1310  1.7290
 7171TIP3   OH242927   4.833   3.609   0.077 -0.1378 -0.8723 -0.3177
 7171TIP3    H142928   4.823   3.702   0.056 -1.8494 -0.8218  0.5093
 7171TIP3    H242929   4.805   3.564  -0.002  3.1563 -0.7719 -1.6907
 7172TIP3   OH242930   2.489   5.341   1.934  0.1123 -0.3145 -0.0477
 7172TIP3    H142931   2.550   5.268   1.920  0.7565  0.0518  0.7915
 7172TIP3    H242932   2.450   5.324   2.019 -0.5486 -0.2410 -0.3308
 7173TIP3   OH242933   1.407   3.475  16.282  0.5193  0.3767 -0.1405
 7173TIP3    H142934   1.420   3.421  16.204  0.0961 -0.2653  0.2206
 7173TIP3    H242935   1.436   3.562  16.257  1.1397 -0.0049 -0.7624
 7174TIP3   OH242936   5.306   4.247  12.576  0.2629 -0.6328 -0.3532
 7174TIP3    H142937   5.320   4.157  12.607  0.4233 -0.6363 -0.4353
 7174TIP3    H242938   5.213   4.250  12.556  0.2095 -0.7115 -0.1241
 7175TIP3   OH242939   4.840   6.037   2.741 -0.1314  0.2794  0.3229
 7175TIP3    H142940   4.747   6.058   2.755 -0.3445  0.1265 -0.7432
 7175TIP3    H242941   4.885   6.074   2.817 -1.0897  0.1755  0.9531
 7176TIP3   OH242942   6.663   3.490   5.709  0.2853 -0.8774  0.4599
 7176TIP3    H142943   6.705   3.414   5.749  3.0424 -1.1607 -2.4967
 7176TIP3    H242944   6.712   3.565   5.743 -1.4469 -0.4541  2.2065
 7177TIP3   OH242945   6.683   3.576   1.236  0.2841  0.6428  0.1010
 7177TIP3    H142946   6.625   3.504   1.261 -0.8360  1.4194 -0.1822
 7177TIP3    H242947   6.707   3.556   1.145  2.1074 -0.7096  0.8058
 7178TIP3   OH242948   2.991   1.947  12.439  0.3604  0.4156 -0.3890
 7178TIP3    H142949   3.033   2.032  12.429  0.7875  0.1495 -0.9276
 7178TIP3    H242950   3.039   1.904  12.510  0.9092  0.1748 -0.8973
 7179TIP3   OH242951   2.973   6.375  12.434  0.1877 -0.0865  0.7382
 7179TIP3    H142952   3.012   6.431  12.367  1.6652 -1.0274  0.7547
 7179TIP3    H242953   3.048   6.330  12.474 -0.8763 -1.5948  1.1439
 7180TIP3   OH242954   5.334   5.904  16.587 -0.3702 -0.4601  0.0298
 7180TIP3    H142955   5.298   5.968  16.525 -0.8156  0.3924  1.1416
 7180TIP3    H242956   5.419   5.880  16.549  0.6275  2.1140  0.4250
 7181TIP3   OH242957   3.092   3.239  12.081 -0.1006 -1.2528 -0.1207
 7181TIP3    H142958   3.056   3.157  12.114 -0.1407 -0.6159  1.4758
 7181TIP3    H242959   3.185   3.235  12.101 -0.1837 -0.7106  0.3910
 7182TIP3   OH242960   2.539   1.756   4.137 -0.1438 -0.1834 -0.2007
 7182TIP3    H142961   2.468   1.694   4.156 -1.5639  1.2844 -0.5140
 7182TIP3    H242962   2.516   1.835   4.186  1.3078  0.3276 -0.2973
 7183TIP3   OH242963   6.441   6.032  14.106  0.0805 -0.2414 -0.2098
 7183TIP3    H142964   6.383   6.104  14.079 -0.6826 -0.1705  1.4766
 7183TIP3    H242965   6.529   6.068  14.097 -0.2912  1.0659  0.8520
 7184TIP3   OH242966   5.827   1.119  11.773 -0.2847 -0.1104  0.0139
 7184TIP3    H142967   5.757   1.183  11.759  1.1451  1.0747 -2.5172
 7184TIP3    H242968   5.878   1.154  11.846 -1.1533  0.0910  0.5324
 7185TIP3   OH242969   5.783   4.458  13.350  0.0438  0.3247  0.3348
 7185TIP3    H142970   5.724   4.384  13.367 -1.9491  1.1435 -2.3345
 7185TIP3    H242971   5.767   4.518  13.423 -1.8101  0.1098  0.1540
 7186TIP3   OH242972   2.111   6.032  15.162  0.2886  0.2873 -0.2691
 7186TIP3    H142973   2.056   6.108  15.185 -2.6811 -1.5104 -0.8639
 7186TIP3    H242974   2.089   6.014  15.071  2.5557 -0.0911 -0.8017
 7187TIP3   OH242975   4.335   3.420  15.187  0.0478  0.0712 -0.2748
 7187TIP3    H142976   4.302   3.383  15.105 -1.3123 -1.0623  0.7396
 7187TIP3    H242977   4.325   3.515  15.176  0.3968 -0.0208 -1.6030
 7188TIP3   OH242978   6.503   2.961   4.666  0.2435  0.6405 -0.2813
 7188TIP3    H142979   6.526   3.009   4.746 -2.2231  2.4367 -0.5131
 7188TIP3    H242980   6.580   2.968   4.611  0.5756  3.0110  0.3779
 7189TIP3   OH242981   0.945   0.198   4.622  0.4371 -0.1534  0.2364
 7189TIP3    H142982   0.922   0.275   4.673 -2.9108  0.6306 -2.1006
 7189TIP3    H242983   0.870   0.140   4.631  0.7212 -0.9515 -1.9233
 7190TIP3   OH242984   1.847   0.931  13.584 -0.3332  0.0169 -0.1328
 7190TIP3    H142985   1.826   0.911  13.493 -1.5698 -0.6183  0.2641
 7190TIP3    H242986   1.859   1.026  13.585 -0.1879  0.0186 -0.9791
 7191TIP3   OH242987   4.530   3.751   0.508  0.0610  0.2646  0.2491
 7191TIP3    H142988   4.522   3.706   0.424 -1.1189  0.9897 -0.0486
 7191TIP3    H242989   4.506   3.841   0.489 -1.5260  0.1687  1.6086
 7192TIP3   OH242990   0.542   6.410  15.762  0.1116  0.0239  0.3608
 7192TIP3    H142991   0.527   6.365  15.679 -1.1727 -0.6784  0.9550
 7192TIP3    H242992   0.458   6.450  15.783  0.3185 -0.1311  1.5154
 7193TIP3   OH242993   4.755   3.887  15.650  0.7393  0.3151  0.6654
 7193TIP3    H142994   4.753   3.792  15.662 -2.7022 -0.0422 -1.5542
 7193TIP3    H242995   4.738   3.922  15.738  0.9741 -1.1031  1.3201
 7194TIP3   OH242996   5.644   0.154   0.782  0.0823  0.5096  0.1801
 7194TIP3    H142997   5.711   0.220   0.797  1.5128 -0.6957 -0.5489
 7194TIP3    H242998   5.639   0.146   0.687  0.7723 -1.1641  0.2363
 7195TIP3   OH242999   4.838   2.235   2.208  0.5418  0.4893 -0.0414
 7195TIP3    H143000   4.868   2.160   2.158  2.7557  1.4303 -0.2193
 7195TIP3    H243001   4.743   2.238   2.193  0.8093 -0.6484 -2.2344
 7196TIP3   OH243002   4.530   5.119  15.681  0.1665  0.0001 -0.0712
 7196TIP3    H143003   4.604   5.065  15.707 -0.5786 -1.4855 -0.8957
 7196TIP3    H243004   4.471   5.117  15.757 -0.7873 -2.1054 -0.8032
 7197TIP3   OH243005   5.275   6.118  16.759  0.0365 -0.3250  0.0596
 7197TIP3    H143006   5.310   6.047  16.704 -1.0983 -0.2258 -0.8211
 7197TIP3    H243007   5.246   6.073  16.838  0.3390 -0.6913 -0.0311
 7198TIP3   OH243008   3.493   3.918  16.728 -0.3074 -0.0974  0.0100
 7198TIP3    H143009   3.516   4.011  16.739 -0.3279 -0.3212  2.3934
 7198TIP3    H243010   3.433   3.917  16.653  1.2173  1.5323 -1.3120
 7199TIP3   OH243011   3.478   1.056  16.604 -0.2724  0.2941  0.1260
 7199TIP3    H143012   3.518   1.048  16.690 -0.1588 -0.6287  0.0080
 7199TIP3    H243013   3.504   1.142  16.572  0.0709  0.4489  0.8202
 7200TIP3   OH243014   6.330   3.894   5.096 -0.0530  0.1543 -0.2782
 7200TIP3    H143015   6.296   3.982   5.111 -0.4482 -0.1339  0.5276
 7200TIP3    H243016   6.395   3.881   5.165 -0.0938 -0.2399 -0.3114
 7201TIP3   OH243017   0.847   2.176  16.467 -0.3075  0.8383  0.0510
 7201TIP3    H143018   0.811   2.141  16.548 -0.3272 -0.3900 -0.4668
 7201TIP3    H243019   0.925   2.225  16.494 -1.4901  2.2329  1.0132
 7202TIP3   OH243020   4.441   4.777   2.476  0.2698  0.2354 -0.1399
 7202TIP3    H143021   4.468   4.806   2.563 -0.0375 -2.8143  1.0853
 7202TIP3    H243022   4.523   4.774   2.425  1.1364 -1.6095  1.2512
 7203TIP3   OH243023   0.617   2.236  14.903  0.0976  0.3092  0.1513
 7203TIP3    H143024   0.700   2.230  14.950 -0.2703  2.4269  1.2112
 7203TIP3    H243025   0.573   2.313  14.941 -0.6649  1.5818 -2.9485
 7204TIP3   OH243026   5.940   0.540  16.785  1.1661  0.7193  0.0853
 7204TIP3    H143027   5.973   0.453  16.810 -0.0922  0.0560 -0.4509
 7204TIP3    H243028   5.956   0.595  16.861 -1.7102 -0.9834  2.1443
 7205TIP3   OH243029   1.959   3.696   2.604 -0.1617 -0.2138 -0.3553
 7205TIP3    H143030   2.039   3.692   2.656  2.3676 -0.1504 -3.8816
 7205TIP3    H243031   1.893   3.653   2.659  1.9599  0.5904  3.1323
 7206TIP3   OH243032   1.114   6.364   4.739  0.0844  0.1537 -0.6381
 7206TIP3    H143033   1.047   6.315   4.691 -1.7156 -0.2443  2.0235
 7206TIP3    H243034   1.193   6.311   4.730 -0.4794 -0.5101 -2.0842
 7207TIP3   OH243035   6.041   5.330  13.466 -0.9157 -0.6679 -0.1967
 7207TIP3    H143036   6.040   5.274  13.388  0.6377  0.0859 -0.7862
 7207TIP3    H243037   5.967   5.390  13.453  0.0073  0.1986 -1.6738
 7208TIP3   OH243038   4.768   0.637  12.329  0.2618 -0.1165  0.2664
 7208TIP3    H143039   4.705   0.670  12.264 -0.0645 -1.1156  0.0598
 7208TIP3    H243040   4.854   0.657  12.291  0.0687 -0.1740 -0.2096
 7209TIP3   OH243041   2.444   0.287  16.766 -0.0386 -0.3959 -0.2259
 7209TIP3    H143042   2.464   0.377  16.741  0.1284 -0.7287 -1.3283
 7209TIP3    H243043   2.366   0.264  16.715 -0.3174 -0.7458  0.3482
 7210TIP3   OH243044   0.055   3.166  12.645  0.3081  0.4330 -0.5403
 7210TIP3    H143045   0.132   3.148  12.698  0.7800  0.7938 -1.0927
 7210TIP3    H243046   0.019   3.079  12.626  0.6853  0.2497 -0.4387
 7211TIP3   OH243047   3.895   4.491  11.646 -0.2143 -0.2917 -0.6951
 7211TIP3    H143048   3.841   4.542  11.586 -2.0590  0.3613  1.3869
 7211TIP3    H243049   3.962   4.552  11.676 -1.7923  0.7345  0.9852
 7212TIP3   OH243050   2.159   1.108  12.910 -0.4518 -0.0852  0.4553
 7212TIP3    H143051   2.079   1.144  12.949  1.1392  2.8414  1.3694
 7212TIP3    H243052   2.151   1.126  12.816 -1.2246 -0.5775  0.4259
 7213TIP3   OH243053   6.622   4.990   5.218  0.2590  0.0019  0.1174
 7213TIP3    H143054   6.633   5.083   5.241  1.1341 -0.2489  0.7607
 7213TIP3    H243055   6.710   4.954   5.221 -0.0088 -0.7360 -0.6764
 7214TIP3   OH243056   1.657   4.136   3.914 -0.2728 -0.2573  0.3593
 7214TIP3    H143057   1.670   4.045   3.889 -1.9196 -0.0073 -1.7046
 7214TIP3    H243058   1.582   4.135   3.973 -0.8792 -0.1677 -0.3994
 7215TIP3   OH243059   1.909   1.722  16.652  0.3738  0.4867 -0.0705
 7215TIP3    H143060   1.870   1.774  16.722  1.0952 -0.7116  1.2856
 7215TIP3    H243061   1.900   1.631  16.683 -0.3589 -0.1697 -2.0960
 7216TIP3   OH243062   1.211   2.246   0.751  0.1472 -0.2903 -0.3970
 7216TIP3    H143063   1.123   2.227   0.716  0.0127 -0.6602  0.1255
 7216TIP3    H243064   1.204   2.225   0.844  1.0216 -1.1089 -0.5002
 7217TIP3   OH243065   6.335   1.595   2.252 -0.3811 -0.1809 -0.3601
 7217TIP3    H143066   6.393   1.526   2.219 -0.8337 -1.7123  1.8551
 7217TIP3    H243067   6.391   1.672   2.259  0.4397 -0.6132 -1.7095
 7218TIP3   OH243068   0.972   4.117   4.370 -0.0715 -0.2349  0.5469
 7218TIP3    H143069   0.888   4.142   4.409  0.4891  2.0378  0.4644
 7218TIP3    H243070   1.037   4.168   4.418  1.3638 -2.3141  0.9380
 7219TIP3   OH243071   2.054   0.072  11.654  0.0885  0.4349  0.0611
 7219TIP3    H143072   2.040   0.121  11.735 -0.6114 -2.1799  1.6398
 7219TIP3    H243073   1.980   0.012  11.650  0.4009  0.1234 -2.2746
 7220TIP3   OH243074   4.109   1.940  13.198 -0.1863 -0.2763  0.5403
 7220TIP3    H143075   4.140   1.927  13.108 -2.3655  0.5915 -0.4082
 7220TIP3    H243076   4.136   1.860  13.244  0.0774 -1.2171 -1.1566
 7221TIP3   OH243077   3.667   3.479   3.783 -0.2113 -0.1987 -0.2596
 7221TIP3    H143078   3.746   3.426   3.771 -1.1484 -1.6609 -0.2420
 7221TIP3    H243079   3.683   3.527   3.864  0.7436 -0.3153 -0.3594
 7222TIP3   OH243080   6.245   6.374  12.659  0.2681 -0.2124 -0.4375
 7222TIP3    H143081   6.257   6.455  12.707  0.6500 -1.5530  1.8721
 7222TIP3    H243082   6.308   6.378  12.587  1.0140  1.0501  0.2703
 7223TIP3   OH243083   1.911   1.551  15.218  0.6513  0.4222 -0.4574
 7223TIP3    H143084   1.912   1.601  15.136  0.6187  1.0491 -0.0770
 7223TIP3    H243085   1.831   1.499  15.213  1.2010 -0.3875 -1.3143
 7224TIP3   OH243086   3.238   3.752   1.842  0.3006 -0.6089 -0.6299
 7224TIP3    H143087   3.276   3.670   1.873  0.3886 -0.5768 -0.6541
 7224TIP3    H243088   3.145   3.732   1.830 -0.1532 -0.0589  1.6482
 7225TIP3   OH243089   0.224   0.331   6.610  0.1676  0.3612 -0.3658
 7225TIP3    H143090   0.160   0.261   6.597  1.3376 -1.3086  1.9902
 7225TIP3    H243091   0.219   0.384   6.531 -1.9669 -1.4389 -1.5355
 7226TIP3   OH243092   5.132   0.197  12.728  0.2351 -0.6185 -0.2572
 7226TIP3    H143093   5.174   0.137  12.790  2.4106  0.3042 -0.7591
 7226TIP3    H243094   5.057   0.148  12.695  0.2850 -1.9579  1.4576
 7227TIP3   OH243095   3.200   1.319  15.975  0.7752  0.4514  0.1030
 7227TIP3    H143096   3.263   1.318  15.903  1.7757 -1.0844  0.9197
 7227TIP3    H243097   3.250   1.355  16.049  1.0873 -1.6284  1.0048
 7228TIP3   OH243098   0.155   0.598  13.628 -0.7707  0.2361  0.1119
 7228TIP3    H143099   0.209   0.671  13.600  1.9867 -2.0532 -1.0045
 7228TIP3    H243100   0.086   0.592  13.561 -0.1984  0.9638 -0.5545
 7229TIP3   OH243101   4.234   3.440  13.078  0.3354  0.0309  0.2133
 7229TIP3    H143102   4.269   3.359  13.115 -0.0412 -0.8904 -1.3271
 7229TIP3    H243103   4.219   3.419  12.986 -1.4530  1.3103  0.1557
 7230TIP3   OH243104   1.982   0.582  14.779 -0.3289  0.3253 -0.1750
 7230TIP3    H143105   1.888   0.586  14.761 -0.3235  1.1955 -0.0652
 7230TIP3    H243106   2.010   0.673  14.778  1.0100 -0.0273 -2.8196
 7231TIP3   OH243107   0.952   4.955   1.299 -0.4304 -0.2428 -0.1182
 7231TIP3    H143108   0.870   4.911   1.320 -0.4859  0.2190  0.6383
 7231TIP3    H243109   0.925   5.038   1.259 -0.3306 -1.0782 -2.0429
 7232TIP3   OH243110   2.658   4.004   3.657 -0.5346  0.6971  0.2491
 7232TIP3    H143111   2.676   4.096   3.676  1.2979  0.5868 -0.6413
 7232TIP3    H243112   2.631   4.004   3.565  3.3350  0.0882 -1.0854
 7233TIP3   OH243113   3.204   3.788   0.179  0.4411  0.4871 -0.5219
 7233TIP3    H143114   3.232   3.747   0.260  0.2021  1.1869 -0.0706
 7233TIP3    H243115   3.271   3.764   0.115 -0.0984 -1.2352 -0.4789
 7234TIP3   OH243116   0.724   2.164  15.307 -0.2370 -0.3039 -0.0879
 7234TIP3    H143117   0.783   2.098  15.268  0.6695  0.6418 -0.3748
 7234TIP3    H243118   0.753   2.247  15.268 -1.3145  0.2723  0.3196
 7235TIP3   OH243119   1.906   3.761   4.198  0.8323  0.7620  0.1913
 7235TIP3    H143120   1.961   3.822   4.149 -0.1169  1.1455 -0.4468
 7235TIP3    H243121   1.945   3.756   4.285  1.3531  1.6947  0.0154
 7236TIP3   OH243122   5.165   5.606   4.349 -0.8388 -0.3717  0.1804
 7236TIP3    H143123   5.075   5.623   4.376 -0.4817  1.9033  0.1263
 7236TIP3    H243124   5.211   5.688   4.366  0.6770 -0.6838 -2.0164
 7237TIP3   OH243125   0.456   4.361   5.317 -0.5178 -0.3625 -0.0915
 7237TIP3    H143126   0.421   4.328   5.400 -1.0908  1.7697  0.5826
 7237TIP3    H243127   0.458   4.456   5.328  0.7035 -0.1081 -2.0367
 7238TIP3   OH243128   3.800   1.587  15.173  0.2005 -0.0541  0.5035
 7238TIP3    H143129   3.730   1.650  15.154 -0.3837 -0.9523 -0.3928
 7238TIP3    H243130   3.816   1.543  15.090  1.0623 -0.6392  0.9648
 7239TIP3   OH243131   0.109   0.464   2.022  0.3016 -0.0148  0.0195
 7239TIP3    H143132   0.026   0.493   1.985  0.9502  0.4382 -1.1007
 7239TIP3    H243133   0.083   0.400   2.090 -0.9049 -1.0700 -1.3601
 7240TIP3   OH243134   5.390   6.395   1.956  0.0612 -0.5689  0.8605
 7240TIP3    H143135   5.439   6.409   2.037  1.8979 -0.5116 -0.2236
 7240TIP3    H243136   5.455   6.364   1.893 -1.2576 -0.2792 -0.7088
 7241TIP3   OH243137   5.650   0.054  16.100 -0.2018  0.4524  0.1604
 7241TIP3    H143138   5.611   0.045  16.187 -3.1217 -1.0132 -1.1486
 7241TIP3    H243139   5.625   0.141  16.071 -2.8057 -0.4732 -0.6694
 7242TIP3   OH243140   6.737   2.401  12.281 -0.3555 -0.3838  0.0280
 7242TIP3    H143141   6.753   2.462  12.209  0.7388  0.6924  1.1422
 7242TIP3    H243142   6.703   2.456  12.352  2.8323 -0.5512  1.8669
 7243TIP3   OH243143   2.032   1.591  13.793 -0.0637  0.7530  0.1674
 7243TIP3    H143144   2.033   1.510  13.844  0.6826  0.7157  0.1065
 7243TIP3    H243145   2.044   1.563  13.702 -3.5150  0.6201 -0.3970
 7244TIP3   OH243146   3.171   3.957   5.442  0.2650  0.1741 -0.5715
 7244TIP3    H143147   3.152   4.014   5.517  0.5688 -0.2653 -0.1545
 7244TIP3    H243148   3.111   3.988   5.373 -1.0338 -0.3350  0.2914
 7245TIP3   OH243149   2.121   4.937  16.892 -0.2582 -0.6104  0.0385
 7245TIP3    H143150   2.153   5.027  16.887  1.0155 -1.0436  0.0466
 7245TIP3    H243151   2.201   4.883  16.894 -0.9299 -1.6496  2.3042
 7246TIP3   OH243152   4.261   1.320   3.455 -0.3445 -0.5707 -0.0832
 7246TIP3    H143153   4.201   1.345   3.525 -0.4237 -0.8855 -0.0366
 7246TIP3    H243154   4.337   1.376   3.467 -0.5965 -0.2278 -0.0896
 7247TIP3   OH243155   0.568   1.454   6.560 -0.6205 -0.7831 -0.2381
 7247TIP3    H143156   0.482   1.482   6.529 -0.4352 -0.5372 -0.5366
 7247TIP3    H243157   0.596   1.388   6.498 -0.7798 -1.1787  0.1058
 7248TIP3   OH243158   4.871   2.773  14.006 -0.6630  0.3983 -0.3163
 7248TIP3    H143159   4.831   2.693  14.042 -0.8318  1.1488  1.2203
 7248TIP3    H243160   4.858   2.839  14.073  1.2334  1.2371 -0.7142
 7249TIP3   OH243161   5.586   2.478  12.303  0.5526 -0.1848 -0.6732
 7249TIP3    H143162   5.665   2.496  12.353 -1.0276 -0.9633  2.3792
 7249TIP3    H243163   5.604   2.397  12.256  1.8354  0.0850 -0.6630
 7250TIP3   OH243164   0.478   3.530   2.944  0.2578 -0.6152 -0.3742
 7250TIP3    H143165   0.469   3.622   2.971 -1.5653 -0.5302 -1.1069
 7250TIP3    H243166   0.434   3.481   3.013 -1.0148 -0.6956 -1.1991
 7251TIP3   OH243167   3.540   4.142  13.739  0.4247  0.7356 -0.3394
 7251TIP3    H143168   3.541   4.205  13.811 -2.3073 -0.1118  0.5657
 7251TIP3    H243169   3.591   4.067  13.771  0.5399  0.9822  0.0581
 7252TIP3   OH243170   4.134   4.084   3.482  0.5336 -0.0265 -0.0122
 7252TIP3    H143171   4.221   4.117   3.503 -0.8536  3.8669  0.3499
 7252TIP3    H243172   4.126   4.095   3.387  0.3829 -0.3295 -0.0373
 7253TIP3   OH243173   2.742   6.417  13.026 -0.1675 -0.1819  0.2129
 7253TIP3    H143174   2.675   6.369  13.074  0.2753 -0.3537  0.6627
 7253TIP3    H243175   2.766   6.489  13.083  0.5175 -0.5121  0.3491
 7254TIP3   OH243176   1.105   1.627  12.904 -0.0834 -0.1020 -0.6214
 7254TIP3    H143177   1.042   1.629  12.976  0.1216  0.1266 -0.4484
 7254TIP3    H243178   1.092   1.541  12.863  0.1043 -0.4162 -0.0370
 7255TIP3   OH243179   3.437   4.480  16.726  0.2247 -0.5818  0.0448
 7255TIP3    H143180   3.463   4.503  16.815  0.2845  1.5897 -0.4718
 7255TIP3    H243181   3.364   4.539  16.706  0.4072 -0.8171 -1.4499
 7256TIP3   OH243182   4.276   4.172  16.963  0.4916 -0.3643 -0.0226
 7256TIP3    H143183   4.288   4.263  16.990  1.3413 -0.7865  1.0909
 7256TIP3    H243184   4.349   4.153  16.905 -0.6449  0.1609 -1.6938
 7257TIP3   OH243185   4.418   6.135  14.038  0.0937  0.5183 -0.1519
 7257TIP3    H143186   4.477   6.175  14.101 -0.1754  1.0699 -0.2458
 7257TIP3    H243187   4.451   6.162  13.953  1.0039 -0.9739 -0.3067
 7258TIP3   OH243188   4.036   6.007   1.305  0.0650  0.0219  0.3031
 7258TIP3    H143189   4.087   5.955   1.242 -0.5853 -0.7261  0.3688
 7258TIP3    H243190   4.000   5.942   1.365  1.1574  0.7720  1.8333
 7259TIP3   OH243191   5.524   5.122  12.838  0.8947 -0.4064  0.0796
 7259TIP3    H143192   5.483   5.111  12.924  1.7654 -1.5243  0.3794
 7259TIP3    H243193   5.463   5.176  12.789  0.6782  0.8203  1.6132
 7260TIP3   OH243194   6.628   4.619   0.370 -0.1133 -0.1804  0.0557
 7260TIP3    H143195   6.706   4.581   0.329 -0.5013  0.5450 -1.3946
 7260TIP3    H243196   6.615   4.566   0.449  2.1055 -0.0346  0.5984
 7261TIP3   OH243197   0.555   1.597   5.336 -0.8484  0.1027 -0.2905
 7261TIP3    H143198   0.524   1.687   5.327  2.5992  1.5092  0.3894
 7261TIP3    H243199   0.581   1.572   5.247 -0.6765  0.2617 -0.2865
 7262TIP3   OH243200   5.182   1.329  11.743  0.0474  0.6963  0.4381
 7262TIP3    H143201   5.219   1.249  11.781 -0.5961  1.0447  1.8361
 7262TIP3    H243202   5.169   1.307  11.651 -1.5452 -1.3545  1.0749
 7263TIP3   OH243203   0.505   1.323  16.294  0.7780 -0.1094  0.6123
 7263TIP3    H143204   0.455   1.291  16.219  1.7257 -0.4559  0.1087
 7263TIP3    H243205   0.467   1.278  16.369 -0.4144  0.5079  0.3983
 7264TIP3   OH243206   0.537   3.142   2.529  0.3916 -0.2324 -0.2380
 7264TIP3    H143207   0.448   3.118   2.503  0.7427 -2.3152  0.2508
 7264TIP3    H243208   0.525   3.193   2.609 -0.3618 -1.8418  0.7414
 7265TIP3   OH243209   5.969   5.421  11.743 -0.1483  0.0453  0.0364
 7265TIP3    H143210   5.987   5.378  11.660  1.8216  2.6447 -0.9916
 7265TIP3    H243211   5.874   5.434  11.743 -0.1917 -0.0351 -1.7642
 7266TIP3   OH243212   5.458   6.283  11.487  0.4001  0.3180 -0.3885
 7266TIP3    H143213   5.378   6.331  11.467 -0.9353 -1.0020  1.4406
 7266TIP3    H243214   5.450   6.200  11.439 -0.0845 -0.4302  0.9131
 7267TIP3   OH243215   6.699   0.724  13.841  0.5782  0.1408  0.0499
 7267TIP3    H143216   6.691   0.655  13.775  0.1829 -0.5405  0.7859
 7267TIP3    H243217   6.665   0.684  13.921  0.2375  1.2354  0.4681
 7268TIP3   OH243218   1.135   2.504  14.573  0.8987  0.1040  0.0601
 7268TIP3    H143219   1.132   2.420  14.527 -0.4025  0.0982  0.1176
 7268TIP3    H243220   1.205   2.494  14.637 -0.8950 -1.9284  1.8810
 7269TIP3   OH243221   0.772   6.168  13.302 -0.7199 -0.1434  0.5195
 7269TIP3    H143222   0.692   6.203  13.262 -0.1320 -0.2298 -0.7966
 7269TIP3    H243223   0.779   6.079  13.267  0.9891  0.5394 -1.0075
 7270TIP3   OH243224   4.384   1.515   5.072  0.1126  0.5268  0.0782
 7270TIP3    H143225   4.382   1.595   5.020 -1.4906 -0.1402 -0.9733
 7270TIP3    H243226   4.458   1.465   5.038  0.0774  0.8225 -0.4262
 7271TIP3   OH243227   4.547   5.948   4.337 -0.2095  0.1302  0.0690
 7271TIP3    H143228   4.477   5.968   4.400  0.5496 -1.2993  1.4469
 7271TIP3    H243229   4.539   5.854   4.322  2.5124 -0.4966  1.7670
 7272TIP3   OH243230   3.008   5.054   5.829 -0.4742  0.9540 -0.9982
 7272TIP3    H143231   3.085   5.109   5.848  0.7545 -0.2613 -2.2225
 7272TIP3    H243232   3.021   4.976   5.881 -2.1339  1.6843  0.6000
 7273TIP3   OH243233   3.572   1.943   3.618 -0.4101 -0.1603  0.1992
 7273TIP3    H143234   3.501   1.975   3.673 -0.9624 -2.7270  1.0799
 7273TIP3    H243235   3.651   1.983   3.655 -1.0802  0.4874  0.9716
 7274TIP3   OH243236   2.457   1.772  11.731 -0.4617 -0.5351 -0.1443
 7274TIP3    H143237   2.524   1.828  11.769 -1.6748  0.3612  0.7663
 7274TIP3    H243238   2.430   1.715  11.803  0.3361 -1.8905 -0.9019
 7275TIP3   OH243239   4.415   6.269  15.255 -0.2663  0.2585 -0.5311
 7275TIP3    H143240   4.490   6.298  15.203 -0.0572 -0.6063 -0.7262
 7275TIP3    H243241   4.404   6.177  15.232 -1.3255  0.3470 -0.4185
 7276TIP3   OH243242   5.367   5.715  11.218  0.5932 -0.2206  0.3289
 7276TIP3    H143243   5.400   5.787  11.164 -1.2904 -0.7246 -1.6189
 7276TIP3    H243244   5.443   5.656  11.228  1.8878  1.4957  1.1322
 7277TIP3   OH243245   5.546   0.565  14.007 -0.3383  0.0889  0.2765
 7277TIP3    H143246   5.460   0.607  14.005  0.0380  0.8584 -0.6737
 7277TIP3    H243247   5.577   0.569  13.916  1.1061  0.7087  0.7562
 7278TIP3   OH243248   6.445   1.640  12.409 -0.5852 -0.2271 -0.6577
 7278TIP3    H143249   6.441   1.598  12.495  0.4092  2.3587  0.7375
 7278TIP3    H243250   6.537   1.664  12.398 -1.2534  2.5248 -0.8564
 7279TIP3   OH243251   4.097   4.958  11.309 -0.8472 -0.2926  0.4768
 7279TIP3    H143252   4.064   4.934  11.223  1.3405  1.6812 -1.0281
 7279TIP3    H243253   4.066   5.047  11.324  1.8234  0.8212 -0.0564
 7280TIP3   OH243254   0.722   3.884   2.008 -0.2035  0.2746 -0.8140
 7280TIP3    H143255   0.769   3.955   2.052  0.5741  0.9858 -2.6845
 7280TIP3    H243256   0.775   3.806   2.025 -1.7679 -0.2411  2.4070
 7281TIP3   OH243257   1.694   4.936   1.517 -0.5932 -0.0993  0.0635
 7281TIP3    H143258   1.647   4.937   1.435  0.4401 -2.2121 -0.6378
 7281TIP3    H243259   1.745   5.017   1.517 -1.6284  0.5744 -0.7079
 7282TIP3   OH243260   2.266   2.544  14.976 -0.7177  0.3157  0.2303
 7282TIP3    H143261   2.349   2.576  14.941 -0.5532  1.5103  1.6047
 7282TIP3    H243262   2.252   2.596  15.055 -2.8735  0.2797 -0.0725
 7283TIP3   OH243263   5.303   6.287  13.355  0.2160  0.1860  0.1531
 7283TIP3    H143264   5.265   6.270  13.269 -2.0175 -2.6680  1.5058
 7283TIP3    H243265   5.382   6.233  13.358 -0.9981 -1.6522  0.6345
 7284TIP3   OH243266   0.355   5.528   1.673 -0.1015 -0.3571 -0.1557
 7284TIP3    H143267   0.413   5.583   1.619  0.1619 -1.4291 -0.9962
 7284TIP3    H243268   0.347   5.446   1.624 -1.7008 -0.5328  0.3370
 7285TIP3   OH243269   6.014   0.577   6.103 -0.5559 -0.0373  0.3386
 7285TIP3    H143270   6.074   0.578   6.028 -1.8557 -0.0412 -0.7351
 7285TIP3    H243271   6.028   0.491   6.143  0.4856  0.1423  0.4038
 7286TIP3   OH243272   6.421   2.635   0.091 -0.0548 -0.3427 -0.0328
 7286TIP3    H143273   6.433   2.568   0.023 -1.0604  0.5052 -1.0787
 7286TIP3    H243274   6.508   2.674   0.102  0.2191 -0.8115 -0.4777
 7287TIP3   OH243275   5.163   3.577   3.937  0.1420 -0.0264 -0.5007
 7287TIP3    H143276   5.158   3.535   3.852  1.0036 -1.1759 -0.0003
 7287TIP3    H243277   5.244   3.545   3.976 -0.4759  0.0897  0.9514
 7288TIP3   OH243278   1.208   5.056   4.887 -0.2593 -0.4944  0.5858
 7288TIP3    H143279   1.212   5.113   4.810  0.6250  0.5858  1.4158
 7288TIP3    H243280   1.252   4.976   4.859  4.0416  1.3778  1.1469
 7289TIP3   OH243281   3.438   3.924  14.040  0.2975 -0.2327 -0.2671
 7289TIP3    H143282   3.494   4.000  14.058 -0.7856  0.8881 -1.4347
 7289TIP3    H243283   3.369   3.929  14.106  0.2250 -0.2104 -0.3451
 7290TIP3   OH243284   3.254   0.018   5.264 -0.2476  0.1162 -0.3095
 7290TIP3    H143285   3.303   0.078   5.322  0.8963 -0.6150 -0.4788
 7290TIP3    H243286   3.261  -0.067   5.308 -1.6396  0.0336 -0.2027
 7291TIP3   OH243287   2.033   4.997  16.639  0.0887 -0.2241  0.1430
 7291TIP3    H143288   2.122   5.012  16.607  0.2723  0.1869  0.8276
 7291TIP3    H243289   2.044   4.956  16.725 -0.4014 -2.3139 -0.7343
 7292TIP3   OH243290   6.268   3.556  10.803 -0.2799  0.0786 -0.7032
 7292TIP3    H143291   6.276   3.557  10.899  2.6195  0.4536 -0.8762
 7292TIP3    H243292   6.232   3.642  10.782  0.5488  0.6089 -0.0233
 7293TIP3   OH243293   6.022   5.263  13.188 -0.1879 -0.6929  0.5720
 7293TIP3    H143294   5.997   5.330  13.125 -0.9875 -0.2518  1.3367
 7293TIP3    H243295   6.014   5.180  13.140  0.3608 -0.2908 -0.2425
 7294TIP3   OH243296   5.910   0.006   1.087 -0.1368  0.2913 -0.1912
 7294TIP3    H143297   5.967  -0.026   1.017  0.0941  0.6484 -0.1658
 7294TIP3    H243298   5.822  -0.001   1.051  0.0279  1.1167 -0.7744
 7295TIP3   OH243299   0.814   3.104   4.806  0.1098 -0.0906 -0.3234
 7295TIP3    H143300   0.735   3.145   4.771  0.3463 -0.4145 -1.2883
 7295TIP3    H243301   0.801   3.103   4.901 -0.5427  0.8678 -0.3889
 7296TIP3   OH243302   6.200   3.260  15.355 -0.1991 -0.8358  0.7931
 7296TIP3    H143303   6.200   3.235  15.262 -0.7054  2.1008 -0.0958
 7296TIP3    H243304   6.142   3.197  15.397 -3.1283  0.0182 -1.6500
 7297TIP3   OH243305   3.795   1.876   3.966  0.5569  0.1368 -0.1619
 7297TIP3    H143306   3.872   1.822   3.946  0.0920 -1.1285  1.3165
 7297TIP3    H243307   3.806   1.900   4.058 -0.6749  0.1924 -0.0197
 7298TIP3   OH243308   3.938   6.424   4.264 -0.4492 -0.1752  0.3150
 7298TIP3    H143309   3.984   6.499   4.301  0.5191  0.3495 -1.8272
 7298TIP3    H243310   4.000   6.351   4.275  0.0193  0.0693 -0.5706
 7299TIP3   OH243311   0.923   0.551   0.806  0.5206  0.6390  0.0472
 7299TIP3    H143312   0.967   0.629   0.841 -0.0697  1.4308 -0.9183
 7299TIP3    H243313   0.856   0.531   0.871  1.5492  0.0807  0.9870
 7300TIP3   OH243314   4.835   1.059   1.334  0.4114 -0.3597 -0.0233
 7300TIP3    H143315   4.928   1.036   1.333  0.6790  0.6911 -0.5909
 7300TIP3    H243316   4.807   1.043   1.424  1.7159  1.4748  0.7693
 7301TIP3   OH243317   3.788   0.726   5.146  0.2114 -0.1953  0.4703
 7301TIP3    H143318   3.811   0.635   5.167 -1.1598 -0.4544  0.9870
 7301TIP3    H243319   3.799   0.733   5.051  0.5151 -0.8491  0.4543
 7302TIP3   OH243320   5.916   3.376  16.782  0.3495 -0.0355 -0.8989
 7302TIP3    H143321   5.988   3.314  16.793  0.7969  0.3485 -1.6007
 7302TIP3    H243322   5.873   3.378  16.868  2.7060  1.6118  0.3325
 7303TIP3   OH243323   5.378   1.839  14.369  1.0892  0.4560  0.4685
 7303TIP3    H143324   5.363   1.887  14.450  0.2954 -0.0693  0.6482
 7303TIP3    H243325   5.468   1.808  14.376  0.6595 -0.6252  1.7344
 7304TIP3   OH243326   1.961   3.557  13.053 -0.5570  0.1863  0.6630
 7304TIP3    H143327   1.919   3.482  13.011 -0.3097  0.7537 -0.6474
 7304TIP3    H243328   1.937   3.550  13.145 -2.0491 -0.4866  0.2458
 7305TIP3   OH243329   0.727   0.175  12.827  0.5324 -0.2985  0.3453
 7305TIP3    H143330   0.802   0.158  12.771  1.2081  1.7781  0.5127
 7305TIP3    H243331   0.749   0.257  12.872 -0.6517 -1.0820  2.4965
 7306TIP3   OH243332   5.842   6.062   1.155  0.3717 -0.1223 -0.2300
 7306TIP3    H143333   5.756   6.103   1.148 -0.8090 -2.3882  0.4011
 7306TIP3    H243334   5.843   5.996   1.085 -0.0349 -2.8271  2.1477
 7307TIP3   OH243335   2.337   1.209   3.608  0.0515 -0.3657 -0.2393
 7307TIP3    H143336   2.304   1.160   3.533  0.6818 -0.4043 -0.5035
 7307TIP3    H243337   2.363   1.142   3.671 -0.2976 -0.3386 -0.0684
 7308TIP3   OH243338   5.367   3.345   1.036  0.4300  0.2715  0.4011
 7308TIP3    H143339   5.280   3.384   1.035  0.1018 -0.3054 -2.9961
 7308TIP3    H243340   5.392   3.339   0.944  1.9361 -4.1608  0.8718
 7309TIP3   OH243341   4.463   2.105  12.613 -0.1570 -0.5956 -0.4041
 7309TIP3    H143342   4.427   2.160  12.683  0.2013  2.7396 -2.6297
 7309TIP3    H243343   4.556   2.097  12.635  0.0207  0.7059 -0.6494
 7310TIP3   OH243344   0.822   4.539   1.447  0.2119  0.1415 -0.0748
 7310TIP3    H143345   0.896   4.484   1.424  2.3392  1.6216  2.5905
 7310TIP3    H243346   0.772   4.488   1.510  0.3030 -0.0026 -0.1197
 7311TIP3   OH243347   2.201   1.491   4.359 -0.9974  0.8816 -0.4402
 7311TIP3    H143348   2.235   1.414   4.313 -0.3116  0.8034  0.1948
 7311TIP3    H243349   2.236   1.565   4.309 -1.7411  0.8014 -1.1130
 7312TIP3   OH243350   4.333   5.564  11.035 -0.1529  0.3124  0.0706
 7312TIP3    H143351   4.386   5.504  11.088  0.6139  0.4362 -0.5405
 7312TIP3    H243352   4.313   5.636  11.095  0.0585  0.0835  0.4202
 7313TIP3   OH243353   0.171   6.728  17.059 -0.1267 -0.0616  0.1499
 7313TIP3    H143354   0.134   6.815  17.046 -1.9115 -0.7212  0.5466
 7313TIP3    H243355   0.141   6.677  16.984  1.2605 -0.2467 -0.3039
 7314TIP3   OH243356   5.092   3.448  11.575  0.3987  0.7666  0.2569
 7314TIP3    H143357   5.086   3.353  11.590  0.2368  0.6821 -0.3434
 7314TIP3    H243358   5.017   3.468  11.520  1.8365  0.8080 -1.7965
 7315TIP3   OH243359   6.610   0.699   4.115 -0.5705  0.2319  0.4009
 7315TIP3    H143360   6.538   0.749   4.154 -0.2898  0.5814  0.4754
 7315TIP3    H243361   6.605   0.718   4.021 -0.6525  0.1568  0.3901
 7316TIP3   OH243362   6.766   0.341   3.583 -0.2851  0.0589 -0.5507
 7316TIP3    H143363   6.781   0.371   3.673 -1.2935  0.0625 -0.3781
 7316TIP3    H243364   6.784   0.418   3.529 -0.3727  0.2559 -0.3031
 7317TIP3   OH243365   5.181   3.220   3.548 -0.4711 -0.4166  0.4041
 7317TIP3    H143366   5.158   3.245   3.458 -0.8467  1.7664  1.0534
 7317TIP3    H243367   5.112   3.158   3.574 -1.7336  0.7694 -0.0138
 7318TIP3   OH243368   5.245   2.952  12.712 -0.5330  0.2557 -0.3043
 7318TIP3    H143369   5.215   3.021  12.771 -0.0114  0.2363 -0.0175
 7318TIP3    H243370   5.218   2.982  12.625 -1.0646  0.4116 -0.0875
 7319TIP3   OH243371   5.216   2.823  16.972  0.0373 -0.3305  0.3945
 7319TIP3    H143372   5.294   2.869  16.941 -1.2320  1.4811 -0.2987
 7319TIP3    H243373   5.202   2.753  16.909 -0.5604  1.1941 -1.2269
 7320TIP3   OH243374   4.851   5.332  11.768  0.3800 -0.3122 -0.3821
 7320TIP3    H143375   4.858   5.339  11.863 -1.3563  1.3227 -0.3073
 7320TIP3    H243376   4.936   5.363  11.735  0.7358 -0.1938  0.6220
 7321TIP3   OH243377   4.029   1.971  16.102  0.0083  0.1312 -0.2921
 7321TIP3    H143378   4.085   1.973  16.179  0.4650 -2.9613 -0.4208
 7321TIP3    H243379   3.959   1.909  16.124 -0.1443 -0.4299 -2.1526
 7322TIP3   OH243380   2.669   4.166  13.191 -0.5045  0.5596  0.3861
 7322TIP3    H143381   2.686   4.199  13.280  1.1650  0.5505  0.1144
 7322TIP3    H243382   2.728   4.217  13.136  2.4294 -2.8503 -0.0456
 7323TIP3   OH243383   6.084   1.491  16.833 -0.7293 -0.1585 -0.3627
 7323TIP3    H143384   6.179   1.494  16.843 -0.8113  0.4375  0.2536
 7323TIP3    H243385   6.068   1.514  16.741 -0.2908 -0.1670 -0.4400
 7324TIP3   OH243386   3.134   6.250  14.978  0.1628 -0.4866 -0.3394
 7324TIP3    H143387   3.151   6.229  15.070  1.3067 -2.2398 -0.8951
 7324TIP3    H243388   3.074   6.181  14.949  0.2987 -0.3063 -1.0676
 7325TIP3   OH243389   2.049   4.147   3.083  0.5656  0.1835 -0.2576
 7325TIP3    H143390   1.988   4.186   3.020  1.1178  0.3492 -0.6940
 7325TIP3    H243391   2.105   4.090   3.031 -0.9823 -2.2028  0.5237
 7326TIP3   OH243392   6.183   4.533  14.454  0.1826  0.3447 -0.3139
 7326TIP3    H143393   6.173   4.522  14.548  1.7997 -0.7688 -0.2339
 7326TIP3    H243394   6.152   4.450  14.416  0.7563  0.2777 -0.6536
 7327TIP3   OH243395   3.264   0.940   3.292 -0.1549  0.1103 -0.8333
 7327TIP3    H143396   3.254   1.010   3.227  0.5373 -0.4159 -1.5428
 7327TIP3    H243397   3.183   0.889   3.286  0.3784 -0.6412 -2.1936
 7328TIP3   OH243398   4.803   1.529   5.479  0.6032 -0.1639  0.4340
 7328TIP3    H143399   4.752   1.501   5.555 -0.0009  2.1514  0.9689
 7328TIP3    H243400   4.883   1.568   5.516  0.3758  0.8432 -0.0740
 7329TIP3   OH243401   6.296   5.586  11.254 -0.2131  0.4727 -0.1500
 7329TIP3    H143402   6.240   5.530  11.200  1.3795  1.0515 -2.5771
 7329TIP3    H243403   6.246   5.667  11.263 -0.3072  0.5533 -1.2493
 7330TIP3   OH243404   5.279   0.581  13.139  0.5570  0.4731  0.2464
 7330TIP3    H143405   5.221   0.505  13.142  2.5818 -1.1637 -0.2718
 7330TIP3    H243406   5.280   0.608  13.047  0.5979  0.5398  0.2658
 7331TIP3   OH243407   3.539   3.541  14.721 -0.1512  0.4643  0.0521
 7331TIP3    H143408   3.544   3.453  14.683  0.0736  0.4336  0.1468
 7331TIP3    H243409   3.455   3.575  14.692 -0.1236  0.3188 -0.2054
 7332TIP3   OH243410   4.618   2.098  12.397  0.3106 -0.1214 -0.3477
 7332TIP3    H143411   4.552   2.120  12.463  1.3122  0.6135  0.4589
 7332TIP3    H243412   4.693   2.067  12.448  1.3313  1.0542 -1.0600
 7333TIP3   OH243413   0.888   5.467  15.288  0.1042  0.0342  0.6710
 7333TIP3    H143414   0.853   5.425  15.209  0.4177  0.7486  0.1382
 7333TIP3    H243415   0.851   5.556  15.286 -1.0498 -0.3769  2.1097
 7334TIP3   OH243416   5.968   2.778   1.611  0.4211 -0.2597  0.4704
 7334TIP3    H143417   6.009   2.784   1.697  0.4979 -0.9377  0.4808
 7334TIP3    H243418   5.931   2.866   1.596  0.7140 -0.0380  1.0346
 7335TIP3   OH243419   0.903   1.566   5.152 -0.6965 -0.3681 -0.0612
 7335TIP3    H143420   0.984   1.569   5.101 -0.0310 -0.5044  0.9564
 7335TIP3    H243421   0.911   1.638   5.214 -1.0661 -0.7785  0.4705
 7336TIP3   OH243422   4.324   1.648  12.214 -0.0513  0.1939 -0.2083
 7336TIP3    H143423   4.304   1.739  12.235 -2.2343 -0.1136 -0.7876
 7336TIP3    H243424   4.371   1.653  12.131 -0.1842  0.7692 -0.2558
 7337TIP3   OH243425   4.147   2.804   3.256 -0.2142  0.7800  0.3695
 7337TIP3    H143426   4.059   2.802   3.219 -0.5111  0.1272  1.0633
 7337TIP3    H243427   4.202   2.760   3.191 -0.4506  0.9475  0.0547
 7338TIP3   OH243428   0.980   5.553  13.618  0.1305 -0.7108 -0.0925
 7338TIP3    H143429   0.934   5.636  13.633 -0.0286 -0.7059 -0.5753
 7338TIP3    H243430   1.036   5.571  13.542  1.2556 -0.5881  0.7462
 7339TIP3   OH243431   5.954   2.239  11.291 -0.2189 -0.2074  0.3502
 7339TIP3    H143432   5.991   2.262  11.206  1.7995 -3.6372  0.0951
 7339TIP3    H243433   6.008   2.285  11.355  0.8989 -0.7179 -0.1950
 7340TIP3   OH243434   4.392   6.618   1.308  0.5614 -0.3807 -0.0278
 7340TIP3    H143435   4.456   6.660   1.250  0.3279 -1.1709 -0.8760
 7340TIP3    H243436   4.329   6.687   1.328  0.4070 -0.2047 -1.0738
 7341TIP3   OH243437   0.529   4.068   4.168  0.8757 -0.0876  0.4727
 7341TIP3    H143438   0.464   4.084   4.236 -2.3222 -0.6460 -2.2023
 7341TIP3    H243439   0.561   4.155   4.145 -1.1923  0.5883 -0.0979
 7342TIP3   OH243440   4.888   1.763   1.587 -0.6696  0.3525  0.4705
 7342TIP3    H143441   4.797   1.792   1.583 -0.1666  1.9760 -2.6268
 7342TIP3    H243442   4.939   1.844   1.587  0.7438 -0.4815 -0.7470
 7343TIP3   OH243443   6.218   4.517  14.810 -0.3512  0.7438  0.0096
 7343TIP3    H143444   6.303   4.473  14.822  0.2343  1.6716 -0.5846
 7343TIP3    H243445   6.171   4.500  14.892  0.2396 -0.1320  0.1917
 7344TIP3   OH243446   5.822   6.097   2.463 -0.9006  0.0615  0.0805
 7344TIP3    H143447   5.865   6.014   2.484  1.5655  1.3531  0.4732
 7344TIP3    H243448   5.767   6.078   2.388 -0.0565 -1.8396 -0.0957
 7345TIP3   OH243449   3.234   4.223  13.723 -0.0590 -0.5211 -0.4874
 7345TIP3    H143450   3.285   4.150  13.689  0.9996  0.4740 -1.1505
 7345TIP3    H243451   3.234   4.287  13.652  0.5986  0.8590  0.6904
 7346TIP3   OH243452   0.790   1.568   5.795 -0.5236  0.1239 -0.7242
 7346TIP3    H143453   0.883   1.547   5.802 -0.7349 -0.7467 -0.4910
 7346TIP3    H243454   0.781   1.606   5.707  0.2400  1.2548 -0.3301
 7347TIP3   OH243455   6.356   1.302  16.034  0.4048  0.4750 -0.0527
 7347TIP3    H143456   6.406   1.383  16.023 -0.2906  1.0153  0.6066
 7347TIP3    H243457   6.264   1.331  16.034  0.0533 -0.5581 -1.7704
 7348TIP3   OH243458   5.865   2.819  11.777  0.1157 -0.6425  0.1840
 7348TIP3    H143459   5.780   2.863  11.785  0.0064 -0.6967 -0.6595
 7348TIP3    H243460   5.887   2.825  11.684 -0.4213 -3.3518 -0.1992
 7349TIP3   OH243461   3.837   5.557  10.510  0.1190 -0.3846 -0.0288
 7349TIP3    H143462   3.788   5.617  10.454 -1.8954 -1.9352 -0.0547
 7349TIP3    H243463   3.823   5.590  10.599 -0.7141 -0.6018 -0.0707
 7350TIP3   OH243464   2.912   3.951   1.377  0.3808  0.0418  0.0056
 7350TIP3    H143465   2.957   3.893   1.316 -0.2859 -0.0198 -0.4483
 7350TIP3    H243466   2.929   3.914   1.463  0.6392 -0.3576 -0.2139
 7351TIP3   OH243467   0.918   0.414  14.259  0.3358 -0.1746  0.6157
 7351TIP3    H143468   0.935   0.454  14.174  1.1254  0.2905  0.9837
 7351TIP3    H243469   0.852   0.470  14.300  1.4621  0.8153  1.1455
 7352TIP3   OH243470   1.112   5.385   2.923 -0.1069 -0.2298  0.6946
 7352TIP3    H143471   1.076   5.296   2.926 -0.1986 -0.3221 -1.5488
 7352TIP3    H243472   1.186   5.383   2.984  0.5063 -2.1374 -0.0553
 7353TIP3   OH243473   5.942   4.197  14.023 -0.1893  0.4026  0.1898
 7353TIP3    H143474   5.928   4.282  14.065  1.4868  0.3008  1.0325
 7353TIP3    H243475   6.004   4.215  13.953 -0.2645 -0.0305  0.0095
 7354TIP3   OH243476   1.737   2.248  12.561  0.3560 -0.4815 -0.5073
 7354TIP3    H143477   1.787   2.208  12.632 -1.0625 -2.6179 -0.6292
 7354TIP3    H243478   1.654   2.274  12.600  0.0939 -0.3965 -1.1018
 7355TIP3   OH243479   6.354   0.387   4.740  0.1870  0.2205 -0.0153
 7355TIP3    H143480   6.355   0.292   4.736  0.2192  0.1863  0.6309
 7355TIP3    H243481   6.318   0.415   4.656 -2.5926 -0.4526  0.8604
 7356TIP3   OH243482   5.737   6.158   3.107  0.0274  0.0628 -0.0765
 7356TIP3    H143483   5.704   6.194   3.024  0.5744  0.0270 -0.3139
 7356TIP3    H243484   5.832   6.159   3.097  0.0727 -0.7907  0.1981
 7357TIP3   OH243485   2.183   0.998  17.012 -0.0059  0.2573 -0.0285
 7357TIP3    H143486   2.099   0.974  17.050 -0.2283 -0.5738 -0.9870
 7357TIP3    H243487   2.217   1.068  17.068 -0.7652 -0.2466  1.0825
 7358TIP3   OH243488   0.048   4.437   2.638  0.2821 -0.1263 -0.1758
 7358TIP3    H143489   0.033   4.343   2.624  1.6118 -0.2169 -1.1531
 7358TIP3    H243490  -0.036   4.469   2.670 -0.5779 -1.4276 -1.0016
 7359TIP3   OH243491   5.244   1.208  15.438  0.7682  0.0352  0.1782
 7359TIP3    H143492   5.270   1.207  15.346  1.6431 -1.4966  0.4097
 7359TIP3    H243493   5.327   1.208  15.486  0.3536  2.0917  1.0163
 7360TIP3   OH243494   5.663   4.219  16.567 -0.4659 -0.0283  0.6023
 7360TIP3    H143495   5.660   4.147  16.505 -1.0561 -1.0255  1.7547
 7360TIP3    H243496   5.649   4.298  16.514  2.7995 -0.4136 -1.1072
 7361TIP3   OH243497   2.835   2.678  12.266  0.1458  0.1147  0.1856
 7361TIP3    H143498   2.883   2.705  12.187  1.0099 -2.8290 -0.3878
 7361TIP3    H243499   2.760   2.630  12.233 -0.6578  0.6434  1.1809
 7362TIP3   OH243500   3.491   1.488  17.094  0.3667 -0.4427 -0.1423
 7362TIP3    H143501   3.398   1.482  17.113 -0.1483  1.7005 -1.6433
 7362TIP3    H243502   3.496   1.489  16.999  1.7656  0.8913 -0.0992
 7363TIP3   OH243503   1.351   4.127   5.142 -0.0878 -0.5936 -0.4988
 7363TIP3    H143504   1.444   4.142   5.125  0.1485 -0.4840  0.7509
 7363TIP3    H243505   1.349   4.083   5.227 -1.2292  0.4890  0.0768
 7364TIP3   OH243506   3.403   2.401   2.195  0.4613  0.2050  0.4038
 7364TIP3    H143507   3.482   2.355   2.223  0.0020 -1.0834 -0.3698
 7364TIP3    H243508   3.404   2.396   2.100  0.3031  1.6775  0.2907
 7365TIP3   OH243509   3.826   3.757   4.738  0.1103  0.6372  0.0969
 7365TIP3    H143510   3.757   3.784   4.677 -0.6506 -0.6208  0.3704
 7365TIP3    H243511   3.904   3.801   4.706 -0.3159  0.1896 -1.6652
 7366TIP3   OH243512   2.013   3.679   1.095 -0.7355 -0.1263  0.3388
 7366TIP3    H143513   2.036   3.597   1.052 -0.4564  0.1917 -0.1227
 7366TIP3    H243514   1.942   3.655   1.154 -1.4157 -0.5011 -0.5978
 7367TIP3   OH243515   3.422   1.177  14.279  0.2287 -0.6246 -0.0378
 7367TIP3    H143516   3.348   1.217  14.233  0.1286 -1.5046 -0.6638
 7367TIP3    H243517   3.384   1.138  14.357  0.5425  1.7412  1.4104
 7368TIP3   OH243518   1.304   3.666   2.264  0.5277 -0.1564  0.2117
 7368TIP3    H143519   1.389   3.680   2.305  0.4051 -1.1837  0.8528
 7368TIP3    H243520   1.284   3.749   2.219  1.6803  0.2169  0.3737
 7369TIP3   OH243521   3.471   2.784   0.127  0.2575 -0.1070 -0.1575
 7369TIP3    H143522   3.426   2.849   0.073 -0.5088 -1.2385 -0.9213
 7369TIP3    H243523   3.418   2.705   0.119  1.3443 -0.9368  0.4954
 7370TIP3   OH243524   0.438   5.321  12.840 -0.1079  0.2070  0.2297
 7370TIP3    H143525   0.497   5.246  12.842  1.1729  1.1845  0.4719
 7370TIP3    H243526   0.487   5.389  12.794 -0.7398  1.2995  1.1233
 7371TIP3   OH243527   5.695   6.779  12.888  0.4682 -0.2817 -0.5490
 7371TIP3    H143528   5.748   6.718  12.940  1.2238 -0.0126 -0.9846
 7371TIP3    H243529   5.618   6.796  12.942  0.9236 -0.5204  0.1926
 7372TIP3   OH243530   3.557   3.143  16.473  0.2097 -0.2373 -0.4035
 7372TIP3    H143531   3.597   3.189  16.547  0.2949  0.7137 -1.0241
 7372TIP3    H243532   3.623   3.146  16.404 -1.4803  3.0379 -2.1008
 7373TIP3   OH243533   5.547   4.522  12.462  0.5025  0.4766  0.4325
 7373TIP3    H143534   5.530   4.548  12.553 -0.8661  1.1212  0.0277
 7373TIP3    H243535   5.507   4.592  12.410 -2.8182 -2.0136 -0.7361
 7374TIP3   OH243536   4.535   0.107   1.980 -0.6365  0.1462  0.2109
 7374TIP3    H143537   4.553   0.146   2.066  0.1870  1.7650 -0.6592
 7374TIP3    H243538   4.598   0.148   1.921  1.8438 -4.0345 -0.5038
 7375TIP3   OH243539   6.548   2.678   4.681  0.2338  0.2741 -0.3034
 7375TIP3    H143540   6.631   2.712   4.714 -0.8572  1.6179  1.1933
 7375TIP3    H243541   6.498   2.756   4.658 -1.0956 -0.4608  0.0238
 7376TIP3   OH243542   1.349   1.880  14.548 -0.1333  0.0623  0.4019
 7376TIP3    H143543   1.299   1.821  14.605 -0.2471 -1.8535 -1.5552
 7376TIP3    H243544   1.410   1.822  14.502 -0.0040  1.5268 -1.3587
 7377TIP3   OH243545   4.832   5.410   3.822 -0.4628  0.1009 -0.3888
 7377TIP3    H143546   4.864   5.494   3.789 -0.4880 -0.5593 -2.1841
 7377TIP3    H243547   4.744   5.403   3.785 -0.6137 -0.5316  0.0922
 7378TIP3   OH243548   1.282   2.615  16.220  0.0946 -1.1932 -0.1929
 7378TIP3    H143549   1.208   2.554  16.226 -0.3211 -0.7136 -0.3787
 7378TIP3    H243550   1.355   2.568  16.261 -0.2601 -1.7517 -0.1893
 7379TIP3   OH243551   2.774   2.056   6.024 -0.0076  0.6656  0.1880
 7379TIP3    H143552   2.748   1.968   5.999  1.0283 -0.2614  2.1791
 7379TIP3    H243553   2.696   2.109   6.010 -0.8571 -0.6816 -0.3913
 7380TIP3   OH243554   3.364   4.078   5.107  0.2757 -0.4284  0.3562
 7380TIP3    H143555   3.454   4.091   5.135 -0.0845 -1.4076  2.1914
 7380TIP3    H243556   3.344   4.153   5.052  1.7571  0.5594  1.0962
 7381TIP3   OH243557   1.175   6.654  11.896  0.0481  0.4452  0.0344
 7381TIP3    H143558   1.104   6.615  11.845 -0.2702  1.0956 -0.0292
 7381TIP3    H243559   1.130   6.705  11.963  0.4488 -0.9493  1.4314
 7382TIP3   OH243560   2.256   0.799  14.321  0.3055 -0.2930 -0.4277
 7382TIP3    H143561   2.243   0.783  14.228  0.5250 -1.1230 -0.3258
 7382TIP3    H243562   2.194   0.869  14.343  1.7542  1.4610 -1.6462
 7383TIP3   OH243563   5.176   1.483  10.924 -0.2732 -0.0779  0.3100
 7383TIP3    H143564   5.151   1.438  11.006  0.0057 -0.3968  0.2220
 7383TIP3    H243565   5.238   1.550  10.951 -0.7948  0.3538  0.4614
 7384TIP3   OH243566   1.627   1.218   5.246 -0.0710 -0.0831  0.4049
 7384TIP3    H143567   1.614   1.129   5.213 -2.4817  0.6605 -0.9176
 7384TIP3    H243568   1.568   1.224   5.321 -0.6305  0.6404 -0.0769
 7385TIP3   OH243569   5.462   5.169  14.143  0.5032  0.1368  0.1237
 7385TIP3    H143570   5.519   5.126  14.207  2.2315  0.2364 -1.2590
 7385TIP3    H243571   5.484   5.126  14.060 -1.9666 -0.2797 -0.3992
 7386TIP3   OH243572   1.596   3.048  16.847 -0.2063  0.1248 -0.3809
 7386TIP3    H143573   1.556   2.966  16.877 -1.5517  1.1179  0.6872
 7386TIP3    H243574   1.521   3.103  16.822  0.5303  1.7256  0.7902
 7387TIP3   OH243575   0.649   4.626   5.423  0.1630  0.1384 -0.3434
 7387TIP3    H143576   0.727   4.634   5.478 -1.4530  0.3038  2.0933
 7387TIP3    H243577   0.638   4.713   5.385  1.2117  0.0765 -0.8308
 7388TIP3   OH243578   5.531   4.980  14.621  0.1876 -0.2145  0.0724
 7388TIP3    H143579   5.559   5.007  14.708  0.2806  1.3709 -0.4146
 7388TIP3    H243580   5.447   4.936  14.635  1.0580 -1.6177  1.1324
 7389TIP3   OH243581   6.501   1.986  10.885  0.0021 -0.3487 -0.0684
 7389TIP3    H143582   6.568   1.967  10.820  0.3575 -1.5584  0.6201
 7389TIP3    H243583   6.418   1.971  10.839  0.2351 -0.5809 -0.4186
 7390TIP3   OH243584   3.599   3.451   4.488  0.0281  0.0064 -0.7179
 7390TIP3    H143585   3.645   3.519   4.439 -0.7404 -0.1785 -1.7337
 7390TIP3    H243586   3.508   3.479   4.489 -0.1940 -0.6939 -0.6228
 7391TIP3   OH243587   0.478   5.404   5.616  0.1079 -0.0933 -0.3115
 7391TIP3    H143588   0.388   5.437   5.624  0.5248  1.1583 -0.6423
 7391TIP3    H243589   0.491   5.393   5.521  0.4732  0.2075 -0.2959
 7392TIP3   OH243590   2.116   0.042  12.270 -0.0598 -0.3765 -0.5887
 7392TIP3    H143591   2.080   0.085  12.192  1.5989  1.5891 -0.3379
 7392TIP3    H243592   2.210   0.040  12.256  0.3000  0.2100  1.4493
 7393TIP3   OH243593   3.603   6.465  13.279  0.3217  0.1397 -0.5900
 7393TIP3    H143594   3.635   6.454  13.189  0.2614 -0.1376 -0.5774
 7393TIP3    H243595   3.619   6.558  13.299  1.9930 -0.1949 -0.2447
 7394TIP3   OH243596   6.805   5.996   1.621  0.0396  0.7749  0.1914
 7394TIP3    H143597   6.765   5.918   1.583  1.2266 -0.1860  0.8447
 7394TIP3    H243598   6.866   6.027   1.555  0.6187  0.2907  0.4879
 7395TIP3   OH243599   6.455   4.923  13.358  0.0560 -0.7359  0.2081
 7395TIP3    H143600   6.446   4.877  13.275 -0.7341 -0.4447  0.1242
 7395TIP3    H243601   6.530   4.982  13.345  1.6410 -2.5627  0.6022
 7396TIP3   OH243602   3.848   4.715   5.441 -0.3448 -0.3822  0.0668
 7396TIP3    H143603   3.843   4.788   5.380 -0.2538  0.5575  1.1430
 7396TIP3    H243604   3.862   4.638   5.386 -0.0539  0.4594 -1.0695
 7397TIP3   OH243605   1.269   4.783  14.908  0.0004 -0.4845  0.5103
 7397TIP3    H143606   1.220   4.861  14.934  1.9502  0.5405  1.3757
 7397TIP3    H243607   1.212   4.737  14.847 -2.4282  0.0798  2.2107
 7398TIP3   OH243608   2.922   0.781   0.334  0.0861 -0.7364 -0.0903
 7398TIP3    H143609   3.003   0.827   0.355 -1.0905  0.8152  1.4489
 7398TIP3    H243610   2.937   0.691   0.363  0.7919 -0.1314  1.5609
 7399TIP3   OH243611   4.691   4.122   6.093  0.3342  0.3250 -0.4822
 7399TIP3    H143612   4.637   4.186   6.138 -2.0312 -2.6030  1.2432
 7399TIP3    H243613   4.731   4.071   6.163  0.4498 -1.3664 -1.7137
 7400TIP3   OH243614   0.744   0.007   6.245  0.3886  0.1049 -0.5242
 7400TIP3    H143615   0.782   0.089   6.278 -0.8899  0.0654  1.1938
 7400TIP3    H243616   0.678  -0.016   6.310  1.2474 -2.7406 -0.5225
 7401TIP3   OH243617   3.062   3.532  13.670 -0.5008 -0.1371  0.5761
 7401TIP3    H143618   3.050   3.536  13.765 -0.4777  2.7421  0.5316
 7401TIP3    H243619   3.155   3.549  13.657 -0.6753  0.4233  0.0220
 7402TIP3   OH243620   0.243   3.120   4.395 -0.3258 -0.4760  0.2789
 7402TIP3    H143621   0.259   3.097   4.303  2.0250  1.7142  0.0027
 7402TIP3    H243622   0.265   3.041   4.444 -1.8883 -1.7800 -0.9821
 7403TIP3   OH243623   0.201   0.975  15.412 -0.1943 -0.6987 -0.2499
 7403TIP3    H143624   0.142   0.969  15.336 -0.0259 -0.3356 -0.4115
 7403TIP3    H243625   0.241   0.888  15.418 -1.4144 -1.2367  0.4094
 7404TIP3   OH243626   2.226   2.433  12.543  0.2727 -0.1979 -0.1999
 7404TIP3    H143627   2.243   2.475  12.628  0.8511  2.8811 -1.6645
 7404TIP3    H243628   2.138   2.460  12.520 -0.7841 -2.9232  0.3305
 7405TIP3   OH243629   4.387   3.916   6.457 -0.2473  0.4075  0.0489
 7405TIP3    H143630   4.385   3.821   6.459 -3.2697  0.3684 -0.6829
 7405TIP3    H243631   4.481   3.938   6.459  0.5583 -2.5562 -0.4968
 7406TIP3   OH243632   4.390   3.590  16.148  0.5195 -0.6376 -0.1631
 7406TIP3    H143633   4.478   3.571  16.181 -0.4045 -0.0555  3.0136
 7406TIP3    H243634   4.359   3.662  16.204 -1.9102 -0.7144 -1.2904
 7407TIP3   OH243635   2.452   3.840   5.211 -0.1035 -0.4129  0.0993
 7407TIP3    H143636   2.503   3.895   5.151  1.3390 -0.1918  1.4549
 7407TIP3    H243637   2.462   3.881   5.296  0.9865 -2.6866  1.1714
 7408TIP3   OH243638   5.733   1.896   4.220 -0.7868  0.2376 -0.4482
 7408TIP3    H143639   5.703   1.816   4.177 -2.6107 -0.4511  1.9063
 7408TIP3    H243640   5.665   1.916   4.284  0.2228  3.0097 -0.1042
 7409TIP3   OH243641   6.704   3.612  12.067  0.0279 -0.2238 -0.1276
 7409TIP3    H143642   6.613   3.595  12.088 -0.3482  0.2564 -1.3075
 7409TIP3    H243643   6.739   3.656  12.145 -0.9153  0.1676  0.0843
 7410TIP3   OH243644   2.204   2.993   1.715  0.2282 -0.1452  0.2428
 7410TIP3    H143645   2.117   2.955   1.701  1.3083 -3.0210  0.6630
 7410TIP3    H243646   2.247   2.986   1.630  0.6731 -0.5171  0.4949
 7411TIP3   OH243647   1.966   1.214  15.254  0.0460 -0.1086 -0.1540
 7411TIP3    H143648   2.018   1.239  15.331 -1.2039 -0.7382  0.9434
 7411TIP3    H243649   1.882   1.258  15.266 -0.5101 -0.9958 -0.6272
 7412TIP3   OH243650   5.991   5.943   3.927  0.0244  0.0119  0.0442
 7412TIP3    H143651   5.896   5.957   3.922  0.1522  0.4696 -1.6507
 7412TIP3    H243652   6.001   5.874   3.992 -1.5951 -1.1290 -0.8442
 7413TIP3   OH243653   4.104   2.146  12.544  0.4389  0.0043  0.4897
 7413TIP3    H143654   4.114   2.156  12.450  0.9192  1.0411  0.6279
 7413TIP3    H243655   4.173   2.085  12.570  1.1414  0.7129  0.3277
 7414TIP3   OH243656   3.936   1.336  15.260 -0.2344 -0.0745 -0.4834
 7414TIP3    H143657   3.908   1.279  15.331 -0.6138 -0.8685 -1.2550
 7414TIP3    H243658   3.859   1.390  15.241  0.2970  1.1538  0.6367
 7415TIP3   OH243659   6.002   0.159  13.409  0.0071  0.1266 -0.2355
 7415TIP3    H143660   5.910   0.140  13.388 -0.5153 -0.4282  2.2479
 7415TIP3    H243661   6.037   0.076  13.441  1.0974  0.5835 -0.2011
 7416TIP3   OH243662   4.796   5.871   4.447  0.1261 -0.7833  0.2779
 7416TIP3    H143663   4.763   5.877   4.536 -0.4669  0.6266 -0.0040
 7416TIP3    H243664   4.784   5.959   4.411 -0.9614 -1.6511 -1.6427
 7417TIP3   OH243665   2.481   3.802   2.806 -0.4730  0.4747  0.0738
 7417TIP3    H143666   2.521   3.888   2.799  0.8959  0.2121  3.1059
 7417TIP3    H243667   2.551   3.741   2.781 -0.4164  0.1812  0.9029
 7418TIP3   OH243668   0.860   5.520  15.012  0.4733  0.4989  0.0060
 7418TIP3    H143669   0.835   5.597  15.063  0.8530 -0.6051  1.9680
 7418TIP3    H243670   0.852   5.548  14.920  0.6148  2.8495  0.6420
 7419TIP3   OH243671   4.270   2.573  15.997  0.0901  0.0545  0.1951
 7419TIP3    H143672   4.234   2.487  16.021  0.8575 -0.4538 -0.4490
 7419TIP3    H243673   4.328   2.556  15.923 -1.4866  1.4492 -1.4680
 7420TIP3   OH243674   5.401   5.123   4.165 -0.2219 -0.4282 -0.4335
 7420TIP3    H143675   5.406   5.038   4.121  1.0731  0.0742 -1.3219
 7420TIP3    H243676   5.353   5.179   4.103 -1.4428 -0.5919  0.3303
 7421TIP3   OH243677   0.894   1.453  12.188  0.2563  0.2925 -0.1602
 7421TIP3    H143678   0.923   1.369  12.224  0.2600  0.1710 -0.4449
 7421TIP3    H243679   0.809   1.434  12.149 -0.7237  0.8751  1.5900
 7422TIP3   OH243680   5.811   4.718  15.249  0.3185 -0.4444  0.0757
 7422TIP3    H143681   5.788   4.743  15.159 -0.6429  1.4193  0.7745
 7422TIP3    H243682   5.808   4.622  15.248  0.1203 -0.4708 -1.8186
 7423TIP3   OH243683   4.666   2.313  14.824  0.0943 -0.0750  0.2075
 7423TIP3    H143684   4.630   2.250  14.887 -1.4983  0.4658 -0.1148
 7423TIP3    H243685   4.713   2.259  14.761  1.1205 -0.6877  1.4377
 7424TIP3   OH243686   4.031   5.915   2.164 -0.1233 -0.7289  0.0651
 7424TIP3    H143687   3.984   5.834   2.182 -0.7760 -0.1732  0.9413
 7424TIP3    H243688   4.086   5.894   2.088  0.4334 -2.2613  0.8378
 7425TIP3   OH243689   1.124   1.631   1.173 -0.2527  0.4084  0.1841
 7425TIP3    H143690   1.056   1.605   1.111 -1.5760  1.2022  1.2324
 7425TIP3    H243691   1.115   1.569   1.245 -0.8798  1.3753  0.9763
 7426TIP3   OH243692   5.707   4.493   0.656 -0.2219 -0.3866 -0.1528
 7426TIP3    H143693   5.756   4.431   0.711 -0.9656 -0.2453  0.6900
 7426TIP3    H243694   5.728   4.579   0.692  1.6222 -0.0011 -1.9541
 7427TIP3   OH243695   3.043   1.827   6.220  0.2149  0.4480  0.4745
 7427TIP3    H143696   3.059   1.758   6.283 -1.8564 -1.9742 -1.4030
 7427TIP3    H243697   2.987   1.890   6.266  0.8758  0.1031  1.7798
 7428TIP3   OH243698   3.463   1.362  14.916 -0.3494 -0.4009  0.1314
 7428TIP3    H143699   3.535   1.371  14.978 -1.1118  1.3660  0.8225
 7428TIP3    H243700   3.421   1.279  14.940 -0.3694  0.0415  1.7356
 7429TIP3   OH243701   5.964   3.133   1.271 -0.0925  0.4880  0.5201
 7429TIP3    H143702   5.951   3.039   1.279 -2.8711  0.7111 -0.4779
 7429TIP3    H243703   6.014   3.157   1.350  1.5782 -1.8945  0.2965
 7430TIP3   OH243704   1.833   1.208  13.650  0.1597 -0.0332  0.0093
 7430TIP3    H143705   1.744   1.174  13.655  0.3952 -1.0607 -1.8706
 7430TIP3    H243706   1.824   1.294  13.611 -0.0929  0.4909  1.1604
 7431TIP3   OH243707   4.602   3.574   5.751 -0.6831 -0.5815  0.4233
 7431TIP3    H143708   4.674   3.533   5.704 -0.1434  0.8508 -0.0334
 7431TIP3    H243709   4.555   3.500   5.791 -0.8202 -1.8204 -1.8437
 7432TIP3   OH243710   2.667   4.398   4.768  0.7418  0.6677 -0.9669
 7432TIP3    H143711   2.578   4.418   4.737  0.3506 -0.0340 -0.3120
 7432TIP3    H243712   2.676   4.304   4.755  1.0727  0.5953 -0.2357
 7433TIP3   OH243713   0.282   6.112  11.095  0.5314  0.0386  0.2982
 7433TIP3    H143714   0.346   6.112  11.023  0.9936 -0.9545  0.6949
 7433TIP3    H243715   0.212   6.054  11.065  1.0282 -0.8914  0.8946
 7434TIP3   OH243716   2.249   6.780  16.661  0.0270  0.3763  0.6862
 7434TIP3    H143717   2.154   6.791  16.661 -0.1294 -0.8551  0.3176
 7434TIP3    H243718   2.266   6.711  16.725  0.5092 -0.5534 -0.4051
 7435TIP3   OH243719   2.976   5.072  14.166 -0.3293 -0.1502 -0.5397
 7435TIP3    H143720   2.914   5.004  14.140 -0.0108 -1.0159  0.8891
 7435TIP3    H243721   3.053   5.024  14.196  0.6601  0.8890 -1.3062
 7436TIP3   OH243722   1.616   5.935   6.534 -0.7121  0.8061  0.3038
 7436TIP3    H143723   1.628   5.941   6.439  1.9684 -0.3435  0.4972
 7436TIP3    H243724   1.585   6.022   6.559  0.7374  1.8817 -1.3734
 7437TIP3   OH243725   3.821   6.515   6.597 -0.2396  0.4675  0.0558
 7437TIP3    H143726   3.892   6.539   6.538 -2.9213  4.4406 -2.0371
 7437TIP3    H243727   3.767   6.455   6.545 -0.3665  0.4806  0.1724
 7438TIP3   OH243728   5.626   6.416   0.100  0.3301 -0.3156 -0.2779
 7438TIP3    H143729   5.668   6.366   0.030  0.2722 -1.5772  0.5535
 7438TIP3    H243730   5.643   6.508   0.078  1.9008 -0.7373 -0.9398
 7439TIP3   OH243731   5.697   6.285  14.241  0.1383  0.1277  0.5088
 7439TIP3    H143732   5.703   6.288  14.146 -0.3817 -0.6045  0.4439
 7439TIP3    H243733   5.760   6.217  14.266 -0.3758 -0.3175  0.6117
 7440TIP3   OH243734   0.990   0.419   0.549 -0.1601 -0.4303  0.3499
 7440TIP3    H143735   0.983   0.475   0.627  1.8527 -0.3041  0.4982
 7440TIP3    H243736   1.084   0.399   0.542 -0.4965 -1.6872 -1.1855
 7441TIP3   OH243737   3.448   4.617  11.587 -0.4685  0.0014  0.1124
 7441TIP3    H143738   3.481   4.704  11.562  1.0354  0.2369  2.5905
 7441TIP3    H243739   3.506   4.556  11.542  0.0432  0.3239  0.3308
 7442TIP3   OH243740   2.066   1.902  13.388 -0.7918  0.2322  0.0009
 7442TIP3    H143741   1.989   1.953  13.365  0.7483  1.5890 -2.6715
 7442TIP3    H243742   2.032   1.815  13.409 -3.0722  0.9346 -0.5006
 7443TIP3   OH243743   5.068   2.169   5.351 -0.2069  0.3775  0.0409
 7443TIP3    H143744   5.000   2.117   5.393  0.7966 -1.9974 -1.1220
 7443TIP3    H243745   5.043   2.170   5.258  0.8932  0.2222 -0.2599
 7444TIP3   OH243746   0.213   0.139   1.979 -0.4273 -0.2556  0.4908
 7444TIP3    H143747   0.208   0.094   1.895  0.8483 -0.2096  0.3729
 7444TIP3    H243748   0.171   0.224   1.964 -1.0382 -0.6118  0.1669
 7445TIP3   OH243749   1.022   2.671   1.882 -0.1885  0.2084  0.1301
 7445TIP3    H143750   1.052   2.721   1.957 -1.5407  0.4856  0.5173
 7445TIP3    H243751   0.928   2.657   1.898 -0.8116  1.3738 -2.0751
 7446TIP3   OH243752   1.745   3.349   3.384  0.0859 -0.2957  0.2969
 7446TIP3    H143753   1.677   3.367   3.319 -1.6767 -3.4629  1.0639
 7446TIP3    H243754   1.697   3.328   3.464  2.1579  1.8488  2.2939
 7447TIP3   OH243755   2.801   3.286   0.367 -0.1016  0.2077  0.0736
 7447TIP3    H143756   2.708   3.264   0.362 -0.1717 -0.3599  2.6192
 7447TIP3    H243757   2.813   3.320   0.455  2.2100 -0.2683 -0.0022
 7448TIP3   OH243758   3.671   4.568  16.129 -0.0696 -0.3226 -0.2064
 7448TIP3    H143759   3.642   4.654  16.159  0.3345 -0.1442 -0.3106
 7448TIP3    H243760   3.740   4.587  16.065  0.7478 -0.7298  0.5277
 7449TIP3   OH243761   3.083   4.702  11.036 -0.0453  0.1600 -0.1313
 7449TIP3    H143762   3.030   4.667  11.107  2.0033 -1.8934  0.4928
 7449TIP3    H243763   3.065   4.797  11.038  0.6799  0.3903  3.8123
 7450TIP3   OH243764   0.867   4.935  11.404  0.3627  0.5900 -0.3866
 7450TIP3    H143765   0.903   4.960  11.319 -0.5813 -1.4196 -1.4320
 7450TIP3    H243766   0.938   4.887  11.447  2.2740  4.7832  1.7314
 7451TIP3   OH243767   4.916   3.384   1.170 -0.0708 -0.0640  0.0808
 7451TIP3    H143768   4.989   3.443   1.188  0.6602 -1.4371  1.9192
 7451TIP3    H243769   4.838   3.435   1.192  0.4845  0.5822  0.5687
 7452TIP3   OH243770   2.394   3.888   5.708 -0.2392 -0.1396  0.1789
 7452TIP3    H143771   2.300   3.907   5.702 -0.0129  0.4905 -2.2756
 7452TIP3    H243772   2.399   3.812   5.766 -2.0947  0.7787  1.6697
 7453TIP3   OH243773   4.521   5.093   1.588 -0.5924  0.2365  0.3862
 7453TIP3    H143774   4.597   5.046   1.622 -0.5361  0.4789  0.5948
 7453TIP3    H243775   4.460   5.024   1.562  0.3947 -0.0233 -1.4443
 7454TIP3   OH243776   1.751   2.791   4.726  0.7673  0.1853  0.1574
 7454TIP3    H143777   1.663   2.768   4.696  0.4269  1.3162  0.2488
 7454TIP3    H243778   1.789   2.708   4.755 -1.3627  0.0844  3.0250
 7455TIP3   OH243779   4.169   1.710  13.706  0.1793 -0.0234 -0.3213
 7455TIP3    H143780   4.210   1.760  13.776  1.2769  1.8038 -2.1433
 7455TIP3    H243781   4.075   1.724  13.718  0.2867 -0.5685  1.3248
 7456TIP3   OH243782   5.418   2.118   1.096 -0.4545  0.4540 -0.1594
 7456TIP3    H143783   5.350   2.171   1.138  0.8050  1.0996  1.1375
 7456TIP3    H243784   5.408   2.137   1.003 -4.0867 -1.9316 -0.4445
 7457TIP3   OH243785   1.936   2.106   5.124  0.3276 -0.3190  0.5963
 7457TIP3    H143786   1.985   2.163   5.066 -0.4420 -0.3255 -0.0713
 7457TIP3    H243787   1.896   2.041   5.066 -0.5400 -0.2617  1.1144
 7458TIP3   OH243788   2.895   2.675  12.526 -0.0954  0.2839 -0.7534
 7458TIP3    H143789   2.817   2.699  12.576  0.2305 -0.5681  0.2046
 7458TIP3    H243790   2.864   2.667  12.435 -1.4408 -1.3149 -0.2055
 7459TIP3   OH243791   5.958   4.596  13.176 -0.4833 -0.5070 -0.1067
 7459TIP3    H143792   5.931   4.569  13.089 -1.3841 -0.9656  0.3014
 7459TIP3    H243793   5.897   4.552  13.235 -1.6385  1.8826  0.6374
 7460TIP3   OH243794   5.376   5.474  12.344 -0.7711 -0.2047  0.1185
 7460TIP3    H143795   5.463   5.487  12.307 -0.8730 -0.3379 -0.1703
 7460TIP3    H243796   5.372   5.380  12.364 -1.5452 -0.5916 -1.6637
 7461TIP3   OH243797   0.697   4.973  11.057 -0.2875  0.0280 -0.5292
 7461TIP3    H143798   0.742   4.905  11.107  1.2349  0.0137 -1.8432
 7461TIP3    H243799   0.606   4.944  11.054 -0.0439 -0.9463  0.5646
 7462TIP3   OH243800   4.081   0.076   1.954 -0.4680  0.7399  0.3375
 7462TIP3    H143801   4.171   0.062   1.924 -0.9607  0.0798 -0.8772
 7462TIP3    H243802   4.080   0.168   1.981  0.4861  0.8463  0.0686
 7463TIP3   OH243803   1.930   6.722  16.123 -0.4047  0.1109 -0.5345
 7463TIP3    H143804   1.999   6.715  16.189  0.9908  0.9170 -1.8139
 7463TIP3    H243805   1.945   6.808  16.082 -2.5226  0.5486 -0.5107
 7464TIP3   OH243806   1.176   5.103  11.175 -0.3415  0.0490 -0.2601
 7464TIP3    H143807   1.104   5.070  11.122 -1.2560  0.5095  0.6734
 7464TIP3    H243808   1.139   5.176  11.224  0.7605  0.3015  0.2261
 7465TIP3   OH243809   5.817   6.458  15.878  0.2713 -0.0264 -0.3626
 7465TIP3    H143810   5.785   6.371  15.855  0.8822  0.1702 -2.1241
 7465TIP3    H243811   5.768   6.517  15.821  1.1183  0.6107 -0.4509
 7466TIP3   OH243812   0.799   2.117  14.444 -0.0409  0.3607 -0.2740
 7466TIP3    H143813   0.745   2.157  14.512  2.5348  1.8400  1.0387
 7466TIP3    H243814   0.736   2.071  14.388 -2.3583 -0.3724  2.6761
 7467TIP3   OH243815   1.387   3.114  15.020  0.3907 -0.2906 -0.3016
 7467TIP3    H143816   1.473   3.155  15.032  0.9372 -1.3785 -0.3191
 7467TIP3    H243817   1.377   3.109  14.925 -0.3325  1.0838 -0.3187
 7468TIP3   OH243818   4.634   4.260   5.666  0.4206  0.4417 -0.0827
 7468TIP3    H143819   4.685   4.201   5.721  0.9677 -0.8402 -1.8679
 7468TIP3    H243820   4.685   4.341   5.664 -0.0472  0.8499  1.9305
 7469TIP3   OH243821   0.407   5.011   3.444  0.1696  0.0205 -0.3812
 7469TIP3    H143822   0.464   4.942   3.478 -0.3240 -0.1319  0.1502
 7469TIP3    H243823   0.451   5.092   3.467  0.2437 -0.0984 -0.1050
 7470TIP3   OH243824   2.637   5.941  13.194 -0.4023 -0.4486  0.1621
 7470TIP3    H143825   2.731   5.934  13.209 -0.3779 -0.4934 -0.0143
 7470TIP3    H243826   2.598   5.920  13.279 -0.1842  2.1518  0.9872
 7471TIP3   OH243827   1.503   0.012  14.345  0.4428 -0.3584  0.4754
 7471TIP3    H143828   1.586  -0.002  14.300  0.3309  0.2716  0.0514
 7471TIP3    H243829   1.497  -0.060  14.408  0.4274 -1.5239 -0.7885
 7472TIP3   OH243830   4.403   4.871  16.955 -0.0887 -0.5633 -0.7011
 7472TIP3    H143831   4.415   4.951  17.006 -2.8795  1.6109 -3.0634
 7472TIP3    H243832   4.330   4.826  16.998 -1.4139  0.4853 -1.7498
 7473TIP3   OH243833   6.622   1.754   2.632  0.0465 -0.4400  0.4416
 7473TIP3    H143834   6.708   1.739   2.595 -0.2927 -1.7609  0.1504
 7473TIP3    H243835   6.596   1.670   2.669 -0.5310  0.2932  1.7926
 7474TIP3   OH243836   4.187   4.683  11.059 -0.2138 -0.2607 -0.2016
 7474TIP3    H143837   4.230   4.762  11.026  0.4799 -1.0105 -1.1493
 7474TIP3    H243838   4.094   4.705  11.060  0.0003  0.6852 -0.1040
 7475TIP3   OH243839   4.844   2.941   1.937  0.3411  0.1332  0.8700
 7475TIP3    H143840   4.911   2.878   1.963 -0.2657 -1.3215 -0.8164
 7475TIP3    H243841   4.879   2.981   1.858 -1.5375 -2.2433 -1.3487
 7476TIP3   OH243842   4.646   0.075   1.013 -0.9943 -0.2233 -0.4130
 7476TIP3    H143843   4.556   0.061   1.043 -1.0123 -1.9478 -1.1571
 7476TIP3    H243844   4.679  -0.013   0.996  0.2443  0.4845 -1.8760
 7477TIP3   OH243845   1.527   2.053  16.025 -0.2177 -0.4713  0.4170
 7477TIP3    H143846   1.460   2.039  15.959  0.7902  0.3631 -0.8230
 7477TIP3    H243847   1.609   2.028  15.982  0.3819 -0.6018  1.5900
 7478TIP3   OH243848   3.133   4.740   3.848  0.2769  0.4994  0.0464
 7478TIP3    H143849   3.125   4.833   3.826  1.4249  0.8424  0.9899
 7478TIP3    H243850   3.205   4.736   3.910  1.6437 -1.2756 -1.5246
 7479TIP3   OH243851   6.403   6.264   2.172 -0.6265 -0.3674 -0.3201
 7479TIP3    H143852   6.497   6.280   2.168 -0.3757 -1.7394 -0.4885
 7479TIP3    H243853   6.372   6.323   2.240  0.6122 -0.9220  0.7755
 7480TIP3   OH243854   0.258   1.076  11.724 -0.3260 -0.4090 -0.3075
 7480TIP3    H143855   0.261   1.171  11.732 -0.3010 -0.1994 -2.2718
 7480TIP3    H243856   0.165   1.056  11.714 -0.3088 -0.5639 -0.1561
 7481TIP3   OH243857   0.634   2.913   4.061 -0.1325 -0.1369  0.7282
 7481TIP3    H143858   0.625   2.995   4.110  0.5003 -0.7252  1.8854
 7481TIP3    H243859   0.616   2.845   4.126 -0.0776 -0.9298 -0.0751
 7482TIP3   OH243860   2.054   0.763  11.422  0.8530  0.3589 -0.6145
 7482TIP3    H143861   2.090   0.686  11.378  0.1021 -1.6076  1.9234
 7482TIP3    H243862   1.960   0.745  11.429  0.9201  0.6031  1.6061
 7483TIP3   OH243863   4.990   0.240  15.421 -0.0713 -0.0319  0.4935
 7483TIP3    H143864   4.960   0.273  15.506  0.2471  0.2759  0.4846
 7483TIP3    H243865   5.053   0.305  15.390  0.7826 -0.7834  0.6125
 7484TIP3   OH243866   3.429   1.161  13.428  0.4380 -0.5261  0.4778
 7484TIP3    H143867   3.494   1.139  13.362  1.2906  0.7850  0.8439
 7484TIP3    H243868   3.477   1.164  13.511 -0.5274 -1.6996  1.1197
 7485TIP3   OH243869   1.283   0.147  13.003 -0.4012 -0.3110  0.2202
 7485TIP3    H143870   1.263   0.177  12.915 -1.2998 -0.9106  0.2029
 7485TIP3    H243871   1.321   0.060  12.990 -0.6526 -0.4533  0.4259
 7486TIP3   OH243872   2.773   2.869  15.043  0.3079  0.0444  0.8047
 7486TIP3    H143873   2.735   2.785  15.068  0.1202 -0.7712 -1.9290
 7486TIP3    H243874   2.742   2.930  15.110 -0.0825 -1.9119  2.4933
 7487TIP3   OH243875   1.318   1.122  14.350 -0.1515  0.2036  0.2498
 7487TIP3    H143876   1.245   1.133  14.289  0.0953  0.9172  0.0755
 7487TIP3    H243877   1.285   1.156  14.433  0.1236  0.9395  0.0643
 7488TIP3   OH243878   6.750   5.959   0.338 -0.4824 -0.1585 -0.0904
 7488TIP3    H143879   6.736   6.036   0.394 -4.3079 -0.6580 -0.1102
 7488TIP3    H243880   6.770   5.996   0.252  0.0944  0.7501  0.4190
 7489TIP3   OH243881   2.125   5.559   3.116  0.1706 -0.2212 -0.1145
 7489TIP3    H143882   2.063   5.533   3.047  0.3895 -1.3292  0.0745
 7489TIP3    H243883   2.210   5.526   3.085  0.2156 -1.0426  0.8230
 7490TIP3   OH243884   3.458   6.290  10.888 -0.0424  0.2573  0.0874
 7490TIP3    H143885   3.422   6.351  10.953 -2.0376  1.5003 -2.0032
 7490TIP3    H243886   3.385   6.274  10.828  1.5639 -1.1748 -1.5978
 7491TIP3   OH243887   6.785   6.475  15.217 -0.2686  0.2970  0.3638
 7491TIP3    H143888   6.860   6.451  15.163  0.0390  0.7797  0.5710
 7491TIP3    H243889   6.710   6.431  15.175  0.2384 -0.8193  0.6144
 7492TIP3   OH243890   5.753   0.146  11.242  0.4275  0.4766  0.6755
 7492TIP3    H143891   5.683   0.210  11.248 -0.6887 -0.4983 -1.1147
 7492TIP3    H243892   5.773   0.141  11.149  1.6032 -0.6072  0.9575
 7493TIP3   OH243893   3.127   5.349   1.918 -0.3186 -0.0172 -0.0173
 7493TIP3    H143894   3.073   5.425   1.896  0.3609  0.5586  0.2183
 7493TIP3    H243895   3.211   5.388   1.945 -0.0959 -0.8431  0.4905
 7494TIP3   OH243896   6.030   1.069  13.153  0.0281 -0.5073  0.4550
 7494TIP3    H143897   6.104   1.128  13.168  0.4172 -1.4445  2.6590
 7494TIP3    H243898   5.979   1.073  13.234 -1.4355 -1.1643 -0.3885
 7495TIP3   OH243899   4.648   5.133   6.263  0.0900  0.3609 -0.1483
 7495TIP3    H143900   4.599   5.071   6.209  0.5980 -0.9516  0.8287
 7495TIP3    H243901   4.620   5.114   6.353 -0.5214  2.2878  0.1148
 7496TIP3   OH243902   3.539   0.580  12.352  0.2321 -0.2012 -0.1453
 7496TIP3    H143903   3.523   0.646  12.419  1.4038 -0.2784  0.2380
 7496TIP3    H243904   3.527   0.626  12.269  0.5392  0.3579  0.1207
 7497TIP3   OH243905   3.813   4.138   3.994 -0.2681 -0.0850  0.7907
 7497TIP3    H143906   3.753   4.069   3.966 -0.3624  0.8327 -1.4089
 7497TIP3    H243907   3.900   4.100   3.981 -0.3036  0.3701 -1.0167
 7498TIP3   OH243908   4.131   3.411   1.965  0.3678  0.2083 -0.0456
 7498TIP3    H143909   4.125   3.445   1.876  0.2459  1.7367  0.5162
 7498TIP3    H243910   4.225   3.411   1.983  0.5663 -1.8865 -0.7901
 7499TIP3   OH243911   5.103   1.194   2.035  0.3355 -0.0631 -0.2703
 7499TIP3    H143912   5.197   1.209   2.025  0.2239 -0.0537 -1.5903
 7499TIP3    H243913   5.091   1.177   2.128  1.6372 -0.0289 -0.0695
 7500TIP3   OH243914   3.088   2.646  11.821  0.6479  0.5800  0.1239
 7500TIP3    H143915   3.129   2.649  11.735 -0.6474 -0.5416 -0.5789
 7500TIP3    H243916   3.116   2.562  11.857  0.1386  0.4539  0.2341
 7501TIP3   OH243917   6.461   6.003   0.915 -0.2805 -0.0789  0.5133
 7501TIP3    H143918   6.383   6.059   0.908  1.1013  1.8473 -0.1488
 7501TIP3    H243919   6.535   6.063   0.907  1.2985 -1.9384  0.4435
 7502TIP3   OH243920   4.712   4.285   4.849 -0.1551  0.5405 -0.5308
 7502TIP3    H143921   4.731   4.205   4.898 -1.7080  0.6887  0.3877
 7502TIP3    H243922   4.798   4.318   4.823  0.6979 -0.0291  1.3556
 7503TIP3   OH243923   3.081   5.336   0.760 -0.1948 -0.1730  0.3041
 7503TIP3    H143924   2.993   5.310   0.730 -0.1469 -1.3446  1.1200
 7503TIP3    H243925   3.106   5.268   0.823  1.5917 -0.2375 -0.4140
 7504TIP3   OH243926   3.714   4.440  16.686  0.0041 -0.0303 -0.6331
 7504TIP3    H143927   3.670   4.516  16.647 -0.1394  0.4409  0.4207
 7504TIP3    H243928   3.658   4.366  16.664 -0.4523  0.3309 -0.6974
 7505TIP3   OH243929   0.940   0.043   3.638  0.2628 -0.3147 -0.1934
 7505TIP3    H143930   1.025   0.035   3.595  0.2196  0.0060 -0.3409
 7505TIP3    H243931   0.943  -0.021   3.709  0.3025 -0.9047 -0.7203
 7506TIP3   OH243932   5.975   3.067  15.491 -0.5767  0.1563  0.2913
 7506TIP3    H143933   5.891   3.067  15.536  0.0102  0.6314  1.4279
 7506TIP3    H243934   5.964   3.002  15.420 -1.0134 -1.9227  2.1436
 7507TIP3   OH243935   2.654   5.894   3.973  0.2190  0.0489  0.4772
 7507TIP3    H143936   2.650   5.818   4.031  1.7817 -0.6580 -0.2582
 7507TIP3    H243937   2.627   5.968   4.027  1.6427 -0.5698  2.1449
 7508TIP3   OH243938   0.571   5.738   0.046  0.4890  0.2986 -0.5726
 7508TIP3    H143939   0.522   5.813   0.079  0.3906  0.2837 -0.6815
 7508TIP3    H243940   0.593   5.761  -0.044  1.3991  0.6501 -0.2704
 7509TIP3   OH243941   5.209   5.628   4.026  0.4024 -0.3279 -0.0971
 7509TIP3    H143942   5.261   5.547   4.025 -1.5742 -1.6788 -0.2135
 7509TIP3    H243943   5.186   5.640   4.118 -1.8358 -1.6888 -0.4152
 7510TIP3   OH243944   5.592   1.107  11.976  0.0357 -0.4050 -0.0529
 7510TIP3    H143945   5.651   1.149  12.039  1.3903 -1.4738 -0.5702
 7510TIP3    H243946   5.599   1.014  11.996 -2.1397 -0.5225  0.3993
 7511TIP3   OH243947   4.867   4.750   6.184 -0.1566 -0.1987 -0.1751
 7511TIP3    H143948   4.819   4.683   6.234 -0.4855 -0.8264 -1.2805
 7511TIP3    H243949   4.798   4.798   6.138  0.2097 -0.6224 -1.1943
 7512TIP3   OH243950   0.529   6.555  16.038  0.0300 -0.4322  0.5461
 7512TIP3    H143951   0.449   6.599  16.066  0.8277  1.3364  0.1970
 7512TIP3    H243952   0.499   6.487  15.978 -1.1870  0.4946  0.0610
 7513TIP3   OH243953   5.463   6.009  13.093 -0.0010 -0.0281 -0.2555
 7513TIP3    H143954   5.447   5.926  13.049  2.5507  0.3906 -2.2343
 7513TIP3    H243955   5.390   6.065  13.068 -0.1877 -0.7819 -1.4506
 7514TIP3   OH243956   0.698   6.133   3.255 -0.2951  0.5899  0.4124
 7514TIP3    H143957   0.676   6.205   3.196 -1.0839  1.4527  1.7216
 7514TIP3    H243958   0.729   6.064   3.197 -2.5289  0.8230 -1.1938
 7515TIP3   OH243959   1.230   4.611   4.037  0.1077  0.1717  0.2195
 7515TIP3    H143960   1.219   4.588   4.129 -0.6073 -0.5279 -0.0318
 7515TIP3    H243961   1.315   4.572   4.013  1.0093  1.5945  0.9360
 7516TIP3   OH243962   1.323   1.496  16.948 -0.6133  0.2820  0.1169
 7516TIP3    H143963   1.406   1.517  16.905 -1.0424 -0.6296 -1.2559
 7516TIP3    H243964   1.263   1.566  16.919 -0.6367  0.2466  0.0791
 7517TIP3   OH243965   5.941   5.998   0.094 -0.1924  0.2403  0.1484
 7517TIP3    H143966   5.992   5.926   0.131 -1.1434  0.6316  2.3867
 7517TIP3    H243967   5.850   5.973   0.108 -0.5638  1.0145 -0.8093
 7518TIP3   OH243968   2.847   2.873  13.704  0.2352 -0.0176 -0.4614
 7518TIP3    H143969   2.785   2.804  13.680  0.1511  0.2108 -0.9111
 7518TIP3    H243970   2.829   2.944  13.643  1.3220 -0.1664 -0.9779
 7519TIP3   OH243971   4.621   4.929   2.004  0.3067 -0.0172  0.4236
 7519TIP3    H143972   4.545   4.976   1.971 -1.3425 -0.5307  3.1999
 7519TIP3    H243973   4.694   4.991   1.993 -1.0426  1.6053  0.2829
 7520TIP3   OH243974   6.554   6.150   3.150 -0.0869  0.5997  0.5740
 7520TIP3    H143975   6.631   6.100   3.175 -1.6337 -0.9912  2.3990
 7520TIP3    H243976   6.480   6.091   3.164 -1.7449  2.3013 -0.4025
 7521TIP3   OH243977   5.751   1.445   4.900 -0.0833  0.0067 -0.1228
 7521TIP3    H143978   5.846   1.441   4.914 -0.0996  0.5650  0.2109
 7521TIP3    H243979   5.737   1.531   4.860 -0.6261  0.6796  1.4481
 7522TIP3   OH243980   2.993   3.404   4.627 -0.2433  0.1896  0.0351
 7522TIP3    H143981   2.975   3.334   4.564 -1.4936  0.2237  0.3380
 7522TIP3    H243982   2.932   3.474   4.605  1.1207  1.2919 -0.3846
 7523TIP3   OH243983   6.804   2.272  14.623 -0.0523  0.0962 -0.0460
 7523TIP3    H143984   6.801   2.210  14.550 -1.4513  0.1630 -0.0814
 7523TIP3    H243985   6.897   2.280  14.645  0.5148  0.7261 -2.3818
 7524TIP3   OH243986   3.069   6.118   1.685  0.3016 -0.0752  0.0087
 7524TIP3    H143987   3.040   6.032   1.717  2.4320 -0.9366 -0.2204
 7524TIP3    H243988   3.075   6.172   1.764 -0.8189 -0.1903  0.1894
 7525TIP3   OH243989   2.567   6.783  16.598 -0.0353 -0.2398 -0.8651
 7525TIP3    H143990   2.564   6.690  16.574  0.0242 -0.6374  0.5589
 7525TIP3    H243991   2.480   6.816  16.574 -0.8429 -1.2109  0.5646
 7526TIP3   OH243992   5.111   3.558  12.411  0.2434  0.1177 -0.1073
 7526TIP3    H143993   5.194   3.528  12.449  0.5449  2.1698  0.9942
 7526TIP3    H243994   5.126   3.650  12.390 -1.3087  0.1427 -1.3225
 7527TIP3   OH243995   2.417   6.480   5.595  0.7285 -0.1002 -0.3923
 7527TIP3    H143996   2.340   6.425   5.606  0.5049  0.1893 -0.4971
 7527TIP3    H243997   2.438   6.511   5.683 -0.3741  1.2903 -0.5893
 7528TIP3   OH243998   3.298   1.252  13.986  0.4604 -0.2857  0.0005
 7528TIP3    H143999   3.279   1.305  13.909 -1.5990  0.1597  0.7612
 7528TIP3    H244000   3.327   1.167  13.951 -2.3513 -0.7921 -1.3387
 7529TIP3   OH244001   4.505   5.603   1.934  0.4807 -0.1813 -1.1852
 7529TIP3    H144002   4.429   5.545   1.928  0.9393 -0.9174 -0.2015
 7529TIP3    H244003   4.528   5.621   1.843 -1.2739  0.6267 -1.5141
 7530TIP3   OH244004   0.208   2.252  13.599 -0.1247  0.0509 -0.1113
 7530TIP3    H144005   0.301   2.257  13.623 -0.1925  0.0429  0.1566
 7530TIP3    H244006   0.208   2.226  13.507  0.1325 -2.1549  0.4412
 7531TIP3   OH244007   1.693   3.518  16.788 -0.1933  0.0703 -0.1820
 7531TIP3    H144008   1.604   3.544  16.763  0.2548  0.5618 -1.3341
 7531TIP3    H244009   1.745   3.598  16.780  0.4954 -0.3744 -0.2263
 7532TIP3   OH244010   2.087   4.662   5.656  0.1591  0.2741 -0.0884
 7532TIP3    H144011   2.095   4.567   5.669  2.2973  0.5033  0.7468
 7532TIP3    H244012   1.993   4.678   5.654 -0.2660 -1.7260  0.9193
 7533TIP3   OH244013   5.042   4.381   5.821 -0.0039 -0.1893 -0.7254
 7533TIP3    H144014   4.977   4.382   5.892 -0.4576 -0.5850 -1.1324
 7533TIP3    H244015   5.065   4.288   5.811  0.4112 -0.0830 -0.7806
 7534TIP3   OH244016   3.199   2.520   4.087 -0.0076 -0.1824  0.6106
 7534TIP3    H144017   3.216   2.489   3.998  3.0243  0.6297  0.8003
 7534TIP3    H244018   3.191   2.615   4.077 -2.2114 -0.2674  0.9555
 7535TIP3   OH244019   6.168   6.601   2.574  0.0598 -0.2204 -0.0521
 7535TIP3    H144020   6.094   6.651   2.609 -0.6773 -0.2150 -1.5429
 7535TIP3    H244021   6.236   6.609   2.641 -0.2712  2.2268  0.0817
 7536TIP3   OH244022   6.264   0.571   5.613  0.0734  0.8171  0.4050
 7536TIP3    H144023   6.263   0.601   5.522 -0.0425  0.0897  0.1544
 7536TIP3    H244024   6.337   0.617   5.653  1.3193 -0.2493 -0.5530
 7537TIP3   OH244025   2.545   2.320   3.862 -0.1005 -0.2218 -0.8150
 7537TIP3    H144026   2.548   2.247   3.801  1.3237 -2.2531  1.4605
 7537TIP3    H244027   2.453   2.348   3.863 -0.2513 -0.4483 -3.3843
 7538TIP3   OH244028   5.065   5.685  13.467  0.3685  0.0284 -0.5726
 7538TIP3    H144029   5.081   5.719  13.555  0.2010  1.7769 -1.1875
 7538TIP3    H244030   4.974   5.657  13.469  0.2532  0.4118 -0.2901
 7539TIP3   OH244031   1.082   3.267   2.766  0.0000  0.8261  0.2595
 7539TIP3    H144032   1.063   3.192   2.822 -0.7125  0.2739 -0.7000
 7539TIP3    H244033   1.145   3.234   2.702 -0.2651  1.0612 -0.1253
 7540TIP3   OH244034   1.587   3.475   1.763  0.2614  0.0448  0.1476
 7540TIP3    H144035   1.571   3.383   1.785 -0.3910 -0.3280 -1.7100
 7540TIP3    H244036   1.598   3.518   1.848  1.4873 -1.8747  1.0382
 7541TIP3   OH244037   4.436   4.393  13.588 -0.0794  0.0173  0.3237
 7541TIP3    H144038   4.398   4.479  13.569  2.8780  1.1002 -1.4463
 7541TIP3    H244039   4.453   4.394  13.682 -1.6403  0.6121  0.6373
 7542TIP3   OH244040   3.645   2.466  11.431 -0.1447 -0.5608  0.7419
 7542TIP3    H144041   3.585   2.498  11.499 -1.0155  2.0423 -1.0641
 7542TIP3    H244042   3.732   2.479  11.468 -0.5511  2.1245  0.9622
 7543TIP3   OH244043   0.056   2.550   3.828  0.6951  0.1248  0.6579
 7543TIP3    H144044   0.149   2.559   3.810  0.6783 -0.3916  0.2764
 7543TIP3    H244045   0.042   2.455   3.835 -0.0603  0.1058 -0.7947
 7544TIP3   OH244046   5.483   2.246  11.579  0.4730  0.1558  0.1662
 7544TIP3    H144047   5.442   2.307  11.518 -1.3336 -1.5499 -0.4188
 7544TIP3    H244048   5.576   2.269  11.577 -0.1013  2.8443 -0.0167
 7545TIP3   OH244049   0.769   4.700   4.536 -0.3718 -0.4489 -0.2240
 7545TIP3    H144050   0.729   4.785   4.558 -0.0487 -0.3101 -0.1662
 7545TIP3    H244051   0.758   4.648   4.616 -0.8080 -0.5549 -0.3483
 7546TIP3   OH244052   3.224   1.260  14.714 -0.1102  0.1062 -0.1965
 7546TIP3    H144053   3.161   1.314  14.761 -0.7767 -0.0116 -0.9389
 7546TIP3    H244054   3.284   1.229  14.782 -0.3972  0.8295  0.4064
 7547TIP3   OH244055   3.465   0.746   3.989  0.3996  0.0932  0.4841
 7547TIP3    H144056   3.468   0.829   3.940  0.8373 -0.2166 -0.0207
 7547TIP3    H244057   3.384   0.704   3.959  0.6800 -0.1092 -0.0131
 7548TIP3   OH244058   4.416   2.973   4.006  0.0667  0.5105 -0.3803
 7548TIP3    H144059   4.372   2.922   4.075 -0.5850  1.6584  0.0725
 7548TIP3    H244060   4.472   2.909   3.962 -0.5077 -0.5390  0.3590
 7549TIP3   OH244061   0.443   4.451  12.923 -0.0976 -0.2764 -0.8879
 7549TIP3    H144062   0.472   4.502  12.847  0.2223 -0.4567 -0.8874
 7549TIP3    H244063   0.517   4.455  12.984 -1.4276  2.4831  0.7742
 7550TIP3   OH244064   6.326   0.524   3.556 -0.0553 -0.7643 -0.1238
 7550TIP3    H144065   6.406   0.571   3.535  0.3170 -1.5356 -0.4520
 7550TIP3    H244066   6.256   0.585   3.535  0.3191 -1.1502 -2.7499
 7551TIP3   OH244067   1.876   5.746   5.772 -0.2621 -0.8264  0.2656
 7551TIP3    H144068   1.964   5.718   5.796 -0.4154 -1.4581  0.0897
 7551TIP3    H244069   1.819   5.673   5.794 -0.6382 -0.7325 -0.3597
 7552TIP3   OH244070   6.242   2.369  12.696 -0.3157  0.3979  0.2323
 7552TIP3    H144071   6.156   2.338  12.726 -0.9622  2.5908  0.8082
 7552TIP3    H244072   6.284   2.402  12.776  1.4097 -1.3227  0.0919
 7553TIP3   OH244073   0.027   0.672   2.418 -0.3896  0.1463  0.2264
 7553TIP3    H144074   0.091   0.689   2.487  0.6644  0.9845 -0.9374
 7553TIP3    H244075   0.050   0.585   2.385 -0.1583  0.2492  0.1213
 7554TIP3   OH244076   5.491   2.276   3.651 -0.1879 -0.1807  0.1798
 7554TIP3    H144077   5.570   2.294   3.703 -0.0808 -0.8157  0.2522
 7554TIP3    H244078   5.460   2.362   3.623  0.3570  0.0959  0.4114
 7555TIP3   OH244079   5.371   2.033   4.718 -0.8566 -0.3705  0.5478
 7555TIP3    H144080   5.370   2.117   4.763  0.1374 -0.3074  0.4753
 7555TIP3    H244081   5.302   2.040   4.652  0.3316  1.0412 -0.6119
 7556TIP3   OH244082   5.877   1.709  13.798  0.0283 -0.3237  0.5143
 7556TIP3    H144083   5.844   1.695  13.709  0.5175 -0.0107  0.2849
 7556TIP3    H244084   5.958   1.758  13.787 -0.6672  1.0439  1.2072
 7557TIP3   OH244085   4.181   3.349   4.669  0.2870  0.1387 -0.1854
 7557TIP3    H144086   4.181   3.313   4.758  2.2128 -1.7059 -0.8261
 7557TIP3    H244087   4.271   3.379   4.655 -0.1434  0.9980 -1.2992
 7558TIP3   OH244088   0.800   3.037  11.329  0.3643 -0.2289 -0.3300
 7558TIP3    H144089   0.808   2.989  11.412 -0.6169  0.3906  0.1388
 7558TIP3    H244090   0.802   3.129  11.355  2.4145  0.0410 -1.2349
 7559TIP3   OH244091   4.589   6.166   1.649  0.0182 -0.3864  0.2117
 7559TIP3    H144092   4.602   6.073   1.633  1.3476  0.0073 -1.2337
 7559TIP3    H244093   4.625   6.181   1.736  0.5564 -1.0761  0.1131
 7560TIP3   OH244094   0.773   5.260   2.108 -0.1108  0.3343 -0.7113
 7560TIP3    H144095   0.736   5.181   2.146  0.8401 -0.4474 -1.3593
 7560TIP3    H244096   0.742   5.331   2.164  0.5146 -0.6766  0.9947
 7561TIP3   OH244097   1.240   2.269   5.228  0.0458 -0.0007 -0.0825
 7561TIP3    H144098   1.317   2.326   5.231  0.7426 -0.9429  0.5073
 7561TIP3    H244099   1.244   2.219   5.309 -1.3719  0.1526  0.1028
 7562TIP3   OH244100   2.211   2.956  12.400  0.0978  0.1032 -0.8372
 7562TIP3    H144101   2.156   2.925  12.328  0.5387 -0.3301 -0.9969
 7562TIP3    H244102   2.194   2.895  12.471  0.6888 -0.3001 -1.0297
 7563TIP3   OH244103   6.297   2.680   2.006  0.9338 -0.6528 -0.0760
 7563TIP3    H144104   6.276   2.753   2.064  0.1275 -1.7585  1.0977
 7563TIP3    H244105   6.369   2.634   2.051 -0.6035 -2.3072  0.8383
 7564TIP3   OH244106   4.683   6.261   1.889 -0.3616  0.6965  0.3325
 7564TIP3    H144107   4.677   6.224   1.977  0.5117 -0.2097  0.0288
 7564TIP3    H244108   4.742   6.336   1.899  0.5763 -0.0159  0.3596
 7565TIP3   OH244109   2.259   3.536   3.704  0.2418 -0.4271 -0.4701
 7565TIP3    H144110   2.194   3.479   3.663  0.3779 -1.4289  0.6426
 7565TIP3    H244111   2.213   3.618   3.719 -0.4367 -0.7613 -0.6781
 7566TIP3   OH244112   2.586   3.653   1.906  0.0114  0.4930  0.0003
 7566TIP3    H144113   2.579   3.742   1.873  0.4472  0.6410  0.3083
 7566TIP3    H244114   2.637   3.660   1.987 -0.4572  0.0468  0.3466
 7567TIP3   OH244115   0.676   1.036   0.676  0.5611 -0.1600  0.2540
 7567TIP3    H144116   0.673   0.941   0.667 -2.0044 -0.5531  3.3323
 7567TIP3    H244117   0.769   1.058   0.675  1.1780 -2.1436 -3.9123
 7568TIP3   OH244118   0.005   6.521  12.973 -0.2983 -0.1962 -0.1993
 7568TIP3    H144119   0.061   6.523  12.895 -0.0829  0.1898 -0.0373
 7568TIP3    H244120   0.066   6.504  13.046 -0.7769 -3.0979 -0.3481
 7569TIP3   OH244121   4.409   3.765  11.855  0.0146 -0.5103 -0.9392
 7569TIP3    H144122   4.331   3.809  11.889  0.6126  0.1946 -0.4149
 7569TIP3    H244123   4.428   3.697  11.919  0.4979  0.0916 -0.4251
 7570TIP3   OH244124   6.050   1.300  15.981 -0.3740  0.1673  0.0531
 7570TIP3    H144125   6.076   1.274  16.070  2.0757 -0.9387 -0.9250
 7570TIP3    H244126   6.081   1.229  15.925  0.2128  1.9241 -1.9457
 7571TIP3   OH244127   4.565   3.233   3.688 -0.5164 -0.7693  0.0089
 7571TIP3    H144128   4.627   3.198   3.751 -0.2943 -2.0928 -0.9050
 7571TIP3    H244129   4.540   3.158   3.634 -2.9426 -0.3013  0.3576
 7572TIP3   OH244130   3.869   0.235   1.498  0.1422 -0.7072  0.3779
 7572TIP3    H144131   3.816   0.242   1.577 -0.1841 -1.6376  0.2489
 7572TIP3    H244132   3.945   0.183   1.524 -0.0411 -1.1453  0.0457
 7573TIP3   OH244133   6.243   0.058   4.863  0.8985  0.7593 -0.6842
 7573TIP3    H144134   6.199   0.132   4.904  1.1981  0.0873  0.9181
 7573TIP3    H244135   6.178   0.021   4.803 -0.5165  0.2212  1.0835
 7574TIP3   OH244136   2.450   0.810  15.441  0.6283 -0.0226 -0.2472
 7574TIP3    H144137   2.506   0.738  15.471  0.6344  0.5309  1.1569
 7574TIP3    H244138   2.389   0.769  15.380  2.5422 -0.6439 -1.8498
 7575TIP3   OH244139   6.570   6.678  15.228 -0.0056 -0.4776  0.1084
 7575TIP3    H144140   6.526   6.642  15.305 -1.0854 -0.9722 -0.7084
 7575TIP3    H244141   6.571   6.605  15.165 -3.4769  1.1298 -2.1149
 7576TIP3   OH244142   6.553   2.380  11.110 -0.0068 -0.4907  0.1069
 7576TIP3    H144143   6.465   2.392  11.146  0.0611 -1.0258  0.4583
 7576TIP3    H244144   6.608   2.439  11.162 -0.2566  0.3529 -0.5560
 7577TIP3   OH244145   3.952   3.648  12.153  0.2066 -0.2945 -0.2361
 7577TIP3    H144146   3.877   3.609  12.198 -0.1990 -0.2026 -0.8280
 7577TIP3    H244147   3.934   3.742  12.154  0.5391 -0.2290  0.0128
 7578TIP3   OH244148   3.082   5.265  16.488 -0.2526 -0.4642 -0.9251
 7578TIP3    H144149   3.172   5.238  16.471  0.5748  1.8815 -0.7363
 7578TIP3    H244150   3.037   5.186  16.515  1.6543 -1.7757 -1.3987
 7579TIP3   OH244151   1.085   5.490   4.842 -0.2555  0.1939 -0.2293
 7579TIP3    H144152   1.012   5.535   4.883  0.1581  0.7208 -0.0566
 7579TIP3    H244153   1.076   5.399   4.870 -1.0226  0.1889 -0.4755
 7580TIP3   OH244154   2.927   5.448  16.122 -0.0427 -0.2844 -0.4914
 7580TIP3    H144155   2.912   5.368  16.072  0.4859 -0.9124  0.3188
 7580TIP3    H244156   3.019   5.441  16.150 -0.3752 -0.0440  0.7105
 7581TIP3   OH244157   6.607   5.073   2.519 -0.0809  0.9975  0.2248
 7581TIP3    H144158   6.638   5.060   2.429 -1.4538  0.8195 -0.2456
 7581TIP3    H244159   6.682   5.112   2.565  0.1781  2.5012 -1.3613
 7582TIP3   OH244160   0.532   5.643   6.498  0.1638  0.5760 -0.4285
 7582TIP3    H144161   0.550   5.722   6.446 -1.6846  1.5352  0.3206
 7582TIP3    H244162   0.457   5.602   6.455 -0.0245  0.2091  0.2349
 7583TIP3   OH244163   2.419   6.622   0.880 -0.3044  0.6824 -0.0220
 7583TIP3    H144164   2.409   6.528   0.868 -1.1975  0.7077  0.3972
 7583TIP3    H244165   2.406   6.659   0.793 -1.0600  0.4826 -0.0061
 7584TIP3   OH244166   1.354   5.371  13.735 -0.0597 -0.2157  0.5266
 7584TIP3    H144167   1.438   5.376  13.689 -0.5369  2.0837 -0.2256
 7584TIP3    H244168   1.290   5.359  13.666 -0.7469  2.8574  0.4901
 7585TIP3   OH244169   0.319   2.755  14.744 -0.3575 -0.4290 -0.0019
 7585TIP3    H144170   0.270   2.822  14.791 -0.3583 -0.1714 -0.3674
 7585TIP3    H244171   0.408   2.789  14.739  0.2159 -1.5063  1.8767
 7586TIP3   OH244172   0.882   5.276  16.720  0.3258 -0.2321  0.5762
 7586TIP3    H144173   0.963   5.317  16.749  0.1515 -0.8025  1.9473
 7586TIP3    H244174   0.815   5.344  16.730  0.3733 -0.2380  0.9440
 7587TIP3   OH244175   3.032   0.116   3.772  0.1785  0.1587 -0.3627
 7587TIP3    H144176   3.126   0.118   3.790 -0.0978  0.3609  1.2353
 7587TIP3    H244177   3.008   0.024   3.778  0.2499  0.1213 -0.6430
 7588TIP3   OH244178   6.123   2.156   1.927 -0.2470 -0.4629  0.2403
 7588TIP3    H144179   6.103   2.130   1.837 -1.0798  0.2231  0.2088
 7588TIP3    H244180   6.151   2.247   1.919 -1.4587 -0.0183  0.7854
 7589TIP3   OH244181   1.496   0.279   3.557  0.5368 -0.0849 -0.2174
 7589TIP3    H144182   1.494   0.183   3.550  0.7296  0.0020 -2.3890
 7589TIP3    H244183   1.517   0.308   3.468  0.7359  1.9773  0.4609
 7590TIP3   OH244184   0.590   6.219  13.117  0.3590 -0.5005 -0.2275
 7590TIP3    H144185   0.569   6.215  13.023  1.5377  0.9312 -0.6004
 7590TIP3    H244186   0.506   6.233  13.160 -0.0140  0.5644 -1.2421
 7591TIP3   OH244187   4.461   0.862   2.544  0.6545 -0.1224  0.1834
 7591TIP3    H144188   4.515   0.814   2.482 -0.2511  0.9454 -1.4863
 7591TIP3    H244189   4.375   0.868   2.503  0.3423  1.6389  0.9885
 7592TIP3   OH244190   5.818   3.029   2.082 -0.2219 -0.7801  0.0120
 7592TIP3    H144191   5.788   2.940   2.063  0.2466 -0.9673  0.1406
 7592TIP3    H244192   5.863   3.057   2.001 -0.3348 -0.6746 -0.0146
 7593TIP3   OH244193   2.862   4.741  13.895 -0.1638 -0.7260 -0.6075
 7593TIP3    H144194   2.847   4.739  13.800 -0.0839  1.0180 -0.6867
 7593TIP3    H244195   2.957   4.749  13.904 -0.1704 -0.9073 -0.3786
 7594TIP3   OH244196   6.662   4.272   2.328 -0.2757  0.3375  0.5766
 7594TIP3    H144197   6.619   4.211   2.268 -1.7744  1.1279  0.8219
 7594TIP3    H244198   6.616   4.261   2.411  0.4084  0.7735  1.0276
 7595TIP3   OH244199   0.367   2.694   2.118  0.6603 -0.5661  0.7333
 7595TIP3    H144200   0.357   2.688   2.213  1.3241 -0.3486  0.8265
 7595TIP3    H244201   0.451   2.738   2.106  0.1180  0.2979  0.0399
 7596TIP3   OH244202   1.311   5.391   0.181 -0.7624 -0.5023 -0.4228
 7596TIP3    H144203   1.234   5.445   0.163 -0.5021  0.1019  0.2182
 7596TIP3    H244204   1.323   5.339   0.102 -2.2356 -1.1152 -0.2937
 7597TIP3   OH244205   1.202   4.558   0.968  0.1126 -0.3159 -0.2039
 7597TIP3    H144206   1.225   4.477   1.013 -2.5184 -1.2489 -0.3868
 7597TIP3    H244207   1.267   4.566   0.898  0.8184 -1.8806  0.2453
 7598TIP3   OH244208   6.392   1.204   4.701 -0.2908 -0.0026  0.3407
 7598TIP3    H144209   6.374   1.203   4.607  1.6070 -0.1583 -0.0485
 7598TIP3    H244210   6.457   1.135   4.715  0.7737  1.1651  1.4675
 7599TIP3   OH244211   5.225   6.023  11.764 -0.0379  0.5344 -0.5715
 7599TIP3    H144212   5.193   6.113  11.761 -0.4838  0.3730 -0.6877
 7599TIP3    H244213   5.266   6.009  11.678  1.6743  1.2164  0.0837
 7600TIP3   OH244214   5.906   3.326   1.680  0.0042 -0.1063  0.0418
 7600TIP3    H144215   5.961   3.404   1.679 -0.1614  0.0466  1.1833
 7600TIP3    H244216   5.833   3.348   1.622 -0.3102  0.8132  0.7470
 7601TIP3   OH244217   1.043   5.454  17.027  0.1214  0.6137  0.0867
 7601TIP3    H144218   1.134   5.450  17.000  0.0020 -2.6824 -0.1339
 7601TIP3    H244219   1.046   5.472  17.121  0.9660  0.5654  0.0685
 7602TIP3   OH244220   2.406   6.131   2.835 -0.4018  0.2893 -0.6152
 7602TIP3    H144221   2.465   6.171   2.771 -0.1103  0.5713 -0.1772
 7602TIP3    H244222   2.464   6.095   2.902 -0.7154  0.2686 -0.3506
 7603TIP3   OH244223   1.559   5.503  10.975  0.3901 -0.5238  0.3607
 7603TIP3    H144224   1.548   5.408  10.964  0.8965 -0.5198 -0.2490
 7603TIP3    H244225   1.653   5.517  10.964  0.1668  0.2014 -0.8133
 7604TIP3   OH244226   6.430   4.223   3.109  0.0308  0.0621  0.0374
 7604TIP3    H144227   6.453   4.175   3.030  0.8271 -1.2751  1.0293
 7604TIP3    H244228   6.348   4.183   3.138 -0.3077  0.6099 -0.1527
 7605TIP3   OH244229   4.215   1.692   1.745  0.1630  0.1364  0.1775
 7605TIP3    H144230   4.165   1.732   1.675  0.5331  0.9493  0.3697
 7605TIP3    H244231   4.301   1.673   1.707  0.4149  0.7155  0.4367
 7606TIP3   OH244232   0.939   3.100  13.203  0.1848 -0.0889 -0.2988
 7606TIP3    H144233   0.997   3.034  13.165 -0.3252 -1.8922  1.8354
 7606TIP3    H244234   0.880   3.123  13.132  1.8107 -0.1896 -1.7585
 7607TIP3   OH244235   0.165   3.866  14.099 -0.3492  0.4232  0.2467
 7607TIP3    H144236   0.248   3.818  14.098 -0.8372 -0.4482 -0.1315
 7607TIP3    H244237   0.138   3.865  14.191 -1.7413 -2.6040 -0.0604
 7608TIP3   OH244238   3.414   4.994   1.588 -0.2068 -0.0571  0.3597
 7608TIP3    H144239   3.440   4.930   1.521  2.2673  0.2656  0.9344
 7608TIP3    H244240   3.427   4.947   1.671 -0.4738  0.4875  0.7105
 7609TIP3   OH244241   6.051   4.202  10.848  0.5819  0.0380 -0.0526
 7609TIP3    H144242   6.041   4.135  10.780 -0.5054  2.0655 -2.0386
 7609TIP3    H244243   6.123   4.257  10.817 -0.4241  1.4336 -0.0322
 7610TIP3   OH244244   0.562   6.493   4.656 -0.0315  0.2083 -0.9261
 7610TIP3    H144245   0.524   6.422   4.605  1.7017  0.6603 -3.0128
 7610TIP3    H244246   0.489   6.553   4.672 -1.1873 -1.2766 -0.4490
 7611TIP3   OH244247   6.602   6.774   2.999  0.4553  0.0541  0.1172
 7611TIP3    H144248   6.515   6.767   3.038  0.7596 -0.3448  0.7392
 7611TIP3    H244249   6.622   6.686   2.970  1.1576 -0.1260  1.1020
 7612TIP3   OH244250   5.225   3.845   2.330 -0.8344 -0.1006  0.4784
 7612TIP3    H144251   5.218   3.752   2.311 -1.7741 -0.0161  0.3759
 7612TIP3    H244252   5.140   3.882   2.305 -0.9978  0.5341  1.8772
 7613TIP3   OH244253   5.889   3.038  13.505  0.0573 -0.0198  0.4294
 7613TIP3    H144254   5.882   3.124  13.464  1.0113 -0.7726 -1.4383
 7613TIP3    H244255   5.823   2.985  13.461  0.0550 -0.4738  0.9609
 7614TIP3   OH244256   6.698   0.584   5.078  0.0350 -0.2278 -0.0861
 7614TIP3    H144257   6.786   0.556   5.053 -0.2290 -0.0735 -1.2581
 7614TIP3    H244258   6.642   0.552   5.007 -0.6794  0.7333  0.0272
 7615TIP3   OH244259   4.281   6.290   3.119 -0.2175 -0.0380 -0.2014
 7615TIP3    H144260   4.348   6.295   3.051  0.3912  0.2426  0.4144
 7615TIP3    H244261   4.245   6.202   3.111  0.2109 -0.1870 -0.5385
 7616TIP3   OH244262   2.057   1.144   0.219 -0.1602 -0.0408  0.3136
 7616TIP3    H144263   2.066   1.175   0.309 -0.4215 -0.2290  0.4045
 7616TIP3    H244264   2.010   1.213   0.174 -0.8766 -0.3665  0.5530
 7617TIP3   OH244265   1.857   1.985  13.048  0.7399  0.6003 -0.0474
 7617TIP3    H144266   1.822   2.064  13.008 -1.0788 -0.5355 -0.8617
 7617TIP3    H244267   1.921   1.952  12.985  2.0221  1.7453  0.6167
 7618TIP3   OH244268   2.043   5.263  10.737 -0.1009 -0.5119  0.1538
 7618TIP3    H144269   1.984   5.328  10.698 -1.5837 -1.4043  0.8289
 7618TIP3    H244270   1.993   5.226  10.810  1.6649 -0.6455  1.3588
 7619TIP3   OH244271   5.091   2.021   2.420  0.6667 -0.0655 -0.1579
 7619TIP3    H144272   5.123   2.021   2.510 -1.0179  1.2515  0.5220
 7619TIP3    H244273   5.129   1.943   2.380 -0.4268 -2.0810  2.4153
 7620TIP3   OH244274   6.125   4.298   4.156  0.7246 -0.4119  0.1434
 7620TIP3    H144275   6.156   4.380   4.120  2.2627 -0.9412  0.1806
 7620TIP3    H244276   6.059   4.323   4.220  0.5444  0.7336 -0.4698
 7621TIP3   OH244277   5.386   0.188   4.702  0.1275 -0.0208  0.0255
 7621TIP3    H144278   5.427   0.257   4.650  2.1435 -0.4514  0.9382
 7621TIP3    H244279   5.390   0.221   4.792  0.7620 -1.1296  0.4251
 7622TIP3   OH244280   3.533   5.347   0.480  0.1990 -0.2777 -0.3624
 7622TIP3    H144281   3.584   5.337   0.560 -1.4477 -0.5170  0.7088
 7622TIP3    H244282   3.531   5.442   0.464 -0.6853 -0.0902  0.7426
 7623TIP3   OH244283   4.442   5.939   0.465  0.1466  0.5153 -0.5228
 7623TIP3    H144284   4.389   5.940   0.386  0.8519 -0.2886 -1.0190
 7623TIP3    H244285   4.527   5.972   0.437  0.1716  1.0021  0.0848
 7624TIP3   OH244286   6.384   6.522  14.787  0.2035  0.2490  0.1133
 7624TIP3    H144287   6.313   6.466  14.818  1.5624 -0.8618  1.3961
 7624TIP3    H244288   6.371   6.605  14.832 -0.8180  0.4142 -0.4426
 7625TIP3   OH244289   6.738   6.605   2.410 -0.0826  0.4773 -0.2815
 7625TIP3    H144290   6.715   6.693   2.378  1.2424  0.3711 -1.6779
 7625TIP3    H244291   6.833   6.599   2.394  0.2246 -0.4842  1.6504
 7626TIP3   OH244292   4.309   5.798  11.156  0.0860 -0.5367  0.0514
 7626TIP3    H144293   4.256   5.854  11.213  0.7874 -1.9940  2.2869
 7626TIP3    H244294   4.398   5.833  11.164  0.1109 -0.4653 -0.5317
 7627TIP3   OH244295   0.101   6.783  13.370  0.1695 -0.3720  0.5960
 7627TIP3    H144296   0.144   6.867  13.385 -1.6301  0.9377 -1.0233
 7627TIP3    H244297   0.094   6.744  13.457  1.0929  1.1169  1.3847
 7628TIP3   OH244298   6.224   4.308  13.326 -0.4882  0.2701 -0.5926
 7628TIP3    H144299   6.140   4.277  13.292 -1.4550  0.0726  1.7874
 7628TIP3    H244300   6.213   4.403  13.335 -0.4230  0.2560 -0.3642
 7629TIP3   OH244301   3.051   5.784   0.051  0.5592 -0.0397  0.2427
 7629TIP3    H144302   3.121   5.721   0.067  1.7188  0.9872 -0.6213
 7629TIP3    H244303   3.053   5.841   0.128  1.5741  0.7725 -0.3582
 7630TIP3   OH244304   4.881   3.991   1.369  0.5278  0.2733 -0.4007
 7630TIP3    H144305   4.893   4.071   1.318 -2.0198  0.6685 -0.5377
 7630TIP3    H244306   4.828   4.018   1.444  2.5373 -0.6833  1.4573
 7631TIP3   OH244307   3.120   1.383  16.983 -0.2894  0.3542 -0.3420
 7631TIP3    H144308   3.166   1.299  16.977  1.3661  1.2625 -0.8769
 7631TIP3    H244309   3.067   1.387  16.903 -0.9207 -0.4582  0.0175
 7632TIP3   OH244310   1.316   5.651   4.819 -0.4754  0.0780 -0.0970
 7632TIP3    H144311   1.334   5.674   4.910 -2.3870 -0.5547  0.4716
 7632TIP3    H244312   1.242   5.590   4.823  0.8056 -1.7624 -1.9252
 7633TIP3   OH244313   6.596   0.037  11.839 -0.1641 -0.5673 -0.8373
 7633TIP3    H144314   6.503   0.060  11.838 -0.3832 -1.4511 -1.9457
 7633TIP3    H244315   6.629   0.066  11.754  0.3938 -0.9525 -0.7564
 7634TIP3   OH244316   0.118   2.643  11.654  0.6801 -0.0107  0.3026
 7634TIP3    H144317   0.162   2.611  11.733 -0.3618 -0.8149  0.5728
 7634TIP3    H244318   0.174   2.612  11.582  1.1129 -0.1101  0.6756
 7635TIP3   OH244319   4.600   3.608  12.501  0.3751 -0.0053 -0.1649
 7635TIP3    H144320   4.539   3.588  12.430  0.7666 -0.9730 -0.2377
 7635TIP3    H244321   4.571   3.554  12.574  1.0799 -0.4104 -0.1707
 7636TIP3   OH244322   5.878   3.177   3.829 -0.1428  0.1220 -0.0303
 7636TIP3    H144323   5.812   3.183   3.899  1.2871  1.5305  1.2681
 7636TIP3    H244324   5.852   3.244   3.766 -0.2322  0.3459  0.2397
 7637TIP3   OH244325   0.935   1.650  14.022 -0.2643  0.2014 -0.0443
 7637TIP3    H144326   0.950   1.745  14.026 -0.3513  0.2231 -0.2530
 7637TIP3    H244327   0.989   1.615  14.093 -0.2103  0.4052  0.0166
 7638TIP3   OH244328   2.018   5.480  12.413  0.6841  0.2126 -0.7121
 7638TIP3    H144329   1.986   5.558  12.367 -0.8592  2.2146  3.3537
 7638TIP3    H244330   2.080   5.514  12.478 -1.0352 -1.6626  2.1158
 7639TIP3   OH244331   6.369   3.395   0.760 -0.5478  0.5956  0.6117
 7639TIP3    H144332   6.283   3.359   0.740  0.7488 -1.9010 -1.0094
 7639TIP3    H244333   6.427   3.319   0.764  1.8851  2.2853  0.0565
 7640TIP3   OH244334   6.755   6.716   0.707  0.9184 -0.4580  0.0165
 7640TIP3    H144335   6.697   6.790   0.722 -0.6409 -1.5555 -0.3730
 7640TIP3    H244336   6.813   6.744   0.637  1.1912  0.8238  0.7197
 7641TIP3   OH244337   3.711   6.176  12.577 -0.4742 -0.0364  0.3614
 7641TIP3    H144338   3.712   6.168  12.672  0.3098 -1.1041  0.2779
 7641TIP3    H244339   3.646   6.112  12.547 -0.7679  0.3420  0.1788
 7642TIP3   OH244340   5.424   6.445  15.765  0.0265 -0.3888  0.2583
 7642TIP3    H144341   5.443   6.517  15.825 -3.0387 -1.5458  2.8996
 7642TIP3    H244342   5.495   6.382  15.779  1.1753  0.8360  0.0663
 7643TIP3   OH244343   0.064   0.752   4.110 -0.2413 -0.3910 -0.2449
 7643TIP3    H144344  -0.029   0.728   4.108 -0.1457 -0.8272  0.4451
 7643TIP3    H244345   0.107   0.680   4.155  0.4016 -0.0623 -0.3166
 7644TIP3   OH244346   0.226   4.119   5.444  0.1302  0.1639  0.2214
 7644TIP3    H144347   0.304   4.166   5.473  0.0392  0.5958 -0.2306
 7644TIP3    H244348   0.163   4.130   5.516  0.4674 -0.1526  0.5696
 7645TIP3   OH244349   4.278   4.778  14.136 -0.2524  0.2503  0.3556
 7645TIP3    H144350   4.228   4.852  14.170 -0.1194  0.2614  0.5315
 7645TIP3    H244351   4.280   4.715  14.208 -1.7171 -0.6222 -0.3205
 7646TIP3   OH244352   6.649   5.098  11.682  0.8689  0.2088 -0.1791
 7646TIP3    H144353   6.562   5.112  11.644  1.0969 -0.8444 -1.1374
 7646TIP3    H244354   6.632   5.061  11.768  0.3416 -1.0305 -0.7885
 7647TIP3   OH244355   4.115   2.558   2.243  0.7201 -0.4927  0.0533
 7647TIP3    H144356   4.063   2.603   2.176 -0.4584  0.4226  1.5141
 7647TIP3    H244357   4.169   2.627   2.282  1.3181 -0.9985  0.1444
 7648TIP3   OH244358   4.891   3.397   1.654 -0.1596  0.0176  0.3805
 7648TIP3    H144359   4.808   3.365   1.619 -0.2575  0.2859  0.3623
 7648TIP3    H244360   4.930   3.446   1.581  1.5068 -2.6875 -0.7181
 7649TIP3   OH244361   1.010   6.426  16.732 -0.2294 -0.4136  0.0203
 7649TIP3    H144362   0.967   6.388  16.656  0.1719 -1.2270  0.1918
 7649TIP3    H244363   0.997   6.361  16.802 -0.5034  0.2706  0.6210
 7650TIP3   OH244364   2.992   2.828   1.904  0.4772 -0.0247 -0.1269
 7650TIP3    H144365   3.026   2.849   1.991  0.1115 -1.5892  0.4318
 7650TIP3    H244366   3.062   2.854   1.844  1.5805 -0.7495  0.7969
 7651TIP3   OH244367   4.370   0.435  15.610  0.5240 -0.6959 -0.1167
 7651TIP3    H144368   4.277   0.446  15.632  0.9698 -0.0904  1.6241
 7651TIP3    H244369   4.381   0.484  15.528 -0.1952  1.4430  0.9704
 7652TIP3   OH244370   1.974   3.762  14.106  0.1596  0.0109  0.0654
 7652TIP3    H144371   2.046   3.766  14.169  0.9073  0.7984 -0.8098
 7652TIP3    H244372   1.934   3.849  14.109 -2.2883 -1.0560  2.2154
 7653TIP3   OH244373   2.836   0.596   3.654  0.2980 -0.3987  0.5856
 7653TIP3    H144374   2.792   0.646   3.722 -0.4440 -2.4410  1.6876
 7653TIP3    H244375   2.790   0.620   3.573 -1.2096 -0.5832  1.3514
 7654TIP3   OH244376   1.117   6.523  15.915  0.0614  0.3099  0.1248
 7654TIP3    H144377   1.098   6.583  15.843  0.7314  0.0699 -0.2680
 7654TIP3    H244378   1.052   6.453  15.906 -0.2372  0.5852  0.1199
 7655TIP3   OH244379   3.303   5.582  12.401  0.3129 -0.1381  0.2157
 7655TIP3    H144380   3.226   5.533  12.432  0.3791 -0.0340  0.5516
 7655TIP3    H244381   3.364   5.578  12.474  0.6687 -0.3075 -0.0904
 7656TIP3   OH244382   5.909   4.065   4.675  0.0995  0.1943 -0.1997
 7656TIP3    H144383   5.892   3.972   4.664  1.7415 -0.1171 -0.2973
 7656TIP3    H244384   5.987   4.082   4.623  1.0820  1.1603  1.4869
 7657TIP3   OH244385   2.417   5.119   3.588 -0.4617 -0.3303  0.3691
 7657TIP3    H144386   2.450   5.078   3.668 -3.4532  1.4110  2.6910
 7657TIP3    H244387   2.359   5.053   3.550  1.6777 -1.5261 -1.0491
 7658TIP3   OH244388   1.069   5.382  13.067 -0.5899  0.0156 -0.2144
 7658TIP3    H144389   1.012   5.324  13.016  0.7128 -1.4604 -0.0622
 7658TIP3    H244390   1.147   5.392  13.013  0.1247 -0.2238  0.7542
 7659TIP3   OH244391   5.898   2.112  13.847  0.0264 -0.2605  0.3839
 7659TIP3    H144392   5.947   2.036  13.877 -0.0496 -0.1368  0.8392
 7659TIP3    H244393   5.809   2.080  13.833  0.6188 -0.9490 -2.3604
 7660TIP3   OH244394   5.813   6.260  17.072  0.3319  0.7390  0.2995
 7660TIP3    H144395   5.887   6.285  17.016  2.0045 -0.5228  1.8297
 7660TIP3    H244396   5.789   6.172  17.041 -0.6085  1.1745 -0.2392
 7661TIP3   OH244397   6.498   5.596   1.945  0.2233 -0.5954 -0.1962
 7661TIP3    H144398   6.438   5.663   1.978  0.2573 -0.2635 -0.7944
 7661TIP3    H244399   6.446   5.516   1.945 -0.0708 -0.4076 -0.2480
 7662TIP3   OH244400   5.370   0.916  11.668 -0.3214 -0.2639 -0.0334
 7662TIP3    H144401   5.296   0.890  11.613  0.5797 -3.3718 -0.0112
 7662TIP3    H244402   5.430   0.841  11.663  1.5364  0.9522  2.1676
 7663TIP3   OH244403   1.463   0.274  15.907 -0.1456  0.0669 -0.2504
 7663TIP3    H144404   1.517   0.199  15.881  0.5127  0.4115  0.1028
 7663TIP3    H244405   1.395   0.236  15.962  0.4018 -0.2369  0.2315
 7664TIP3   OH244406   5.633   4.518  16.151 -0.6982  0.3772 -0.3502
 7664TIP3    H144407   5.629   4.453  16.081  1.8182 -0.8370  0.5369
 7664TIP3    H244408   5.597   4.597  16.111  1.6059  0.0530 -3.4416
 7665TIP3   OH244409   3.835   3.130   5.194  1.0536  0.0304 -1.2014
 7665TIP3    H144410   3.745   3.101   5.182  0.2691  0.2588  2.8408
 7665TIP3    H244411   3.837   3.219   5.159 -1.2377  1.1630  1.2108
 7666TIP3   OH244412   5.273   3.469  15.100  0.3561  0.5534  0.1000
 7666TIP3    H144413   5.194   3.467  15.153  1.1443 -0.5326  1.2813
 7666TIP3    H244414   5.245   3.438  15.014 -0.2278 -1.3359  0.9376
 7667TIP3   OH244415   5.072   3.092  12.372 -0.4325  0.1126  0.4032
 7667TIP3    H144416   5.005   3.105  12.439 -0.6989  0.1811  0.1236
 7667TIP3    H244417   5.100   3.001  12.384 -0.4210  0.1489  0.6588
 7668TIP3   OH244418   6.123   6.378   1.082  0.0485  0.2303 -0.5308
 7668TIP3    H144419   6.178   6.456   1.093 -0.2795  0.2254  1.4457
 7668TIP3    H244420   6.096   6.381   0.990  0.5690  2.0801 -0.6699
 7669TIP3   OH244421   6.385   3.164  16.808  0.1630  0.3895  0.3584
 7669TIP3    H144422   6.356   3.084  16.853 -1.5672  1.4147  1.2130
 7669TIP3    H244423   6.385   3.141  16.715  1.3309 -1.0609  0.6939
 7670TIP3   OH244424   3.938   0.327   0.621 -0.4312 -0.1113 -0.2376
 7670TIP3    H144425   3.911   0.360   0.707  0.6067 -1.8828  0.8208
 7670TIP3    H244426   3.885   0.377   0.559 -2.9318 -0.3750  1.5197
 7671TIP3   OH244427   2.400   2.047   5.215 -0.3888  0.1842 -0.6354
 7671TIP3    H144428   2.429   2.089   5.296  1.9345  1.8996 -2.2202
 7671TIP3    H244429   2.308   2.074   5.206 -0.8200 -0.3457  1.5214
 7672TIP3   OH244430   1.702   1.074   2.319  0.0744 -0.1293 -0.3578
 7672TIP3    H144431   1.658   1.018   2.384 -0.4715  1.0058  0.2730
 7672TIP3    H244432   1.728   1.152   2.368  0.8493  0.1695 -1.2235
 7673TIP3   OH244433   4.305   1.469  13.716 -0.1174 -0.3857  0.1333
 7673TIP3    H144434   4.249   1.545  13.728  0.1953  0.1497 -1.5522
 7673TIP3    H244435   4.376   1.499  13.659  1.5131 -1.2414  1.6057
 7674TIP3   OH244436   5.256   6.423  15.236  0.0229 -0.3173 -0.8297
 7674TIP3    H144437   5.292   6.437  15.324 -2.3721 -0.6393  0.2753
 7674TIP3    H244438   5.235   6.510  15.204 -1.0676 -0.3192 -0.1637
 7675TIP3   OH244439   5.723   0.652   1.280  0.4140  0.9393  0.1604
 7675TIP3    H144440   5.661   0.695   1.221 -0.4362  2.2065  1.8738
 7675TIP3    H244441   5.735   0.565   1.243 -0.8266  1.3645 -1.3408
 7676TIP3   OH244442   1.189   3.720  11.011  0.0724 -0.0229  0.5000
 7676TIP3    H144443   1.259   3.670  11.053 -1.1641 -1.6171  0.7759
 7676TIP3    H244444   1.179   3.680  10.925 -1.7227 -1.1454  1.1568
 7677TIP3   OH244445   2.778   6.625  13.201  0.1833 -0.6652  0.0609
 7677TIP3    H144446   2.761   6.602  13.292 -1.8589 -1.5300 -0.4674
 7677TIP3    H244447   2.760   6.719  13.196  0.8122 -0.5069  0.6295
 7678TIP3   OH244448   3.090   3.667   3.011 -0.3130 -0.0659 -0.4318
 7678TIP3    H144449   3.056   3.591   3.059  1.3710  0.2519  1.4276
 7678TIP3    H244450   3.053   3.660   2.924 -0.2376 -3.0155 -0.3052
 7679TIP3   OH244451   3.389   2.818  14.808  0.3217 -0.1188 -0.3423
 7679TIP3    H144452   3.341   2.884  14.759  1.1613 -0.2622 -1.3831
 7679TIP3    H244453   3.479   2.850  14.809  0.5848 -0.8537 -0.1556
 7680TIP3   OH244454   3.088   2.312  11.387  0.0172 -0.1428 -0.7674
 7680TIP3    H144455   3.117   2.392  11.343  0.3092  1.1058  1.5843
 7680TIP3    H244456   3.157   2.292  11.450 -1.3992 -0.5341  0.7229
 7681TIP3   OH244457   0.901   0.905   1.343 -0.2489  0.1629 -0.1879
 7681TIP3    H144458   0.857   0.922   1.259  0.4980 -0.5499 -0.7318
 7681TIP3    H244459   0.835   0.860   1.396 -0.2857 -0.6387 -0.8960
 7682TIP3   OH244460   1.857   2.350   4.309  0.5560  0.2138  0.0908
 7682TIP3    H144461   1.925   2.293   4.345  0.7428  0.3986  0.0383
 7682TIP3    H244462   1.793   2.360   4.379  1.1161  0.8937  0.5077
 7683TIP3   OH244463   3.240   4.430  11.679 -0.0914  0.1928  0.8494
 7683TIP3    H144464   3.185   4.403  11.605  1.0477 -0.0489  0.0678
 7683TIP3    H244465   3.290   4.505  11.647  2.2918 -1.4471  0.4475
 7684TIP3   OH244466   5.952   4.085   4.134  0.1269 -0.2721  0.4480
 7684TIP3    H144467   6.024   4.148   4.131  0.0273 -0.1923 -1.0742
 7684TIP3    H244468   5.953   4.043   4.048 -1.3249 -0.6240  0.5789
 7685TIP3   OH244469   1.202   6.451   3.406  0.9748 -0.5431  0.1001
 7685TIP3    H144470   1.262   6.462   3.331 -0.8839 -0.3098 -1.4271
 7685TIP3    H244471   1.144   6.526   3.401 -0.5718 -1.6670  0.4315
 7686TIP3   OH244472   3.193   3.715   4.979 -0.5348 -0.2532 -0.5882
 7686TIP3    H144473   3.135   3.687   4.908 -0.3340  1.4472 -1.4582
 7686TIP3    H244474   3.245   3.787   4.942 -0.4517  0.7139  1.2817
 7687TIP3   OH244475   4.945   6.008  12.039 -0.0931  0.2881 -0.3199
 7687TIP3    H144476   4.883   6.077  12.013 -1.6541 -1.1805 -0.6831
 7687TIP3    H244477   4.995   6.048  12.110 -0.6981  1.9222 -0.7498
 7688TIP3   OH244478   1.599   4.104  15.770  0.3703 -0.7189  0.3891
 7688TIP3    H144479   1.520   4.058  15.798 -0.2525  0.4590  0.6477
 7688TIP3    H244480   1.578   4.137  15.683  0.2689  0.2499  0.7647
 7689TIP3   OH244481   5.635   2.411  16.819  0.1027 -0.2716  0.2599
 7689TIP3    H144482   5.605   2.473  16.752  2.2167 -0.8855 -1.3826
 7689TIP3    H244483   5.667   2.466  16.890 -0.1695  0.4794 -0.1837
 7690TIP3   OH244484   2.449   3.189   5.071  0.4116 -0.2672 -0.4565
 7690TIP3    H144485   2.395   3.260   5.106 -0.2220 -1.2347  0.5937
 7690TIP3    H244486   2.394   3.148   5.004  0.1571 -0.7313  0.0302
 7691TIP3   OH244487   5.294   0.124   2.259  0.8293 -0.2247 -0.0796
 7691TIP3    H144488   5.344   0.116   2.340  2.4943 -1.5089 -1.1584
 7691TIP3    H244489   5.292   0.035   2.223 -0.3912  0.2021 -1.1471
 7692TIP3   OH244490   3.201   3.952   6.056  0.3183 -0.1623  0.4182
 7692TIP3    H144491   3.145   3.913   6.123  0.3111 -0.4406  0.2512
 7692TIP3    H244492   3.290   3.937   6.088  0.2955  0.3876  0.7429
 7693TIP3   OH244493   2.899   0.692  14.243  0.1127 -0.1768 -0.8242
 7693TIP3    H144494   2.920   0.784  14.258  0.3884 -0.5766  1.6418
 7693TIP3    H244495   2.930   0.675  14.154 -1.4597  2.5005 -1.9967
 7694TIP3   OH244496   0.579   6.335   3.999  0.2510  0.6203 -0.1001
 7694TIP3    H144497   0.641   6.265   3.982 -0.9381 -0.3934 -0.4194
 7694TIP3    H244498   0.611   6.409   3.948  1.6251  0.3940  0.3882
 7695TIP3   OH244499   2.195   1.912  11.191 -0.1332 -0.3877 -0.8041
 7695TIP3    H144500   2.158   1.949  11.271  0.4403 -1.0523 -0.2195
 7695TIP3    H244501   2.134   1.842  11.167 -0.3328 -0.1542 -0.9735
 7696TIP3   OH244502   2.163   2.065  12.653  0.0057  0.1466  0.2921
 7696TIP3    H144503   2.235   2.123  12.679 -0.5172  0.5732  0.8419
 7696TIP3    H244504   2.156   2.003  12.725 -0.4229  0.3509  0.4315
 7697TIP3   OH244505   0.653   2.625   1.595  0.5799 -0.0688  0.0731
 7697TIP3    H144506   0.577   2.568   1.583  0.0656  0.5964  0.0620
 7697TIP3    H244507   0.666   2.667   1.510  1.3476 -0.6397 -0.0942
 7698TIP3   OH244508   4.539   3.379  10.606  0.8112 -0.4302 -0.6631
 7698TIP3    H144509   4.603   3.332  10.658 -0.5867 -1.8736 -0.1688
 7698TIP3    H244510   4.481   3.311  10.570 -1.3344  0.8533  0.1338
 7699TIP3   OH244511   6.589   4.013  13.402 -0.3659  0.3378  0.9266
 7699TIP3    H144512   6.571   3.953  13.474 -1.1971  0.2290  0.6418
 7699TIP3    H244513   6.640   3.961  13.339  3.2432  1.3052  2.7837
 7700TIP3   OH244514   5.272   2.332  16.034 -0.4827  0.0854 -0.0174
 7700TIP3    H144515   5.293   2.400  15.970 -1.8146  2.4709  1.8994
 7700TIP3    H244516   5.278   2.250  15.984 -0.9177  1.7231 -3.0408
 7701TIP3   OH244517   3.318   4.819   6.079 -0.0923  0.4919 -0.3133
 7701TIP3    H144518   3.277   4.844   5.997  0.5807  0.7300 -0.5903
 7701TIP3    H244519   3.412   4.832   6.064 -0.0056  1.2061  0.7110
 7702TIP3   OH244520   5.279   6.587   2.439 -0.3563 -0.7574  0.1289
 7702TIP3    H144521   5.282   6.604   2.533 -2.9294 -1.1386  0.3570
 7702TIP3    H244522   5.304   6.671   2.399  2.2940 -1.0041  1.0510
 7703TIP3   OH244523   0.967   6.104   5.777 -0.0212 -0.2036 -0.2596
 7703TIP3    H144524   0.973   6.150   5.860 -1.1364 -1.0294  0.3092
 7703TIP3    H244525   1.004   6.017   5.796 -0.3863 -0.4322 -0.5774
 7704TIP3   OH244526   0.848   5.644   4.894  0.0908  0.5444  0.2335
 7704TIP3    H144527   0.796   5.573   4.858 -1.1415  0.6066  1.7898
 7704TIP3    H244528   0.830   5.642   4.988 -0.1308  3.0106  0.3155
 7705TIP3   OH244529   3.127   3.049   4.018  0.1924  0.1683  0.4320
 7705TIP3    H144530   3.034   3.028   4.009  0.4448 -1.8544  1.7717
 7705TIP3    H244531   3.145   3.110   3.947 -2.0211  0.1263 -0.2349
 7706TIP3   OH244532   4.404   4.328   0.901  0.1393  0.5248  0.1344
 7706TIP3    H144533   4.341   4.319   0.829 -0.2024  1.8784  0.2263
 7706TIP3    H244534   4.459   4.250   0.895 -1.7412 -0.8788  0.2540
 7707TIP3   OH244535   1.722   0.816  15.780 -0.0341  0.2319 -0.0987
 7707TIP3    H144536   1.646   0.780  15.825 -0.8299  0.6728 -1.0755
 7707TIP3    H244537   1.688   0.853  15.699  1.2727  0.0463 -0.7705
 7708TIP3   OH244538   3.649   5.416  15.601  0.0163 -0.0886  0.3174
 7708TIP3    H144539   3.704   5.493  15.616  0.6678 -0.3395 -0.6710
 7708TIP3    H244540   3.611   5.396  15.687  2.2154 -0.4578  1.2804
 7709TIP3   OH244541   5.227   5.667  14.358  0.4222 -0.3533  0.1887
 7709TIP3    H144542   5.219   5.628  14.445  1.2887 -0.9872 -0.0022
 7709TIP3    H244543   5.142   5.650  14.317  0.6203 -1.6669  0.2775
 7710TIP3   OH244544   3.814   0.877  15.115 -0.6515 -0.0292  0.4779
 7710TIP3    H144545   3.803   0.972  15.118 -0.3939  0.1177 -1.6545
 7710TIP3    H244546   3.741   0.842  15.165 -1.5082  1.2780  0.1724
 7711TIP3   OH244547   3.273   5.084   0.080 -0.5421  0.1581  0.3937
 7711TIP3    H144548   3.208   5.043   0.021  0.0595  0.9664 -0.8653
 7711TIP3    H244549   3.222   5.147   0.131 -0.9241  0.0450  0.1594
 7712TIP3   OH244550   3.818   4.375  15.188 -0.1265 -0.2905 -0.1829
 7712TIP3    H144551   3.769   4.298  15.215  0.5659 -0.7529 -0.2058
 7712TIP3    H244552   3.821   4.430  15.266 -0.7515 -0.2205 -0.2087
 7713TIP3   OH244553   2.281   1.549   6.129 -0.3873 -0.6495 -0.6755
 7713TIP3    H144554   2.209   1.606   6.155 -0.8156 -1.8383  0.9487
 7713TIP3    H244555   2.355   1.608   6.114 -1.8017  0.6759 -3.0543
 7714TIP3   OH244556   1.242   3.575   1.592 -0.8246 -0.1741 -0.0924
 7714TIP3    H144557   1.202   3.661   1.580  1.3761  1.3342  2.3512
 7714TIP3    H244558   1.244   3.537   1.504 -1.5828  2.3705 -1.3073
 7715TIP3   OH244559   3.463   4.202  17.058  0.0188  0.3246  0.4200
 7715TIP3    H144560   3.406   4.133  17.025 -0.8617  0.1701  2.1517
 7715TIP3    H244561   3.552   4.172  17.038 -0.4364  0.2241 -1.6499
 7716TIP3   OH244562   5.614   6.612  11.790 -0.0539 -0.2126  0.2879
 7716TIP3    H144563   5.677   6.568  11.733 -1.5312  1.9393 -3.3179
 7716TIP3    H244564   5.540   6.552  11.796  1.1508 -1.6528  2.4860
 7717TIP3   OH244565   5.392   1.291   2.390  0.1159 -0.4172 -0.1673
 7717TIP3    H144566   5.412   1.203   2.423 -1.5217 -0.2784  1.3986
 7717TIP3    H244567   5.301   1.306   2.417  0.5629  2.0263  0.2304
 7718TIP3   OH244568   3.740   0.369  13.680 -0.1171 -0.5877 -0.4197
 7718TIP3    H144569   3.786   0.449  13.657 -1.5523  0.3168 -0.2780
 7718TIP3    H244570   3.703   0.337  13.597 -0.5962 -0.4010 -0.2833
 7719TIP3   OH244571   5.441   0.936  12.271  0.1480  0.1072 -0.0914
 7719TIP3    H144572   5.524   0.945  12.224  0.7614  2.4182  1.2843
 7719TIP3    H244573   5.375   0.967  12.209  0.4762 -0.3417 -0.6766
 7720TIP3   OH244574   5.661   5.209  16.128 -0.0495  0.3015 -0.4523
 7720TIP3    H144575   5.731   5.176  16.185  0.7765  1.2629 -0.8755
 7720TIP3    H244576   5.653   5.143  16.059 -0.5759 -0.5264  0.3863
 7721TIP3   OH244577   3.028   4.182  11.515 -0.4859  0.1462  0.9133
 7721TIP3    H144578   2.942   4.162  11.477  0.6516 -0.3612 -1.5548
 7721TIP3    H244579   3.045   4.273  11.490  0.4650 -0.3291 -0.2939
 7722TIP3   OH244580   2.590   3.922  13.251 -0.1088 -0.2098 -0.4285
 7722TIP3    H144581   2.611   3.910  13.158 -1.6947  0.7377 -0.9496
 7722TIP3    H244582   2.621   4.011  13.270 -0.5433 -0.0878 -0.2884
 7723TIP3   OH244583   1.800   3.315   0.822  0.5967  0.3890 -0.1278
 7723TIP3    H144584   1.723   3.354   0.864  1.6732  2.4066  0.0690
 7723TIP3    H244585   1.774   3.303   0.731 -0.8533 -1.5634  0.4731
 7724TIP3   OH244586   3.518   4.177  16.014 -0.1805 -0.3615 -0.2259
 7724TIP3    H144587   3.441   4.225  15.986 -1.6423 -1.5363  1.5525
 7724TIP3    H244588   3.489   4.126  16.089  1.6446 -2.8939 -1.0789
 7725TIP3   OH244589   3.124   3.026   0.716  0.2999 -0.4515  0.3760
 7725TIP3    H144590   3.068   3.016   0.793  0.6851 -0.1050  0.7033
 7725TIP3    H244591   3.114   2.943   0.668 -2.1131  0.3539 -0.6706
 7726TIP3   OH244592   6.276   6.097   2.005  0.1743 -0.1000  0.0987
 7726TIP3    H144593   6.315   6.153   2.073 -0.4782  0.2850  0.1588
 7726TIP3    H244594   6.272   6.154   1.928 -1.3490  0.2420  0.4088
 7727TIP3   OH244595   6.162   0.377   0.098  0.5441  0.9982  0.2075
 7727TIP3    H144596   6.227   0.446   0.079 -0.4520  2.2115  1.0193
 7727TIP3    H244597   6.160   0.373   0.194  0.3620  0.0378  0.1674
 7728TIP3   OH244598   0.388   5.867  14.400  0.1475 -0.3550 -0.0402
 7728TIP3    H144599   0.411   5.836  14.488  0.7674 -1.0178 -0.4330
 7728TIP3    H244600   0.416   5.797  14.341 -0.0866  0.1689 -0.7916
 7729TIP3   OH244601   3.239   3.510   5.633  0.0175 -0.4921 -0.1388
 7729TIP3    H144602   3.221   3.582   5.574 -0.4328  0.1727  0.7746
 7729TIP3    H244603   3.176   3.442   5.607  1.0046 -0.9101 -1.5447
 7730TIP3   OH244604   5.089   6.562  11.008 -1.0279  0.1047 -0.2531
 7730TIP3    H144605   5.047   6.486  11.046  0.6817  1.0158  3.9883
 7730TIP3    H244606   5.146   6.526  10.939  0.9742 -2.8462  2.6461
 7731TIP3   OH244607   4.277   4.220   6.155 -0.6568 -0.2648 -0.6103
 7731TIP3    H144608   4.310   4.210   6.244 -4.3179  1.8501  1.2671
 7731TIP3    H244609   4.183   4.205   6.163 -0.9477 -1.5825 -4.5214
 7732TIP3   OH244610   4.770   5.893   5.389  0.4506  0.7719  0.1452
 7732TIP3    H144611   4.789   5.986   5.378 -1.8931  1.0052 -3.7234
 7732TIP3    H244612   4.794   5.853   5.305 -0.6527 -1.6841  0.9006
 7733TIP3   OH244613   2.179   2.840  16.534 -0.6140 -0.0415 -0.7544
 7733TIP3    H144614   2.213   2.915  16.583  1.0647 -0.7569 -0.7229
 7733TIP3    H244615   2.256   2.785  16.520 -1.9157 -2.1657 -0.0460
 7734TIP3   OH244616   1.257   2.267  10.633 -0.2493 -0.2980 -0.4534
 7734TIP3    H144617   1.169   2.249  10.666 -0.2188  0.8926  0.3507
 7734TIP3    H244618   1.302   2.183  10.638 -0.5370 -0.3918  1.7386
 7735TIP3   OH244619   0.037   2.764  14.892  0.1807  0.0251 -0.6959
 7735TIP3    H144620  -0.020   2.781  14.817 -1.8839 -0.6736  0.6217
 7735TIP3    H244621   0.015   2.833  14.955  1.2431  0.0892 -0.3711
 7736TIP3   OH244622   1.177   1.967   2.527 -0.2243  0.0487 -0.3059
 7736TIP3    H144623   1.251   2.009   2.485 -0.2003 -0.5075 -0.8401
 7736TIP3    H244624   1.124   2.039   2.563  0.7721  0.4281  0.4405
 7737TIP3   OH244625   0.254   5.550  16.424  0.3376  0.0220 -0.3843
 7737TIP3    H144626   0.219   5.462  16.439  0.7948 -0.0354  0.4488
 7737TIP3    H244627   0.277   5.552  16.331  0.7121 -0.8889 -0.3217
 7738TIP3   OH244628   2.206   0.798   4.697 -0.1074  0.4520  0.6595
 7738TIP3    H144629   2.216   0.772   4.789  1.8642  0.9391  0.6234
 7738TIP3    H244630   2.247   0.728   4.647 -2.2045 -0.4115  0.0016
 7739TIP3   OH244631   1.129   4.255   3.589  0.2714 -0.4803  0.7076
 7739TIP3    H144632   1.131   4.203   3.669  0.7871 -0.4613  0.7129
 7739TIP3    H244633   1.085   4.336   3.613 -0.0286 -0.6831  0.8438
 7740TIP3   OH244634   4.156   0.716  12.963 -0.1603  0.3797 -0.0272
 7740TIP3    H144635   4.085   0.654  12.981  0.7208 -0.2339  1.5162
 7740TIP3    H244636   4.114   0.802  12.968 -0.8309  0.0204  0.7147
 7741TIP3   OH244637   1.230   3.569   0.388 -0.8370  0.8297  0.0746
 7741TIP3    H144638   1.274   3.547   0.306  0.8802  2.5248  0.4834
 7741TIP3    H244639   1.160   3.629   0.363 -0.2903  1.3778 -0.1657
 7742TIP3   OH244640   6.804   4.412  14.605  0.0239  0.6969 -0.1870
 7742TIP3    H144641   6.849   4.337  14.644 -0.1966 -0.5808 -2.2533
 7742TIP3    H244642   6.858   4.487  14.628  1.4371 -0.3757  0.1249
 7743TIP3   OH244643   6.122   3.386  11.508  0.0556 -0.0735 -0.6095
 7743TIP3    H144644   6.129   3.355  11.598  1.6235  1.6336 -0.0982
 7743TIP3    H244645   6.056   3.455  11.511  0.8320  0.6762 -0.5538
 7744TIP3   OH244646   6.211   0.040   3.635 -0.4022  0.4235  0.4627
 7744TIP3    H144647   6.129   0.075   3.600 -0.7955 -0.7257  0.2129
 7744TIP3    H244648   6.276   0.058   3.567 -0.8294 -0.3229 -0.1498
 7745TIP3   OH244649   4.280   6.355   3.833  0.4035  0.3280  0.2453
 7745TIP3    H144650   4.288   6.314   3.747  1.2528 -0.4740  0.6803
 7745TIP3    H244651   4.264   6.447   3.814 -0.6983 -0.0422 -0.7621
 7746TIP3   OH244652   4.274   6.684   5.144  0.0905 -0.8599  0.1894
 7746TIP3    H144653   4.323   6.673   5.062  0.5303 -1.1130  0.4804
 7746TIP3    H244654   4.238   6.597   5.162 -0.5273 -0.6616 -0.0533
 7747TIP3   OH244655   5.701   6.534   0.562 -0.6332 -0.4019 -0.4659
 7747TIP3    H144656   5.695   6.574   0.476 -0.2800  1.0497  0.1544
 7747TIP3    H244657   5.791   6.503   0.568 -0.9742 -1.5759 -1.0413
 7748TIP3   OH244658   4.940   3.171   2.535  0.6713  0.2941  0.3642
 7748TIP3    H144659   4.948   3.132   2.622 -1.4954  1.5178  1.1873
 7748TIP3    H244660   4.855   3.141   2.503  0.8979  0.8429 -0.8290
 7749TIP3   OH244661   6.695   4.592   5.941  0.5183  0.1625  0.0073
 7749TIP3    H144662   6.788   4.612   5.936  0.7392 -0.3846  1.5081
 7749TIP3    H244663   6.656   4.669   5.981  0.3718  0.2609 -0.3237
 7750TIP3   OH244664   1.307   2.277  13.480 -0.6239  0.0432  0.2299
 7750TIP3    H144665   1.247   2.211  13.446 -0.0406  0.1765 -1.1114
 7750TIP3    H244666   1.250   2.343  13.519 -1.3312 -0.0068 -0.6947
 7751TIP3   OH244667   6.363   5.575  13.286  0.9042 -0.2342  0.3968
 7751TIP3    H144668   6.327   5.499  13.240  2.4281 -0.8502  0.1871
 7751TIP3    H244669   6.384   5.542  13.373 -1.2678  0.7446  1.3827
 7752TIP3   OH244670   4.301   3.123   3.272 -0.5140 -0.7380 -0.2345
 7752TIP3    H144671   4.394   3.136   3.257 -0.4717 -2.0341 -1.2064
 7752TIP3    H244672   4.266   3.212   3.282  0.7113 -0.2084 -0.5111
 7753TIP3   OH244673   3.287   4.236  15.353  0.1959  0.2826 -0.3032
 7753TIP3    H144674   3.206   4.188  15.363  0.9420 -1.2053 -1.0839
 7753TIP3    H244675   3.353   4.169  15.335  1.6381  1.4325  0.4723
 7754TIP3   OH244676   6.314   2.961  10.652  0.1705  0.9525  0.8714
 7754TIP3    H144677   6.243   2.900  10.634  0.5573  0.6571  0.3151
 7754TIP3    H244678   6.331   3.003  10.568  1.3648  0.2469  0.7399
 7755TIP3   OH244679   1.718   6.358   5.622  0.0178  0.1556 -0.1856
 7755TIP3    H144680   1.801   6.372   5.668 -0.1121  0.2460  0.0242
 7755TIP3    H244681   1.743   6.344   5.531  0.2234  0.8414 -0.2425
 7756TIP3   OH244682   3.088   1.732  15.734 -0.0046  0.0102 -0.7626
 7756TIP3    H144683   3.123   1.804  15.681  1.6671 -1.8727 -2.3897
 7756TIP3    H244684   2.995   1.730  15.714  0.1728  0.8526 -1.7655
 7757TIP3   OH244685   0.069   1.497   2.421 -0.1749 -0.1596  0.1582
 7757TIP3    H144686  -0.009   1.448   2.447  0.8259 -1.4681  0.7484
 7757TIP3    H244687   0.077   1.565   2.487 -0.2454 -0.6444  0.6719
 7758TIP3   OH244688   5.526   4.154  12.087 -0.4226  0.2810  0.6752
 7758TIP3    H144689   5.463   4.193  12.148  0.1670  0.0580  1.4469
 7758TIP3    H244690   5.599   4.216  12.086  0.1579 -0.3780  1.2566
 7759TIP3   OH244691   1.993   2.638  11.854  0.7322 -0.0062  0.5349
 7759TIP3    H144692   1.963   2.571  11.916  0.0617 -0.5189 -0.3195
 7759TIP3    H244693   1.914   2.667  11.810  0.9636  1.6285  1.1215
 7760TIP3   OH244694   3.377   3.357  17.138  0.0095 -0.1097  0.3804
 7760TIP3    H144695   3.419   3.443  17.134  0.3351 -0.3098 -0.8348
 7760TIP3    H244696   3.433   3.306  17.197  0.0999  0.3627  0.7056
 7761TIP3   OH244697   0.709   2.099   3.626  0.1294 -0.5239  0.0301
 7761TIP3    H144698   0.693   2.191   3.648  1.8815 -0.2816  0.4712
 7761TIP3    H244699   0.712   2.054   3.710 -0.7618 -1.0154 -0.1881
 7762TIP3   OH244700   6.265   5.896   1.453  0.2717 -0.1877  0.2767
 7762TIP3    H144701   6.270   5.917   1.546 -0.2707  1.9593 -0.1256
 7762TIP3    H244702   6.172   5.881   1.437  0.2129  0.5025 -0.0919
 7763TIP3   OH244703   2.926   2.732   5.215 -0.1268  0.5916 -0.5022
 7763TIP3    H144704   2.964   2.722   5.127  3.4583  3.4988  0.4593
 7763TIP3    H244705   2.988   2.688   5.273 -1.3436  0.5189  0.8022
 7764TIP3   OH244706   6.021   5.525   2.996  0.6987  0.0665 -0.2789
 7764TIP3    H144707   5.970   5.449   2.968 -0.1671  0.4836  0.1473
 7764TIP3    H244708   6.082   5.490   3.060 -0.5466 -0.0725  0.8612
 7765TIP3   OH244709   0.920   1.333  14.047 -0.0147  0.0816  0.3125
 7765TIP3    H144710   0.856   1.334  13.976  0.2697 -3.8862 -0.2477
 7765TIP3    H244711   0.891   1.402  14.106 -2.6143  0.8901 -1.6831
 7766TIP3   OH244712   6.096   3.709   3.107 -0.4512  0.0039 -0.5757
 7766TIP3    H144713   6.033   3.699   3.036  0.7087 -0.4907 -1.5727
 7766TIP3    H244714   6.098   3.623   3.150 -1.5516  0.4537  0.4410
 7767TIP3   OH244715   0.640   2.357  13.483 -0.4323  0.2600 -0.4233
 7767TIP3    H144716   0.596   2.324  13.562  0.6323 -1.5343 -0.5281
 7767TIP3    H244717   0.731   2.368  13.509 -0.4074  1.3717 -0.9397
 7768TIP3   OH244718   4.908   5.921   1.925  0.6331 -0.1458  0.0046
 7768TIP3    H144719   4.887   5.955   2.013  0.8785 -2.2529  0.9343
 7768TIP3    H244720   4.864   5.836   1.922 -1.2594  0.8069 -2.8061
 7769TIP3   OH244721   5.515   3.498  12.753  0.2445  0.1231  0.0336
 7769TIP3    H144722   5.459   3.473  12.679 -1.2867 -1.1705  1.5365
 7769TIP3    H244723   5.481   3.583  12.782 -0.1439 -0.0710  0.1588
 7770TIP3   OH244724   2.568   5.010  13.337  0.0531  0.6209 -0.0179
 7770TIP3    H144725   2.643   5.057  13.373  1.0212 -0.9750  0.1221
 7770TIP3    H244726   2.564   4.929  13.388  0.6314 -1.1040 -2.5556
 7771TIP3   OH244727   0.817   3.716  17.031 -0.0515 -0.6900  0.2467
 7771TIP3    H144728   0.792   3.775  16.960 -2.4459 -1.2338  0.5528
 7771TIP3    H244729   0.765   3.637  17.017  0.5606 -1.4025  1.7363
 7772TIP3   OH244730   5.792   4.591  15.845 -0.0018 -0.3683  0.6481
 7772TIP3    H144731   5.794   4.574  15.751 -0.2476 -0.5739  0.6774
 7772TIP3    H244732   5.830   4.512  15.883 -0.2691 -0.4506  0.7423
 7773TIP3   OH244733   3.268   4.842  16.280  0.0730  0.6893 -0.3802
 7773TIP3    H144734   3.261   4.762  16.228 -0.8937 -0.4939  1.4629
 7773TIP3    H244735   3.358   4.841  16.312  0.0475  0.2784 -0.3067
 7774TIP3   OH244736   5.863   4.574   2.015 -0.3679  1.0553  0.1266
 7774TIP3    H144737   5.833   4.488   1.984 -3.8550  2.5392 -1.1373
 7774TIP3    H244738   5.950   4.584   1.978  0.1222 -1.8539  0.2579
 7775TIP3   OH244739   2.310   1.977  15.962 -0.4287 -0.5462 -0.0806
 7775TIP3    H144740   2.403   1.969  15.982 -0.4906 -0.8505  0.0934
 7775TIP3    H244741   2.271   1.898  15.998 -0.9886  0.2760  1.1825
 7776TIP3   OH244742   0.603   0.571   1.475 -0.0536  0.1580  0.1470
 7776TIP3    H144743   0.613   0.667   1.477 -0.7075  0.2248  0.6779
 7776TIP3    H244744   0.690   0.538   1.455  0.4178  0.8338  1.0127
 7777TIP3   OH244745   0.604   0.627   1.910  0.1280 -0.1790 -0.0408
 7777TIP3    H144746   0.514   0.602   1.932  0.2948 -1.6741 -0.9380
 7777TIP3    H244747   0.644   0.547   1.878  1.2857  0.8431 -1.2598
 7778TIP3   OH244748   5.497   1.481   3.053 -0.1882 -0.0532 -0.1641
 7778TIP3    H144749   5.577   1.452   3.009  0.4349  1.2300  0.0707
 7778TIP3    H244750   5.494   1.428   3.133  0.2767 -0.3047 -0.3081
 7779TIP3   OH244751   3.562   1.774   3.879 -0.2042  0.2185  0.8404
 7779TIP3    H144752   3.595   1.695   3.835 -1.5218  0.7183 -1.2143
 7779TIP3    H244753   3.641   1.825   3.899  0.5100 -0.1332 -0.8605
 7780TIP3   OH244754   4.477   0.667   5.018 -0.7021  0.2220  0.4848
 7780TIP3    H144755   4.504   0.578   4.994  2.0472  1.0329  0.2413
 7780TIP3    H244756   4.381   0.664   5.015 -1.1221 -3.9089  4.6288
 7781TIP3   OH244757   1.495   5.980   4.630 -0.5877 -0.2811 -0.5910
 7781TIP3    H144758   1.566   6.024   4.677  0.1840 -0.6689 -1.3541
 7781TIP3    H244759   1.415   6.009   4.674  0.0128  0.5239  0.0027
 7782TIP3   OH244760   4.265   5.470   1.920 -0.6015  0.2106  0.5247
 7782TIP3    H144761   4.290   5.418   1.844 -1.2492  1.3186 -0.4750
 7782TIP3    H244762   4.190   5.423   1.957 -1.1608  0.3916 -0.3484
 7783TIP3   OH244763   6.592   2.792   5.591  0.1971  0.0808  0.0881
 7783TIP3    H144764   6.603   2.815   5.684  1.7852  0.1140 -0.0805
 7783TIP3    H244765   6.606   2.875   5.544 -1.3637  0.2283 -0.1705
 7784TIP3   OH244766   5.268   4.336  14.433  0.0184 -0.8756 -0.2384
 7784TIP3    H144767   5.303   4.270  14.372  2.5083  0.5461 -0.4991
 7784TIP3    H244768   5.209   4.287  14.490  2.1133 -3.4699 -0.0950
 7785TIP3   OH244769   2.235   6.292  15.179 -0.3859 -0.1423 -0.0268
 7785TIP3    H144770   2.222   6.330  15.092 -1.1472 -0.1267  0.0863
 7785TIP3    H244771   2.148   6.293  15.219  0.5197  3.7782  2.3707
 7786TIP3   OH244772   3.925   2.027  15.255  0.1595 -0.6607 -0.4132
 7786TIP3    H144773   3.873   1.955  15.289 -0.1916 -0.8132 -1.2468
 7786TIP3    H244774   3.969   2.064  15.332 -1.0119 -0.6606  0.2744
 7787TIP3   OH244775   5.387   4.640   2.656  0.1359  0.1203 -0.3926
 7787TIP3    H144776   5.368   4.611   2.567 -0.7417  0.8927 -0.4701
 7787TIP3    H244777   5.309   4.689   2.682  0.3181 -0.2257  0.8573
 7788TIP3   OH244778   3.117   5.212  13.556  0.0273 -0.0665  0.0191
 7788TIP3    H144779   3.136   5.290  13.504 -1.5355  1.3379  1.4622
 7788TIP3    H244780   3.191   5.205  13.617 -0.1462  0.6807  0.3201
 7789TIP3   OH244781   5.517   5.916   4.149 -0.0649  0.2789  0.1437
 7789TIP3    H144782   5.493   5.987   4.089  1.4680  0.2109 -0.5780
 7789TIP3    H244783   5.568   5.959   4.218  1.7866 -0.2211 -0.8519
 7790TIP3   OH244784   6.611   1.737  13.133  0.6430  0.3025 -0.2645
 7790TIP3    H144785   6.619   1.674  13.205 -1.1218 -0.7500 -0.9156
 7790TIP3    H244786   6.586   1.684  13.057 -0.5676  1.7260 -0.9145
 7791TIP3   OH244787   4.312   0.469  12.961 -0.1563  0.7010  0.2935
 7791TIP3    H144788   4.253   0.544  12.962  1.4154  1.9856  0.2162
 7791TIP3    H244789   4.366   0.483  12.883 -0.9153 -1.4240 -0.7027
 7792TIP3   OH244790   0.403   1.809  12.229 -0.5626 -0.3101 -0.4186
 7792TIP3    H144791   0.327   1.808  12.172 -0.2783  1.8237 -0.9285
 7792TIP3    H244792   0.368   1.797  12.317 -1.1759 -2.0009 -0.8637
 7793TIP3   OH244793   0.983   2.854   2.620  0.2941  0.2369  0.0381
 7793TIP3    H144794   0.890   2.878   2.621  0.3496  0.4924  1.8155
 7793TIP3    H244795   1.020   2.900   2.695  1.6783 -0.5990 -0.1127
 7794TIP3   OH244796   3.130   2.285  12.882  0.1276  0.2189 -0.3037
 7794TIP3    H144797   3.155   2.305  12.792 -0.0756 -1.6863 -0.8271
 7794TIP3    H244798   3.206   2.308  12.935 -0.3377  2.9496 -0.6874
 7795TIP3   OH244799   0.885   4.295   3.085  0.0449  0.1343  0.0723
 7795TIP3    H144800   0.975   4.304   3.053 -0.1915  0.9477 -0.3888
 7795TIP3    H244801   0.893   4.297   3.180  0.5341  0.0335  0.0353
 7796TIP3   OH244802   2.192   6.168   5.211 -0.4356 -0.2176  0.4679
 7796TIP3    H144803   2.102   6.184   5.183 -0.0408 -1.3346 -1.6826
 7796TIP3    H244804   2.191   6.077   5.241 -0.3618  0.2975  2.1059
 7797TIP3   OH244805   2.921   2.594   0.447  0.2208  0.4586  0.2898
 7797TIP3    H144806   2.878   2.659   0.502  0.8633  1.3231 -0.2039
 7797TIP3    H244807   2.966   2.536   0.508 -1.4238 -0.3344  0.8047
 7798TIP3   OH244808   3.659   3.853   5.664  0.7408 -0.6010  0.3398
 7798TIP3    H144809   3.592   3.797   5.703  0.1141  0.9010  1.4861
 7798TIP3    H244810   3.632   3.862   5.572 -0.0725 -0.8027  0.5484
 7799TIP3   OH244811   2.257   1.861  13.896  1.0678 -0.1495 -0.0613
 7799TIP3    H144812   2.329   1.808  13.930 -0.1686 -0.7272  1.7853
 7799TIP3    H244813   2.189   1.797  13.876  0.3331  0.5599  0.1488
 7800TIP3   OH244814   2.250   5.063   6.239 -0.4076 -0.1801  0.4066
 7800TIP3    H144815   2.293   4.979   6.253 -2.3870 -1.4308 -0.6151
 7800TIP3    H244816   2.247   5.103   6.326  1.4859 -0.6335  0.7396
 7801TIP3   OH244817   4.039   4.484  13.122  0.4059 -0.5355 -0.1575
 7801TIP3    H144818   4.055   4.578  13.111  0.1861 -0.2689  1.5992
 7801TIP3    H244819   4.060   4.447  13.036 -0.2581  1.2024 -1.1434
 7802TIP3   OH244820   5.618   4.419   3.591  0.0718 -0.2632 -0.3641
 7802TIP3    H144821   5.537   4.465   3.569  0.0641 -0.6959 -1.2943
 7802TIP3    H244822   5.640   4.370   3.512 -0.2397 -2.3232  0.7621
 7803TIP3   OH244823   2.466   6.182  12.812  0.3500  0.9672  0.0256
 7803TIP3    H144824   2.461   6.172  12.907  1.9548  1.3180  0.1891
 7803TIP3    H244825   2.560   6.182  12.793  0.0599  0.3587 -1.6309
 7804TIP3   OH244826   1.854   3.337  14.302 -0.1901  0.5784 -0.4724
 7804TIP3    H144827   1.770   3.347  14.259 -0.4088  3.3685  0.4085
 7804TIP3    H244828   1.911   3.400  14.259  0.3698  1.3940  1.3689
 7805TIP3   OH244829   1.310   5.433  13.294 -0.0244  0.1015 -0.6187
 7805TIP3    H144830   1.258   5.506  13.261  0.6329  0.7176 -0.3336
 7805TIP3    H244831   1.263   5.402  13.371  1.0125  1.9760  0.8608
 7806TIP3   OH244832   5.692   4.279   5.735  0.3602 -0.0715  0.4690
 7806TIP3    H144833   5.709   4.185   5.729  0.9830  0.1043 -0.7876
 7806TIP3    H244834   5.777   4.318   5.753  0.5224  0.4157 -1.1762
 7807TIP3   OH244835   3.006   1.310  12.167 -0.0732  0.8386  0.0304
 7807TIP3    H144836   3.050   1.243  12.219  1.5596  0.6773 -1.4535
 7807TIP3    H244837   2.915   1.280  12.162  0.0960  0.0079  1.3518
 7808TIP3   OH244838   1.400   6.497  17.118  0.1034 -0.1153  0.3141
 7808TIP3    H144839   1.489   6.518  17.090 -0.3365  2.5660  0.6898
 7808TIP3    H244840   1.363   6.580  17.146 -1.4429 -1.6401  3.3164
 7809TIP3   OH244841   0.598   0.017  16.806 -0.3247  0.3184 -0.1928
 7809TIP3    H144842   0.667  -0.049  16.815  3.0149  3.3232 -1.2322
 7809TIP3    H244843   0.601   0.067  16.888 -0.2457  1.3297 -0.7928
 7810TIP3   OH244844   3.009   3.524   5.877 -0.5818 -0.0830  0.2663
 7810TIP3    H144845   2.935   3.478   5.835 -0.2962  0.2405 -0.6131
 7810TIP3    H244846   2.982   3.615   5.880 -1.1668 -0.2804  2.0596
 7811TIP3   OH244847   4.468   0.173  12.909  0.6639  0.1280  0.1682
 7811TIP3    H144848   4.562   0.188  12.900  0.4364  1.7993  0.2970
 7811TIP3    H244849   4.430   0.261  12.916 -0.9364 -0.5061 -0.1393
 7812TIP3   OH244850   2.271   4.688  12.608  0.3875 -0.2630 -0.1645
 7812TIP3    H144851   2.315   4.693  12.523  0.6082  0.9733 -0.0073
 7812TIP3    H244852   2.203   4.755  12.603  0.5269 -0.0425  0.6933
 7813TIP3   OH244853   3.307   0.205   1.840 -0.6350  0.1653 -0.0710
 7813TIP3    H144854   3.275   0.198   1.750  2.3355 -1.7839 -1.1188
 7813TIP3    H244855   3.344   0.293   1.846 -0.6158  0.2141 -0.8388
 7814TIP3   OH244856   5.017   1.816  17.124  0.8632  0.9289  0.5936
 7814TIP3    H144857   5.028   1.840  17.032  0.2838  1.7565  0.7280
 7814TIP3    H244858   5.078   1.744  17.138  0.7893  0.6429 -0.4969
 7815TIP3   OH244859   1.157   6.312  13.528  0.4318 -0.1629 -0.2979
 7815TIP3    H144860   1.098   6.238  13.546  0.0701 -0.2195 -1.6034
 7815TIP3    H244861   1.152   6.366  13.607  1.7091 -2.1454  1.2515
 7816TIP3   OH244862   5.997   0.636  11.304  0.0874  0.1341 -0.6208
 7816TIP3    H144863   6.005   0.593  11.389 -1.0156  0.5047 -0.3080
 7816TIP3    H244864   6.008   0.729  11.323 -0.3358  0.2364 -0.8441
 7817TIP3   OH244865   1.440   4.902   1.630 -0.4790 -0.7605  0.1346
 7817TIP3    H144866   1.525   4.915   1.588  0.2004 -2.4433  0.8731
 7817TIP3    H244867   1.398   4.988   1.628  0.5941 -0.2276 -1.5975
 7818TIP3   OH244868   4.352   4.229  12.594 -0.1456 -0.2061 -0.4526
 7818TIP3    H144869   4.311   4.312  12.570  1.5103  0.2548 -1.8913
 7818TIP3    H244870   4.324   4.168  12.525 -1.0395 -0.7746  0.3841
 7819TIP3   OH244871   0.868   2.504   2.205  0.1559  0.1078  0.0621
 7819TIP3    H144872   0.793   2.465   2.161  0.0010  0.9526 -0.4434
 7819TIP3    H244873   0.849   2.598   2.205  0.5942  0.2129  1.1011
 7820TIP3   OH244874   0.570   1.940   1.900 -0.5802 -0.1585 -0.3598
 7820TIP3    H144875   0.479   1.956   1.875 -1.5265 -1.2060  2.0647
 7820TIP3    H244876   0.614   1.916   1.819 -2.5804 -0.1281 -1.5104
 7821TIP3   OH244877   0.247   2.413   2.418  0.2910 -0.0437  0.1691
 7821TIP3    H144878   0.259   2.508   2.427  1.0316 -0.1417  0.2978
 7821TIP3    H244879   0.282   2.377   2.499 -1.5531 -0.3358  0.8863
 7822TIP3   OH244880   5.000   5.148  13.979  0.3629 -0.2791 -0.0211
 7822TIP3    H144881   4.966   5.237  13.993  2.4409  0.4224  0.8879
 7822TIP3    H244882   4.934   5.106  13.924  0.6936  2.7801 -3.0985
 7823TIP3   OH244883   5.253   2.917  14.190  0.1396  0.4715  0.0607
 7823TIP3    H144884   5.248   2.888  14.281 -1.3634 -1.2298 -0.4993
 7823TIP3    H244885   5.320   2.861  14.150 -0.8119 -0.3749 -0.3835
 7824TIP3   OH244886   1.069   5.687  11.543 -0.0604 -0.1495  0.0398
 7824TIP3    H144887   1.112   5.646  11.618  1.1178 -0.9583 -1.0364
 7824TIP3    H244888   0.976   5.688  11.566  0.3153 -0.0117  1.6616
 7825TIP3   OH244889   4.244   3.347  16.259 -0.2426 -0.5401  0.3786
 7825TIP3    H144890   4.242   3.302  16.344 -0.3676  1.5426  1.5630
 7825TIP3    H244891   4.327   3.394  16.259 -1.3112  1.4804  0.5243
 7826TIP3   OH244892   6.070   3.179   4.424 -0.0382  0.2640 -0.1382
 7826TIP3    H144893   5.990   3.197   4.374  0.1999  0.4482 -0.4567
 7826TIP3    H244894   6.065   3.238   4.499  0.8836  1.9507 -1.3338
 7827TIP3   OH244895   3.281   0.127  15.503  0.2860 -0.3799  0.0787
 7827TIP3    H144896   3.278   0.200  15.565 -0.8698 -0.2475 -0.1278
 7827TIP3    H244897   3.375   0.110  15.492  0.6085  1.4757 -0.3545
 7828TIP3   OH244898   0.046   2.527  16.784  0.5421 -0.5399 -0.1814
 7828TIP3    H144899   0.094   2.607  16.762  0.2875 -0.2243  0.3893
 7828TIP3    H244900   0.090   2.494  16.862 -0.1612 -0.2405  0.3562
 7829TIP3   OH244901   3.713   4.331  14.443 -0.6482 -0.2298 -0.1894
 7829TIP3    H144902   3.621   4.335  14.416 -0.6234 -0.6572 -0.3574
 7829TIP3    H244903   3.717   4.255  14.501 -1.0551  1.6501  2.4559
 7830TIP3   OH244904   3.694   5.884  11.186 -0.3936  0.1058 -0.5750
 7830TIP3    H144905   3.757   5.855  11.121  0.1854 -2.0086  0.8015
 7830TIP3    H244906   3.723   5.971  11.212  0.9941 -0.1646 -1.1439
 7831TIP3   OH244907   4.118   5.147   4.004  0.0640 -0.1132 -0.0732
 7831TIP3    H144908   4.148   5.232   4.034 -0.4902  0.5915 -1.4223
 7831TIP3    H244909   4.197   5.105   3.969 -0.1513  1.0681 -2.1061
 7832TIP3   OH244910   2.975   4.956  15.634 -0.2017 -0.0071  0.7969
 7832TIP3    H144911   2.970   5.025  15.567 -2.7716 -0.1819  0.7112
 7832TIP3    H244912   2.890   4.959  15.678 -1.5072 -4.6613 -0.8451
 7833TIP3   OH244913   5.456   3.805   4.285  0.0738 -0.4305  0.3279
 7833TIP3    H144914   5.532   3.792   4.229 -0.3021  0.6699 -0.4680
 7833TIP3    H244915   5.425   3.893   4.264 -2.0676 -1.2378 -0.1602
 7834TIP3   OH244916   4.001   1.375   4.986 -0.1921  0.4620 -0.0338
 7834TIP3    H144917   3.983   1.442   4.919 -1.7660 -0.2374 -0.3666
 7834TIP3    H244918   3.981   1.418   5.069  0.2967  0.8703 -0.1235
 7835TIP3   OH244919   3.566   5.823  12.639 -0.4571  0.0540 -0.6585
 7835TIP3    H144920   3.656   5.798  12.620 -0.1828 -0.6493  1.3311
 7835TIP3    H244921   3.547   5.892  12.576  2.2189  1.7512  0.2226
 7836TIP3   OH244922   1.065   1.917  13.184  0.3918 -0.0110  1.0377
 7836TIP3    H144923   0.976   1.917  13.220  0.5325 -0.8095  1.3986
 7836TIP3    H244924   1.110   1.847  13.231  0.5917 -1.1009 -0.6647
 7837TIP3   OH244925   3.773   2.441   3.890  0.5250 -0.1892  0.1203
 7837TIP3    H144926   3.848   2.501   3.892  0.9852 -0.7942  1.5291
 7837TIP3    H244927   3.802   2.363   3.937 -0.6057 -0.9134 -0.3271
 7838TIP3   OH244928   4.339   3.989   5.321 -0.6373  0.1070 -0.4536
 7838TIP3    H144929   4.385   3.910   5.350 -2.0655 -0.7881 -0.5171
 7838TIP3    H244930   4.391   4.022   5.248  0.3583 -0.3761  0.0281
 7839TIP3   OH244931   3.678   0.101   2.225 -0.6423 -0.4286 -0.1880
 7839TIP3    H144932   3.753   0.042   2.219 -0.6541 -0.3686 -1.1659
 7839TIP3    H244933   3.628   0.083   2.145 -1.0218  0.4010 -0.1470
 7840TIP3   OH244934   2.060   1.966  15.569 -0.0160 -0.0330  0.1370
 7840TIP3    H144935   2.050   1.872  15.585 -0.7568  0.1068  0.5579
 7840TIP3    H244936   2.039   2.006  15.653  0.3987  0.5112 -0.0137
 7841TIP3   OH244937   5.811   5.148  16.499  0.4873 -0.0342  0.0763
 7841TIP3    H144938   5.870   5.223  16.485  0.5848  0.0435  0.8487
 7841TIP3    H244939   5.864   5.085  16.547  0.2920 -0.4566 -0.2564
 7842TIP3   OH244940   1.252   0.290   0.529  0.3357  0.2240  0.1223
 7842TIP3    H144941   1.266   0.197   0.548 -0.8312  0.2971  1.4749
 7842TIP3    H244942   1.209   0.291   0.444  1.7305 -0.3614 -0.6294
 7843TIP3   OH244943   4.256   4.922  15.356 -0.0954  0.1761 -0.3048
 7843TIP3    H144944   4.190   4.987  15.330 -1.0758 -0.2961  0.9340
 7843TIP3    H244945   4.267   4.935  15.450  0.6119 -0.6452 -0.2658
 7844TIP3   OH244946   0.471   4.187   1.334 -0.0382  0.2127 -0.4406
 7844TIP3    H144947   0.432   4.274   1.325 -0.6013  0.1142  0.8280
 7844TIP3    H244948   0.529   4.195   1.410 -0.8313 -0.7638  0.2895
 7845TIP3   OH244949   2.494   0.964  11.166 -0.2335 -0.2184 -0.0515
 7845TIP3    H144950   2.480   1.047  11.120  0.1958 -0.1901 -0.1307
 7845TIP3    H244951   2.434   0.903  11.122 -0.4355  0.0091 -0.0976
 7846TIP3   OH244952   2.029   0.116   5.888  0.3371  0.2937  0.2575
 7846TIP3    H144953   2.055   0.190   5.833 -0.3652 -0.5394 -1.2488
 7846TIP3    H244954   2.048   0.039   5.835 -2.7376 -0.4518  0.1037
 7847TIP3   OH244955   5.147   3.852  16.118  0.1792  0.0292 -0.1001
 7847TIP3    H144956   5.113   3.925  16.170 -1.1546 -1.5047  1.3007
 7847TIP3    H244957   5.069   3.804  16.090  0.9729 -0.2930 -1.9094
 7848TIP3   OH244958   1.497   0.428   4.199 -0.0769  0.5006 -0.1323
 7848TIP3    H144959   1.537   0.496   4.144  0.9555 -1.2479 -1.6405
 7848TIP3    H244960   1.441   0.379   4.139  2.0907 -2.2910 -0.0872
 7849TIP3   OH244961   3.916   0.004  12.876  0.0811 -0.2839 -0.1662
 7849TIP3    H144962   3.942   0.061  12.803 -1.0476  0.8403  0.2497
 7849TIP3    H244963   3.847  -0.051  12.839  0.0592 -0.2656 -0.1529
 7850TIP3   OH244964   2.935   2.698   2.872  0.4095 -0.1145  0.0941
 7850TIP3    H144965   3.013   2.750   2.892 -0.3312  0.7847  0.7339
 7850TIP3    H244966   2.953   2.612   2.910  0.7741  0.3228  0.9411
 7851TIP3   OH244967   0.373   4.817  13.122  0.2612  0.2586  0.4072
 7851TIP3    H144968   0.336   4.778  13.042  0.7038  0.4890  0.0834
 7851TIP3    H244969   0.380   4.910  13.102 -0.1853  0.4046  0.9406
 7852TIP3   OH244970   5.912   4.388  16.008  0.2981 -0.1238  0.0650
 7852TIP3    H144971   5.893   4.376  16.101  0.7221  1.1037  0.3412
 7852TIP3    H244972   5.986   4.330  15.991 -1.4036 -2.3601 -0.1947
 7853TIP3   OH244973   4.394   3.445   6.084 -0.2471 -0.1857 -0.1320
 7853TIP3    H144974   4.323   3.413   6.028  0.9507 -2.3728 -0.5084
 7853TIP3    H244975   4.391   3.540   6.074 -2.0830 -0.3241 -1.3991
 7854TIP3   OH244976   2.943   3.744  13.166  0.0794 -0.6755  0.2418
 7854TIP3    H144977   2.908   3.757  13.078  3.1817  1.5520 -0.8617
 7854TIP3    H244978   3.038   3.739  13.153  0.6185 -0.6486  3.4308
 7855TIP3   OH244979   4.599   2.893   2.737  1.0535 -0.5833  0.2648
 7855TIP3    H144980   4.593   2.988   2.751 -1.0989 -0.5753 -0.3088
 7855TIP3    H244981   4.602   2.883   2.642 -1.6774 -1.1002  0.1391
 7856TIP3   OH244982   3.793   0.669  13.705  0.0924 -0.2660  0.6277
 7856TIP3    H144983   3.825   0.675  13.795  0.0829  2.0323  0.5580
 7856TIP3    H244984   3.786   0.761  13.677  1.5661 -0.9262 -2.2367
 7857TIP3   OH244985   4.704   1.769   5.059 -0.3428 -0.0290 -0.7184
 7857TIP3    H144986   4.672   1.738   4.974 -2.7200 -0.3429  0.2374
 7857TIP3    H244987   4.703   1.692   5.115 -1.1199  0.6531  0.2315
 7858TIP3   OH244988   5.236   2.372   6.165 -0.3905  0.3380  0.2220
 7858TIP3    H144989   5.323   2.403   6.191 -0.2121  0.1310 -0.1271
 7858TIP3    H244990   5.181   2.389   6.242  0.2057 -0.5753  0.8812
 7859TIP3   OH244991   2.513   1.811  16.695  0.2273  0.9642 -0.2997
 7859TIP3    H144992   2.486   1.895  16.733 -3.0087  0.9729 -2.2149
 7859TIP3    H244993   2.459   1.746  16.741  1.0345  0.1851 -0.4248
 7860TIP3   OH244994   0.697   1.855  15.173 -0.5171 -0.6236 -0.7500
 7860TIP3    H144995   0.765   1.813  15.120  0.2044 -1.1398  0.5403
 7860TIP3    H244996   0.625   1.870  15.112 -0.6247 -3.2731 -1.4174
 7861TIP3   OH244997   0.358   2.333  11.683  0.7690  0.0848 -0.6982
 7861TIP3    H144998   0.289   2.287  11.636 -0.4384 -0.5416  1.5447
 7861TIP3    H244999   0.356   2.422  11.648 -0.6520 -0.1367 -1.2338
 7862TIP3   OH245000   1.518   3.282  16.459 -0.3888 -0.0614  0.0989
 7862TIP3    H145001   1.607   3.264  16.428 -0.2757 -0.1264  0.4504
 7862TIP3    H245002   1.486   3.352  16.402 -0.5099 -0.7601 -0.7040
 7863TIP3   OH245003   4.482   1.945  14.528 -0.1312  0.4232  0.4639
 7863TIP3    H145004   4.395   1.960  14.563 -0.0592 -0.7229  1.1934
 7863TIP3    H245005   4.534   1.917  14.604  0.8825  1.1458  0.0556
 7864TIP3   OH245006   4.577   0.024  13.592  0.5842 -0.5376  0.7868
 7864TIP3    H145007   4.626   0.100  13.623  1.1276  0.2416 -1.7226
 7864TIP3    H245008   4.645  -0.037  13.562  0.0855 -0.7258  0.0257
 7865TIP3   OH245009   5.074   5.238   1.285 -0.1911  0.0754 -0.5952
 7865TIP3    H145010   5.059   5.147   1.261 -1.7726 -0.2876  1.5505
 7865TIP3    H245011   4.994   5.283   1.258 -1.6606 -0.1906  2.8940
 7866TIP3   OH245012   5.712   2.720   5.028  0.2767 -0.0614  0.8190
 7866TIP3    H145013   5.643   2.665   5.066 -0.5073 -0.0300 -0.4935
 7866TIP3    H245014   5.744   2.773   5.101 -1.6930  0.5362  1.3051
 7867TIP3   OH245015   4.572   3.415   2.300 -0.3961 -0.1023  0.3887
 7867TIP3    H145016   4.485   3.418   2.340 -0.4595 -3.6371  0.8763
 7867TIP3    H245017   4.577   3.493   2.245 -3.7911  0.3223  0.5057
 7868TIP3   OH245018   1.084   5.158   5.479 -0.4799  0.0578  0.2498
 7868TIP3    H145019   1.084   5.213   5.401 -0.0713 -0.9667 -0.5058
 7868TIP3    H245020   1.034   5.080   5.452  0.0971 -0.5273  0.8488
 7869TIP3   OH245021   1.828   5.403  14.229  0.4926 -0.3139  0.1000
 7869TIP3    H145022   1.873   5.369  14.151 -1.2248 -0.0765 -1.0351
 7869TIP3    H245023   1.895   5.400  14.298  2.3554  0.3990 -1.5922
 7870TIP3   OH245024   6.159   4.442  10.553  0.0355  0.0174  0.6997
 7870TIP3    H145025   6.196   4.529  10.542  1.7179 -0.9405 -2.5001
 7870TIP3    H245026   6.079   4.443  10.501  0.9347 -0.7646 -0.7483
 7871TIP3   OH245027   2.269   1.020  16.148  0.1831  0.2575  0.0693
 7871TIP3    H145028   2.178   1.047  16.135  0.3133  0.6863  0.0194
 7871TIP3    H245029   2.320   1.095  16.118  0.5524  0.0200  0.1040
 7872TIP3   OH245030   5.593   4.046   5.509 -0.2151 -0.1651 -0.3452
 7872TIP3    H145031   5.647   4.104   5.456 -0.9169 -0.5036 -1.4430
 7872TIP3    H245032   5.570   3.974   5.451 -1.8479 -0.0388  0.1019
 7873TIP3   OH245033   4.016   6.755  14.733 -0.5296  0.8231 -0.2783
 7873TIP3    H145034   3.979   6.672  14.704 -0.9499  1.5416 -1.9209
 7873TIP3    H245035   4.026   6.806  14.653  2.1914  1.4166  0.3433
 7874TIP3   OH245036   2.656   3.737  15.115 -0.0902 -0.4017  0.2409
 7874TIP3    H145037   2.700   3.653  15.129  1.4502  0.2945 -0.2520
 7874TIP3    H245038   2.690   3.794  15.184  4.4002  1.8351 -3.3130
 7875TIP3   OH245039   0.699   6.083  17.052 -0.0425  0.3710 -0.5892
 7875TIP3    H145040   0.778   6.056  17.099 -0.0151  0.5665 -0.5219
 7875TIP3    H245041   0.689   6.018  16.983  0.0366  0.2022 -0.4440
 7876TIP3   OH245042   2.080   4.198   1.884 -0.4551  0.2758 -0.0263
 7876TIP3    H145043   2.148   4.250   1.841  0.1153 -0.0522  0.4657
 7876TIP3    H245044   2.110   4.189   1.974 -0.2526 -1.3525 -0.2194
 7877TIP3   OH245045   5.289   5.147   4.416  0.1107  0.1271 -0.8071
 7877TIP3    H145046   5.341   5.218   4.453 -1.2901  0.6530  0.2256
 7877TIP3    H245047   5.330   5.129   4.331  3.3977 -1.0705  0.8644
 7878TIP3   OH245048   0.905   1.177   2.372  0.0217 -0.0703  0.2203
 7878TIP3    H145049   0.906   1.262   2.328  1.0506 -0.1897  0.0045
 7878TIP3    H245050   0.995   1.163   2.400 -0.6193  0.1283  2.6347
 7879TIP3   OH245051   2.298   3.984  11.762  0.2636 -0.1416  0.1077
 7879TIP3    H145052   2.330   3.902  11.725  0.9076  0.0329  0.2705
 7879TIP3    H245053   2.367   4.047  11.745 -0.5534  0.5566 -0.6873
 7880TIP3   OH245054   3.312   3.104  14.996  0.1122 -0.5488 -0.0587
 7880TIP3    H145055   3.368   3.142  15.064 -1.0089 -1.2987  1.3534
 7880TIP3    H245056   3.370   3.052  14.942  1.1051  0.4062  0.0623
 7881TIP3   OH245057   4.488   4.289   2.556  0.1487  0.4702  0.4877
 7881TIP3    H145058   4.420   4.319   2.615  1.5588  2.0918  1.3912
 7881TIP3    H245059   4.519   4.369   2.512  0.2772 -0.4645 -1.2261
 7882TIP3   OH245060   0.716   6.006   0.843  0.2548  0.1932 -0.6113
 7882TIP3    H145061   0.709   6.077   0.778  1.0046 -0.4863 -1.4546
 7882TIP3    H245062   0.802   5.967   0.827  0.5558  0.1323  0.9446
 7883TIP3   OH245063   5.934   4.509   3.240  0.4561  0.0239  0.1773
 7883TIP3    H145064   5.944   4.588   3.187 -0.0218  0.4859  0.7594
 7883TIP3    H245065   5.939   4.437   3.177 -0.6147  0.5790 -0.5670
 7884TIP3   OH245066   5.964   1.518  14.233 -0.1237  0.4495 -0.4131
 7884TIP3    H145067   5.882   1.486  14.195 -0.2442  1.2070 -0.8227
 7884TIP3    H245068   6.032   1.487  14.174  0.0634 -1.4558  0.7170
 7885TIP3   OH245069   4.087   5.875   6.044 -0.4822 -0.1233  0.0416
 7885TIP3    H145070   4.060   5.787   6.070  1.2361 -0.4550  0.8384
 7885TIP3    H245071   4.005   5.924   6.039 -1.5412 -1.8823 -0.9794
 7886TIP3   OH245072   1.798   6.495  16.030 -0.6672 -0.1466 -0.1050
 7886TIP3    H145073   1.721   6.471  16.082 -0.8908  1.2417  0.2558
 7886TIP3    H245074   1.830   6.575  16.071  1.8590 -1.4317  0.6692
 7887TIP3   OH245075   2.586   1.481   2.689 -0.3919 -0.2715 -0.3040
 7887TIP3    H145076   2.528   1.501   2.615 -0.6020 -1.8244 -0.6069
 7887TIP3    H245077   2.671   1.465   2.649 -0.2807 -0.1814 -0.1045
 7888TIP3   OH245078   6.619   4.497  11.390 -0.5829 -0.3404 -0.4464
 7888TIP3    H145079   6.548   4.559  11.377 -1.2006 -0.6845  1.0665
 7888TIP3    H245080   6.579   4.424  11.437  0.5081 -1.0790 -0.6313
 7889TIP3   OH245081   1.771   3.277   0.547 -0.1250 -0.0357  0.0790
 7889TIP3    H145082   1.800   3.311   0.463  0.0074 -0.7107 -0.1523
 7889TIP3    H245083   1.824   3.199   0.561 -2.6949 -2.1339 -1.0284
 7890TIP3   OH245084   0.918   0.758   4.685  0.1980  0.0877 -0.6369
 7890TIP3    H145085   0.896   0.819   4.615  1.5208  2.5327  0.9198
 7890TIP3    H245086   0.834   0.725   4.716 -0.5450  0.8731 -1.7584
 7891TIP3   OH245087   2.189   6.500  14.686 -0.2346 -0.0448  0.2992
 7891TIP3    H145088   2.138   6.419  14.674 -0.3056 -0.1452  1.1988
 7891TIP3    H245089   2.174   6.549  14.605 -1.6950 -0.1225  0.4881
 7892TIP3   OH245090   2.217   0.823   3.798  0.4575 -0.3201  0.6801
 7892TIP3    H145091   2.134   0.867   3.778  1.1067  1.0272  0.7723
 7892TIP3    H245092   2.263   0.820   3.715  0.6417 -0.3364  0.7824
 7893TIP3   OH245093   3.093   3.644  17.075  0.2321  0.3267  0.5072
 7893TIP3    H145094   3.047   3.695  17.008 -0.6892 -0.6928  0.3393
 7893TIP3    H245095   3.165   3.701  17.103 -0.9124  1.8474  0.5208
 7894TIP3   OH245096   3.385   1.195   5.884  0.1361 -0.3130 -0.1382
 7894TIP3    H145097   3.417   1.286   5.884 -0.6138 -0.0405 -0.9686
 7894TIP3    H245098   3.461   1.143   5.859  0.1353  0.2608 -1.3932
 7895TIP3   OH245099   0.096   5.194  12.501 -0.0065  0.0396 -0.4310
 7895TIP3    H145100   0.006   5.175  12.529 -0.6651  0.7664 -1.9256
 7895TIP3    H245101   0.086   5.249  12.423  1.7418 -0.0539 -0.7688
 7896TIP3   OH245102   5.436   5.247  13.465  0.3739  0.5738 -0.6686
 7896TIP3    H145103   5.359   5.195  13.438 -0.1038 -0.0403  1.6686
 7896TIP3    H245104   5.399   5.327  13.501  0.7452  0.0708  0.9201
 7897TIP3   OH245105   0.354   6.736   3.585  0.3971 -0.1598  0.1015
 7897TIP3    H145106   0.300   6.659   3.564  1.2798 -0.9013  0.4507
 7897TIP3    H245107   0.307   6.810   3.548 -0.5090 -0.8705 -0.1922
 7898TIP3   OH245108   2.587   4.471  13.276  0.1836 -0.1028 -0.2565
 7898TIP3    H145109   2.505   4.519  13.276  0.3422  0.2342 -2.0382
 7898TIP3    H245110   2.650   4.529  13.234  0.2569 -1.9495 -2.9920
 7899TIP3   OH245111   1.065   3.189  11.316  0.3355  0.1762  0.2963
 7899TIP3    H145112   1.056   3.163  11.225  0.1386 -1.1071  0.6681
 7899TIP3    H245113   0.988   3.245  11.333 -0.8794 -1.4339  0.2884
 7900TIP3   OH245114   5.708   2.121   4.576  0.1823  0.1546  0.0429
 7900TIP3    H145115   5.625   2.163   4.597  0.6099  1.4785 -0.8074
 7900TIP3    H245116   5.764   2.192   4.546  1.2694 -0.8797 -0.4599
 7901TIP3   OH245117   2.235   6.714  16.001  0.1033 -0.0429 -0.4201
 7901TIP3    H145118   2.205   6.727  15.911  0.1018  0.1011 -0.3989
 7901TIP3    H245119   2.232   6.620  16.014  0.6058 -0.1086 -0.7456
 7902TIP3   OH245120   0.564   3.349   2.739 -0.8429  0.8968 -0.5164
 7902TIP3    H145121   0.642   3.352   2.683 -0.3983  0.1220  0.0423
 7902TIP3    H245122   0.586   3.402   2.815 -1.0654  1.1163 -0.6031
 7903TIP3   OH245123   3.083   2.030  13.979  0.8076  0.2918  0.2203
 7903TIP3    H145124   3.055   2.076  13.899  0.9626  1.2025  0.6757
 7903TIP3    H245125   3.076   1.937  13.957 -0.9794  0.4914 -0.2196
 7904TIP3   OH245126   1.171   3.180   0.109 -0.1859  0.5146 -0.5302
 7904TIP3    H145127   1.185   3.141   0.022  1.8313 -0.3371  0.1225
 7904TIP3    H245128   1.152   3.105   0.166  0.6335  0.8100  0.1496
 7905TIP3   OH245129   0.212   2.472  14.672  0.0816  0.3457 -1.0284
 7905TIP3    H145130   0.240   2.559  14.645  2.3678 -0.0777 -0.2632
 7905TIP3    H245131   0.267   2.412  14.620 -1.1316 -0.6375 -1.2207
 7906TIP3   OH245132   5.060   6.399  13.031 -0.1947  0.4369  0.7398
 7906TIP3    H145133   4.997   6.466  13.060  0.0449  0.9980 -0.0218
 7906TIP3    H245134   5.025   6.367  12.948  0.3235  0.4691  0.5063
 7907TIP3   OH245135   4.625   6.691   2.258  0.5998  0.0042  0.4772
 7907TIP3    H145136   4.692   6.748   2.220 -0.0097 -0.2191 -0.9829
 7907TIP3    H245137   4.670   6.609   2.276  0.3420 -0.8592 -2.3914
 7908TIP3   OH245138   5.163   1.713   1.410  0.4727 -0.2081  0.0102
 7908TIP3    H145139   5.181   1.688   1.500  1.4172 -0.3003 -0.1935
 7908TIP3    H245140   5.111   1.793   1.417 -0.6760 -0.9855  0.6414
 7909TIP3   OH245141   1.718   4.675  12.591 -0.3461 -0.3240 -0.0301
 7909TIP3    H145142   1.637   4.725  12.594  0.3723  0.8927 -0.4240
 7909TIP3    H245143   1.695   4.591  12.631 -1.3379  0.6382  1.5551
 7910TIP3   OH245144   5.756   4.074  12.344 -0.5266 -0.6187 -0.1175
 7910TIP3    H145145   5.827   4.047  12.286  0.0843  1.0141 -0.1984
 7910TIP3    H245146   5.686   4.104  12.285 -1.0731 -1.6643 -0.0284
 7911TIP3   OH245147   4.992   2.737   3.750  0.0428 -0.0425 -0.2246
 7911TIP3    H145148   4.964   2.650   3.722  0.3149  0.2808 -1.5946
 7911TIP3    H245149   5.067   2.722   3.807  0.5252 -0.6977 -1.0086
 7912TIP3   OH245150   1.795   3.100  12.667 -0.0431  0.3611 -1.2459
 7912TIP3    H145151   1.755   3.182  12.697 -0.2561 -0.0917 -0.2544
 7912TIP3    H245152   1.855   3.075  12.738  1.7285  0.8084 -2.5093
 7913TIP3   OH245153   1.282   6.649   6.992  0.8888  0.3351  0.1273
 7913TIP3    H145154   1.211   6.682   6.937 -0.2658 -0.0521  1.3069
 7913TIP3    H245155   1.324   6.727   7.027 -1.6174  0.7032  2.6480
 7914TIP3   OH245156   5.137   1.656  11.179 -0.0245 -0.2643  0.2676
 7914TIP3    H145157   5.132   1.725  11.245 -0.6201  0.2794 -0.3419
 7914TIP3    H245158   5.185   1.585  11.223 -1.0387 -0.2024  1.5462
 7915TIP3   OH245159   4.952   6.262  12.355 -0.1537  0.6306  0.4519
 7915TIP3    H145160   4.965   6.331  12.290  0.3952  0.3340  0.2394
 7915TIP3    H245161   4.865   6.227  12.336  0.3443 -0.0419 -0.7017
 7916TIP3   OH245162   2.086   1.351  13.945 -0.1514 -0.5918  0.4640
 7916TIP3    H145163   2.108   1.289  13.874 -0.0340  0.5564 -0.5324
 7916TIP3    H245164   2.171   1.375  13.982 -0.1882 -0.9064  0.7602
 7917TIP3   OH245165   3.666   1.554  12.116 -0.3903 -0.2546 -0.3488
 7917TIP3    H145166   3.636   1.464  12.126 -1.8882 -0.2965 -3.8089
 7917TIP3    H245167   3.589   1.607  12.135  0.2619  0.2903  0.8671
 7918TIP3   OH245168   1.540   2.349   2.520 -0.0854  0.1245  0.0766
 7918TIP3    H145169   1.448   2.347   2.493  0.3822  0.8078 -1.7482
 7918TIP3    H245170   1.570   2.258   2.511 -0.8161 -0.3380  1.7831
 7919TIP3   OH245171   1.870   5.269  17.033  0.0319 -0.6365 -0.0866
 7919TIP3    H145172   1.951   5.287  17.081  1.4667  0.3665 -2.6935
 7919TIP3    H245173   1.832   5.355  17.019 -0.6883 -0.9753 -0.2271
 7920TIP3   OH245174   4.169   4.171   2.559 -0.5436 -0.6493 -0.4609
 7920TIP3    H145175   4.204   4.260   2.564 -1.2358 -0.4357  0.8744
 7920TIP3    H245176   4.225   4.119   2.617 -0.7648 -0.8727 -0.4442
 7921TIP3   OH245177   6.283   2.878  13.328  0.4075 -0.4044  0.1192
 7921TIP3    H145178   6.318   2.901  13.414  0.5561 -1.1650  0.2680
 7921TIP3    H245179   6.325   2.939  13.268 -1.5890  1.8380  0.8594
 7922TIP3   OH245180   5.716   0.126   4.752 -1.1503 -0.4788 -0.1709
 7922TIP3    H145181   5.795   0.141   4.804  0.5326 -0.4528 -2.5709
 7922TIP3    H245182   5.684   0.041   4.781  1.0443 -1.5350 -0.5565
 7923TIP3   OH245183   0.051   6.670  11.514  0.2207 -0.3073  0.0669
 7923TIP3    H145184  -0.038   6.705  11.506  0.3509 -0.0055 -0.0943
 7923TIP3    H245185   0.070   6.631  11.429  1.0834  1.6639 -0.7240
 7924TIP3   OH245186   5.679   0.534  13.025 -0.1519 -0.3330  0.2849
 7924TIP3    H145187   5.696   0.487  12.944  1.8817  0.4347  0.2135
 7924TIP3    H245188   5.758   0.523  13.077 -1.2893 -0.5381  2.0678
 7925TIP3   OH245189   5.882   4.797   4.647 -0.2446  0.8542  0.3461
 7925TIP3    H145190   5.832   4.716   4.658 -0.0868  1.0302  2.8891
 7925TIP3    H245191   5.820   4.867   4.665 -0.0169  1.2546 -0.3792
 7926TIP3   OH245192   3.202   6.585   3.027 -0.2315  0.1588  0.5468
 7926TIP3    H145193   3.216   6.675   3.057  0.3168  1.2821 -2.6711
 7926TIP3    H245194   3.116   6.586   2.986  0.3050 -0.4008 -0.6501
 7927TIP3   OH245195   0.352   3.067  11.946  0.0764 -0.2749  0.1774
 7927TIP3    H145196   0.298   3.099  11.873  0.0836 -0.9062 -0.1088
 7927TIP3    H245197   0.392   2.987  11.912  2.5173  1.0293 -0.2255
 7928TIP3   OH245198   6.679   5.576   1.722  0.2365  0.2006 -0.1260
 7928TIP3    H145199   6.761   5.533   1.746 -0.8019 -0.5570  2.4071
 7928TIP3    H245200   6.629   5.579   1.803 -1.2486  2.9497 -1.0117
 7929TIP3   OH245201   3.842   2.900  13.857 -0.2425 -0.7939  0.1071
 7929TIP3    H145202   3.886   2.899  13.942  1.1013 -0.7750 -0.5700
 7929TIP3    H245203   3.835   2.808  13.831 -3.2276 -1.0743  1.4715
 7930TIP3   OH245204   1.450   6.084   2.794  0.0261  0.1339 -0.0072
 7930TIP3    H145205   1.487   6.168   2.768  0.2449  0.0623  0.0729
 7930TIP3    H245206   1.506   6.019   2.751  0.7859 -0.0029  1.1407
 7931TIP3   OH245207   0.037   2.761   5.894  0.0125  0.1407  0.2607
 7931TIP3    H145208   0.033   2.751   5.799 -0.2097  2.9281 -0.0961
 7931TIP3    H245209   0.130   2.761   5.915  0.0476 -1.3176  0.1933
 7932TIP3   OH245210   3.154   6.536   5.174 -0.0030 -0.4325 -0.1651
 7932TIP3    H145211   3.167   6.530   5.269 -0.8507 -1.6040 -0.1074
 7932TIP3    H245212   3.071   6.491   5.158  0.0534 -0.1191 -1.4550
 7933TIP3   OH245213   3.708   0.657  14.685 -0.1282  0.1713 -0.1022
 7933TIP3    H145214   3.803   0.651  14.694 -0.1887 -1.8685 -0.3518
 7933TIP3    H245215   3.693   0.747  14.654  1.7917  0.2399 -0.9998
 7934TIP3   OH245216   1.427   1.910   3.808  0.3340  0.2864 -0.9166
 7934TIP3    H145217   1.340   1.948   3.816 -1.5155 -2.6612 -4.3188
 7934TIP3    H245218   1.476   1.972   3.754 -1.0329  0.1323 -2.3837
 7935TIP3   OH245219   0.351   5.937   0.953  0.0272 -0.6740  0.7558
 7935TIP3    H145220   0.354   6.013   1.012 -0.4380  1.1089 -1.3955
 7935TIP3    H245221   0.418   5.878   0.988 -0.6698 -0.0339  3.4274
 7936TIP3   OH245222   4.980   0.394  15.907  0.2037  0.5448 -0.2278
 7936TIP3    H145223   4.900   0.413  15.955  0.5819  0.8320  0.2980
 7936TIP3    H245224   5.018   0.318  15.951  0.6574  0.9350  0.0667
 7937TIP3   OH245225   2.340   3.104   0.594  0.2823  0.1268 -0.0324
 7937TIP3    H145226   2.298   3.105   0.508  0.3670  1.1796 -0.0704
 7937TIP3    H245227   2.285   3.158   0.649  0.0325 -0.8387  0.6918
 7938TIP3   OH245228   4.621   2.954   4.337 -0.5041 -0.4981 -0.2439
 7938TIP3    H145229   4.587   2.875   4.294 -0.2428  0.9335 -3.3793
 7938TIP3    H245230   4.544   3.011   4.347 -0.0491  0.5883 -2.3118
 7939TIP3   OH245231   3.919   5.148  14.566  0.1298 -0.2658  0.4148
 7939TIP3    H145232   3.964   5.224  14.529  0.4013  0.7272  2.6326
 7939TIP3    H245233   3.869   5.111  14.493  1.8541  0.6107 -1.2923
 7940TIP3   OH245234   2.640   2.589   5.507  0.2820 -0.0170  0.5230
 7940TIP3    H145235   2.636   2.594   5.411 -0.8764 -1.5185  0.4699
 7940TIP3    H245236   2.713   2.530   5.524  0.2534 -0.0411  0.5596
 7941TIP3   OH245237   5.667   3.056  11.197 -0.1409  0.4832 -0.5743
 7941TIP3    H145238   5.660   2.961  11.203  2.3855  0.0812 -2.0759
 7941TIP3    H245239   5.589   3.083  11.149 -1.4141 -0.6630  0.7604
 7942TIP3   OH245240   4.935   4.317   6.435 -0.5889  0.1449 -0.4172
 7942TIP3    H145241   4.995   4.327   6.360  1.2293  0.2408  0.9753
 7942TIP3    H245242   4.968   4.241   6.482 -0.9155  0.8251  0.9596
 7943TIP3   OH245243   5.290   1.836  12.693 -0.4744  0.2221 -0.0142
 7943TIP3    H145244   5.342   1.907  12.655 -1.2161  0.5520 -0.4486
 7943TIP3    H245245   5.242   1.799  12.619 -0.4316 -0.4427  0.2871
 7944TIP3   OH245246   1.396   1.329  12.721  0.4161  0.3409 -0.4007
 7944TIP3    H145247   1.486   1.322  12.690  0.5263 -0.2931  0.0403
 7944TIP3    H245248   1.370   1.419  12.700  0.9021  0.3078 -1.1747
 7945TIP3   OH245249   3.258   4.542  15.830 -0.0039  0.6923 -0.0316
 7945TIP3    H145250   3.237   4.609  15.766  0.1295 -0.2871 -1.1302
 7945TIP3    H245251   3.278   4.464  15.778  0.1107 -0.1288  1.1969
 7946TIP3   OH245252   1.561   5.673  13.416 -0.5443  0.0530 -0.2820
 7946TIP3    H145253   1.517   5.632  13.490  0.9445  1.5212  1.5207
 7946TIP3    H245254   1.497   5.736  13.383 -1.4102 -0.9691 -0.6102
 7947TIP3   OH245255   3.579   4.259  12.873 -0.7244 -0.0089 -0.3375
 7947TIP3    H145256   3.544   4.221  12.954 -2.2014 -0.7706 -1.2891
 7947TIP3    H245257   3.541   4.346  12.869  1.5896  1.1657  1.1586
 7948TIP3   OH245258   3.435   3.246   1.350 -0.6132 -0.4071 -0.1119
 7948TIP3    H145259   3.530   3.257   1.360 -0.9469  1.4245  1.7912
 7948TIP3    H245260   3.414   3.171   1.405 -0.0988 -2.0262 -2.0086
 7949TIP3   OH245261   0.551   0.507   4.557  0.0688 -0.4918 -0.0586
 7949TIP3    H145262   0.567   0.540   4.645 -1.1548 -1.1913  0.4420
 7949TIP3    H245263   0.615   0.554   4.502 -0.7288  1.7347  0.8036
 7950TIP3   OH245264   5.849   3.997  16.234  0.7319 -0.7805 -0.1417
 7950TIP3    H145265   5.883   3.980  16.322  2.8767  0.8429 -0.5666
 7950TIP3    H245266   5.923   3.980  16.176 -0.0828 -0.0168 -1.4488
 7951TIP3   OH245267   4.861   6.527  14.981 -0.1907 -0.4794  0.2831
 7951TIP3    H145268   4.912   6.550  14.904  0.0730  2.3105  1.1637
 7951TIP3    H245269   4.920   6.473  15.034 -0.2083 -2.0135 -1.1777
 7952TIP3   OH245270   0.167   0.519  15.216 -0.2060  0.0728  0.0278
 7952TIP3    H145271   0.201   0.435  15.187 -1.1950 -0.6131  0.7732
 7952TIP3    H245272   0.087   0.532  15.166  0.0746  0.7101 -0.2750
 7953TIP3   OH245273   1.338   3.175  12.537 -0.2100 -0.0084 -0.0323
 7953TIP3    H145274   1.370   3.218  12.458  1.6294 -0.9674  0.1360
 7953TIP3    H245275   1.330   3.245  12.601  0.9137  0.3836 -0.3029
 7954TIP3   OH245276   5.889   0.993   4.767  0.4216  0.1927 -0.0292
 7954TIP3    H145277   5.907   1.074   4.720  1.0759 -0.4095 -0.8487
 7954TIP3    H245278   5.832   0.943   4.708  1.6600 -0.7851 -0.4356
 7955TIP3   OH245279   1.382   6.503  13.754 -0.1898 -0.1232 -0.9127
 7955TIP3    H145280   1.366   6.595  13.776 -0.2225 -0.2730 -0.2954
 7955TIP3    H245281   1.382   6.501  13.658  0.4242  0.6306 -0.9407
 7956TIP3   OH245282   2.912   0.918  14.930  0.1654  0.4602  0.7531
 7956TIP3    H145283   2.954   0.999  14.959  3.1086  0.2528 -2.3203
 7956TIP3    H245284   2.951   0.899  14.845 -2.5551 -2.6817 -0.0332
 7957TIP3   OH245285   6.572   3.621  16.759 -0.7120 -0.4770 -0.0992
 7957TIP3    H145286   6.575   3.526  16.769 -0.1299 -0.2597  2.3804
 7957TIP3    H245287   6.662   3.646  16.739 -1.1388 -0.5300 -2.2972
 7958TIP3   OH245288   4.981   5.138   5.030 -0.1841 -0.1780 -0.0389
 7958TIP3    H145289   5.009   5.054   4.993  0.4213 -0.6484  1.4064
 7958TIP3    H245290   5.020   5.204   4.973 -0.5360 -0.8693 -1.1021
 7959TIP3   OH245291   6.002   3.114   2.296  0.4957  0.1280  0.3357
 7959TIP3    H145292   5.975   3.108   2.205  1.3307  1.9688 -0.0763
 7959TIP3    H245293   5.945   3.182   2.333  1.2346  0.5347  0.7455
 7960TIP3   OH245294   1.807   5.191   1.463 -0.2061  0.4538  0.4394
 7960TIP3    H145295   1.821   5.281   1.494 -2.9588  1.5455 -1.0695
 7960TIP3    H245296   1.780   5.202   1.372 -1.7574 -1.8006  0.5636
 7961TIP3   OH245297   1.045   2.400   5.959 -0.0953 -0.4111 -0.2829
 7961TIP3    H145298   1.112   2.444   5.907  1.0192 -2.5766 -0.7983
 7961TIP3    H245299   1.060   2.307   5.944 -0.7050 -1.1121  2.7700
 7962TIP3   OH245300   2.919   2.286   6.099 -0.2826 -0.2782  0.2524
 7962TIP3    H145301   2.876   2.213   6.054 -0.3271  0.3091 -0.6985
 7962TIP3    H245302   2.847   2.340   6.131 -0.3046  0.5168 -1.0294
 7963TIP3   OH245303   1.996   5.931   4.913 -0.0732 -0.1510 -0.2876
 7963TIP3    H145304   2.028   5.843   4.934  2.5041  1.1497  1.8373
 7963TIP3    H245305   2.043   5.955   4.833  0.7646  0.0069  0.2403
 7964TIP3   OH245306   1.974   4.949   3.335  0.4858 -0.1607 -0.7273
 7964TIP3    H145307   1.998   5.005   3.409 -1.2594  0.4862 -0.6062
 7964TIP3    H245308   1.986   4.860   3.368 -1.4324  0.0813  0.8330
 7965TIP3   OH245309   5.184   0.947  12.422 -0.3181 -0.8368  0.3894
 7965TIP3    H145310   5.147   0.890  12.354  0.8046 -1.0152 -0.1017
 7965TIP3    H245311   5.279   0.939  12.410 -0.1183  1.4199  0.0837
 7966TIP3   OH245312   0.665   5.414   4.876  0.3159 -0.0100  0.2304
 7966TIP3    H145313   0.583   5.416   4.828 -0.5968  0.2718  1.7170
 7966TIP3    H245314   0.639   5.398   4.967  1.9782 -0.7688  0.6071
 7967TIP3   OH245315   2.051   1.757   1.129  0.1036 -0.4931 -0.0631
 7967TIP3    H145316   2.053   1.785   1.037  2.0129 -1.0748 -0.2424
 7967TIP3    H245317   1.963   1.778   1.158 -0.9422 -1.3376 -2.3593
 7968TIP3   OH245318   3.749   2.574  15.432 -0.4509 -0.1565 -0.2945
 7968TIP3    H145319   3.817   2.512  15.456 -0.2724 -0.3012 -1.1376
 7968TIP3    H245320   3.756   2.644  15.497 -0.3073 -0.7494  0.3477
 7969TIP3   OH245321   5.664   5.188   4.871 -0.3504 -0.2290 -0.2096
 7969TIP3    H145322   5.593   5.251   4.859 -0.5307 -0.3078  0.4050
 7969TIP3    H245323   5.733   5.217   4.812 -0.1428  0.9647  0.5966
 7970TIP3   OH245324   3.217   2.670  12.807 -0.2079  0.1670  0.3845
 7970TIP3    H145325   3.175   2.736  12.752 -0.7859 -0.2600  0.3056
 7970TIP3    H245326   3.255   2.719  12.879  0.6852  0.7509 -0.4603
 7971TIP3   OH245327   3.461   4.936   0.186  0.0937  0.5274  0.5832
 7971TIP3    H145328   3.533   4.893   0.139 -1.2793 -2.0311  0.6082
 7971TIP3    H245329   3.422   4.995   0.122  0.9200  0.3428 -0.1036
 7972TIP3   OH245330   1.198   3.152   1.496  0.3534  0.0612 -0.2233
 7972TIP3    H145331   1.245   3.123   1.418  0.3953  0.0774 -0.2041
 7972TIP3    H245332   1.164   3.071   1.534  1.3348 -0.0856  0.3906
 7973TIP3   OH245333   4.063   5.775  14.360 -0.3954 -0.0685 -0.8186
 7973TIP3    H145334   4.103   5.760  14.275  0.6705  0.3474 -0.4115
 7973TIP3    H245335   4.035   5.689  14.390 -1.7189 -0.0824 -2.0266
 7974TIP3   OH245336   6.534   3.403   1.941 -0.4304  0.6317  0.5531
 7974TIP3    H145337   6.561   3.467   2.007 -1.3640  0.4907  1.0884
 7974TIP3    H245338   6.478   3.342   1.989 -0.4519  0.0536 -0.2007
 7975TIP3   OH245339   6.115   6.236  12.884 -0.3150  0.0944  0.2247
 7975TIP3    H145340   6.151   6.275  12.805 -0.1324 -0.6845 -0.0904
 7975TIP3    H245341   6.084   6.310  12.936 -0.1784  0.6314 -0.4469
 7976TIP3   OH245342   3.860   3.775   0.324  0.0089  0.4465 -0.0043
 7976TIP3    H145343   3.880   3.864   0.353 -0.2343  0.5381 -0.1130
 7976TIP3    H245344   3.786   3.748   0.378  0.6691 -0.0425  0.6738
 7977TIP3   OH245345   4.695   5.973   0.367 -0.2388  0.1964 -0.3665
 7977TIP3    H145346   4.759   5.903   0.362 -0.8682 -0.4189  0.1008
 7977TIP3    H245347   4.700   6.017   0.282 -0.1938 -0.7249 -0.8419
 7978TIP3   OH245348   6.032   4.415   2.219  0.7267 -0.6963 -0.5442
 7978TIP3    H145349   5.979   4.480   2.173  0.7226  0.7343  1.3587
 7978TIP3    H245350   6.122   4.434   2.193  0.5385 -1.5843 -1.9244
 7979TIP3   OH245351   1.440   0.272   5.947  0.4566  0.7478 -0.0899
 7979TIP3    H145352   1.433   0.181   5.975 -1.6058  1.2495  1.1683
 7979TIP3    H245353   1.513   0.307   5.998  0.8483 -0.0103 -0.1119
 7980TIP3   OH245354   2.977   4.934   4.089  0.0748 -0.0301 -0.7135
 7980TIP3    H145355   3.056   4.932   4.035  0.8023  3.7278 -0.0766
 7980TIP3    H245356   2.951   5.026   4.089 -2.0982 -0.5162  2.2554
 7981TIP3   OH245357   5.479   6.033  14.323  0.6288 -0.5257  0.2622
 7981TIP3    H145358   5.430   6.046  14.404  0.8125  1.8330  0.0474
 7981TIP3    H245359   5.450   5.947  14.291 -0.1466 -1.0775  2.3042
 7982TIP3   OH245360   2.369   2.964   4.611  0.1114 -0.6055 -0.2249
 7982TIP3    H145361   2.283   3.003   4.595 -0.5694 -1.6311  0.8368
 7982TIP3    H245362   2.419   2.984   4.531 -1.6980 -1.6355 -1.6934
 7983TIP3   OH245363   2.385   4.599  12.295  0.0214 -0.7291 -0.1030
 7983TIP3    H145364   2.389   4.695  12.294  1.8284 -0.7784  0.1246
 7983TIP3    H245365   2.343   4.577  12.211  1.3030  0.2121 -1.0296
 7984TIP3   OH245366   5.126   3.899   1.504  0.1330 -0.2154 -0.0238
 7984TIP3    H145367   5.137   3.973   1.565  0.5627  0.1035 -0.4795
 7984TIP3    H245368   5.039   3.865   1.524  1.2848 -1.9167  2.7611
 7985TIP3   OH245369   3.241   1.622  17.111 -0.1663  0.2185  0.7766
 7985TIP3    H145370   3.198   1.546  17.072 -2.6258  0.5364  2.5734
 7985TIP3    H245371   3.200   1.629  17.198 -0.5885  3.9920  0.4112
 7986TIP3   OH245372   2.040   0.259  11.059  0.6550 -0.0200  0.5625
 7986TIP3    H145373   2.114   0.285  11.114  0.6853  0.7280  0.1827
 7986TIP3    H245374   2.061   0.294  10.973  1.7362 -3.1021 -0.5883
 7987TIP3   OH245375   6.353   3.794  14.302 -0.1195 -0.7542  0.1981
 7987TIP3    H145376   6.265   3.794  14.339 -1.7071 -1.8055 -3.1956
 7987TIP3    H245377   6.350   3.731  14.231  2.5786  1.1212 -1.8035
 7988TIP3   OH245378   5.052   4.677  15.039 -0.3427  0.2864 -0.1380
 7988TIP3    H145379   5.111   4.601  15.042  0.0385  0.5942  0.3722
 7988TIP3    H245380   5.095   4.743  15.094 -1.2879  0.4365  0.4330
 7989TIP3   OH245381   5.519   6.573  13.060 -0.0476 -0.0496  0.1636
 7989TIP3    H145382   5.444   6.523  13.031  0.3390 -1.0863  0.8950
 7989TIP3    H245383   5.486   6.662  13.074 -0.7461 -0.0949 -1.1108
 7990TIP3   OH245384   1.202   6.278   2.476  0.1621 -0.0554  0.2330
 7990TIP3    H145385   1.140   6.270   2.403 -1.7394 -0.0104  1.7611
 7990TIP3    H245386   1.285   6.248   2.440 -0.6221  0.2805 -2.0440
 7991TIP3   OH245387   3.118   4.611   6.045 -0.2077  0.5180 -0.6330
 7991TIP3    H145388   3.031   4.593   6.081 -0.0230 -2.9295 -1.4744
 7991TIP3    H245389   3.170   4.640   6.120 -1.5956  0.7053  0.2950
 7992TIP3   OH245390   4.579   1.754  13.162  0.8252  0.1675 -0.2950
 7992TIP3    H145391   4.622   1.741  13.247  0.2963 -0.9114 -0.1646
 7992TIP3    H245392   4.649   1.782  13.104  1.3951 -0.0164  0.2836
 7993TIP3   OH245393   6.749   0.842  14.544  0.0753 -0.1033  0.0831
 7993TIP3    H145394   6.702   0.846  14.461 -1.8178 -1.3696  1.0137
 7993TIP3    H245395   6.759   0.748  14.561  1.1663  0.1375  0.9185
 7994TIP3   OH245396   2.380   4.442   0.073 -0.2600 -0.2403  0.7052
 7994TIP3    H145397   2.454   4.481   0.027  1.6307 -2.8630  1.3241
 7994TIP3    H245398   2.310   4.440   0.008  1.0274 -0.0874 -0.7344
 7995TIP3   OH245399   2.922   6.000  16.254  0.7698 -0.1664 -0.1034
 7995TIP3    H145400   2.954   6.038  16.336  1.1490 -0.2624 -0.2023
 7995TIP3    H245401   2.957   5.911  16.253 -0.9548 -0.8831  0.6085
 7996TIP3   OH245402   0.441   0.197   1.492 -0.4895 -0.5111 -0.1776
 7996TIP3    H145403   0.394   0.137   1.434  0.4413 -0.6728 -0.7913
 7996TIP3    H245404   0.532   0.190   1.465 -0.1673  0.1354  0.6823
 7997TIP3   OH245405   2.822   5.819   0.870 -0.4649 -0.2116  0.6688
 7997TIP3    H145406   2.812   5.724   0.874 -1.2041 -0.1040  1.9149
 7997TIP3    H245407   2.913   5.832   0.845 -0.8005 -1.2311 -1.2125
 7998TIP3   OH245408   2.886   3.092   5.013 -0.0664 -0.0642 -0.5052
 7998TIP3    H145409   2.966   3.062   5.056 -1.6479  0.5846  3.3199
 7998TIP3    H245410   2.823   3.021   5.028 -0.9658  0.6445 -0.8747
 7999TIP3   OH245411   0.609   2.793   5.857 -0.3770 -0.0154  0.3549
 7999TIP3    H145412   0.612   2.716   5.914 -0.0416 -1.0716 -1.0461
 7999TIP3    H245413   0.687   2.844   5.881 -1.6094  0.9557  2.6572
 8000TIP3   OH245414   3.811   2.803   3.509  0.0841  0.5337  0.3664
 8000TIP3    H145415   3.764   2.808   3.592  0.8552 -0.1122  0.8560
 8000TIP3    H245416   3.903   2.817   3.532  0.4987 -1.0998 -0.1673
 8001TIP3   OH245417   6.686   1.725   2.968  0.3669 -0.2046  0.6700
 8001TIP3    H145418   6.752   1.699   3.033  2.1322 -1.5240 -1.5281
 8001TIP3    H245419   6.706   1.673   2.891 -2.5904  0.2085 -0.4971
 8002TIP3   OH245420   0.115   3.578  10.208  0.4738 -0.5881  0.3496
 8002TIP3    H145421   0.125   3.539  10.295  1.4200 -1.2345 -0.0341
 8002TIP3    H245422   0.167   3.522  10.150 -2.9108 -2.3846 -1.2967
 8003TIP3   OH245423   3.002   4.348  14.825 -0.7010 -0.5585  0.5421
 8003TIP3    H145424   2.965   4.297  14.897 -2.3099  0.7995  0.7488
 8003TIP3    H245425   3.069   4.403  14.866 -0.3318 -1.0874  0.6571
 8004TIP3   OH245426   1.884   1.793   0.075 -0.3950 -0.1615 -0.3168
 8004TIP3    H145427   1.944   1.755   0.011 -0.2159  2.6733 -1.9787
 8004TIP3    H245428   1.798   1.759   0.050  0.1232 -2.3602  0.6205
 8005TIP3   OH245429   0.663   5.094   2.419  0.1092 -0.2397  0.2206
 8005TIP3    H145430   0.598   5.097   2.348 -1.3235  1.1316  1.5452
 8005TIP3    H245431   0.729   5.031   2.387 -0.4226  0.3902 -2.3520
 8006TIP3   OH245432   2.225   2.782   5.132 -0.1236  0.3089  0.2960
 8006TIP3    H145433   2.304   2.833   5.113  0.2105 -0.2731  0.0936
 8006TIP3    H245434   2.160   2.813   5.069  0.3624 -0.1702 -0.4511
 8007TIP3   OH245435   1.380   0.020   1.853  0.2026  0.2656  0.2757
 8007TIP3    H145436   1.324   0.009   1.930 -0.2073 -0.3995 -0.1095
 8007TIP3    H245437   1.466   0.043   1.889  0.1801 -0.6876  0.9713
 8008TIP3   OH245438   0.843   6.765   6.615 -0.0767  0.1321 -0.5116
 8008TIP3    H145439   0.857   6.670   6.611 -0.8856  0.0052 -0.5287
 8008TIP3    H245440   0.748   6.775   6.610 -0.0282  0.9199  0.0738
 8009TIP3   OH245441   4.738   0.806  13.157 -0.1497  0.0369 -0.1044
 8009TIP3    H145442   4.662   0.748  13.163  0.8155 -1.1638  1.4876
 8009TIP3    H245443   4.776   0.787  13.071 -1.1700  0.0484 -0.5726
 8010TIP3   OH245444   5.349   0.868  13.194 -0.5302  0.3327 -0.1433
 8010TIP3    H145445   5.444   0.877  13.191 -0.7406  3.0712 -1.1742
 8010TIP3    H245446   5.330   0.795  13.135  0.8013  1.3942 -1.9629
 8011TIP3   OH245447   3.934   6.787   2.189  0.0188  0.3747 -0.2952
 8011TIP3    H145448   4.008   6.788   2.250 -0.1724 -0.7500 -0.0158
 8011TIP3    H245449   3.975   6.777   2.103  0.3122  2.3656 -0.4342
 8012TIP3   OH245450   5.700   1.100   3.288  0.1551 -0.0239 -0.3637
 8012TIP3    H145451   5.609   1.093   3.316  0.3738 -0.1600  0.3348
 8012TIP3    H245452   5.697   1.087   3.193 -0.7439  1.6662 -0.6033
 8013TIP3   OH245453   4.107   1.712  15.932 -0.4220 -0.5287 -0.0583
 8013TIP3    H145454   4.182   1.653  15.927 -0.0358 -0.1662  1.2298
 8013TIP3    H245455   4.093   1.726  16.026 -1.9996 -0.4600 -0.2705
 8014TIP3   OH245456   1.781   6.358  11.463  0.6619 -0.3387 -0.4276
 8014TIP3    H145457   1.824   6.442  11.480 -0.8203  0.4769 -0.5653
 8014TIP3    H245458   1.716   6.378  11.396 -1.2938 -1.0629  1.1556
 8015TIP3   OH245459   1.227   4.138   1.991  0.7865 -0.1434  0.2278
 8015TIP3    H145460   1.180   4.169   1.914  0.5805  1.9433  1.1173
 8015TIP3    H245461   1.260   4.051   1.966 -0.0866  0.0597 -1.8351
 8016TIP3   OH245462   5.444   0.413   2.395  0.1121  0.0626 -0.2336
 8016TIP3    H145463   5.421   0.505   2.407  1.2289  0.1247  1.8999
 8016TIP3    H245464   5.420   0.371   2.478  0.8134 -1.3083 -0.6838
 8017TIP3   OH245465   0.133   0.475   5.378  0.5469 -1.1103  0.0274
 8017TIP3    H145466   0.053   0.518   5.408  0.0823 -2.3064  0.5621
 8017TIP3    H245467   0.181   0.453   5.458  1.1320 -0.9295 -0.2633
 8018TIP3   OH245468   4.514   1.513  10.582  0.3389  0.0785 -0.4898
 8018TIP3    H145469   4.432   1.537  10.537  0.0874 -0.4141 -0.3001
 8018TIP3    H245470   4.575   1.494  10.511  0.2126  0.1955 -0.6315
 8019TIP3   OH245471   5.033   3.281   0.381 -0.2349 -0.3325 -0.4936
 8019TIP3    H145472   4.980   3.222   0.327  0.5132 -1.0678 -0.4531
 8019TIP3    H245473   5.123   3.265   0.352  0.0063  0.5667 -0.2528
 8020TIP3   OH245474   5.376   2.457  11.450 -0.0275  0.5287  0.7157
 8020TIP3    H145475   5.308   2.450  11.384  2.3442 -1.5369 -1.7691
 8020TIP3    H245476   5.414   2.544  11.437 -1.3227  1.2079  1.3040
 8021TIP3   OH245477   0.261   2.333   0.849  0.2830  0.4740  0.1501
 8021TIP3    H145478   0.210   2.282   0.912 -0.3503  1.1683  0.2222
 8021TIP3    H245479   0.202   2.342   0.773  0.8705  0.0232 -0.3694
 8022TIP3   OH245480   5.532   0.142  14.306 -0.0706  0.5519  0.6186
 8022TIP3    H145481   5.489   0.212  14.258  1.1139  1.5012  0.9019
 8022TIP3    H245482   5.626   0.159  14.294  0.2347 -0.3936  1.5396
 8023TIP3   OH245483   4.523   6.246   4.353  0.7275 -0.2112  0.4994
 8023TIP3    H145484   4.481   6.327   4.324  0.8894 -0.0267  0.7769
 8023TIP3    H245485   4.453   6.180   4.349  0.6566 -0.1120  0.0380
 8024TIP3   OH245486   2.403   0.672   3.978  0.2886  0.1994  0.0326
 8024TIP3    H145487   2.336   0.717   3.926  0.2643 -0.5783 -0.6348
 8024TIP3    H245488   2.389   0.579   3.959  1.9145  0.0459 -0.5887
 8025TIP3   OH245489   4.174   5.761   0.035  0.0790 -0.6695 -0.3449
 8025TIP3    H145490   4.121   5.809  -0.029  2.0702  1.8439 -0.2636
 8025TIP3    H245491   4.160   5.669   0.013 -1.4470  0.0209 -2.6198
 8026TIP3   OH245492   2.003   0.434  16.660  0.1030 -0.2167  0.1351
 8026TIP3    H145493   2.076   0.416  16.719  2.6096  2.7553 -1.8001
 8026TIP3    H245494   1.946   0.493  16.709  0.8132  0.2076  0.4536
 8027TIP3   OH245495   2.759   1.957   1.873 -0.2852  0.2781  0.2235
 8027TIP3    H145496   2.765   1.871   1.916  0.7217  0.7222  1.0072
 8027TIP3    H245497   2.677   1.953   1.823 -0.6044 -0.8826  0.7998
 8028TIP3   OH245498   0.384   5.111   0.535 -0.1032  0.3995  0.0642
 8028TIP3    H145499   0.391   5.204   0.555  0.1449  0.4949 -0.4409
 8028TIP3    H245500   0.295   5.099   0.502 -0.5887  0.2016  1.3786
 8029TIP3   OH245501   4.941   6.333   2.643  0.5277  0.2866  0.2922
 8029TIP3    H145502   4.999   6.269   2.602 -1.1229 -0.4443 -0.9927
 8029TIP3    H245503   4.923   6.397   2.574 -1.1503 -0.1733  0.2744
 8030TIP3   OH245504   6.194   3.979  16.049 -0.4194 -0.2567  0.4854
 8030TIP3    H145505   6.273   3.991  16.101  0.4804  0.8360 -1.0590
 8030TIP3    H245506   6.163   4.068  16.031 -0.9506 -0.6248 -0.4671
 8031TIP3   OH245507   5.125   3.460   2.863  0.3202  0.2658  0.0220
 8031TIP3    H145508   5.185   3.534   2.865 -0.1089  0.6919 -1.4804
 8031TIP3    H245509   5.038   3.500   2.868  0.1289 -0.3400  2.1466
 8032TIP3   OH245510   0.756   1.543  10.410  0.5866 -0.3703 -0.3932
 8032TIP3    H145511   0.816   1.515  10.479 -0.8279  0.3899  1.1917
 8032TIP3    H245512   0.767   1.638  10.407 -1.3267 -0.0850  0.7097
 8033TIP3   OH245513   3.646   3.640   5.986 -0.1350 -0.1990  0.0112
 8033TIP3    H145514   3.592   3.652   6.063 -1.8518 -0.7666 -1.0540
 8033TIP3    H245515   3.673   3.548   5.990 -0.3748 -0.2776 -0.1480
 8034TIP3   OH245516   6.120   4.223  15.946  0.1523  0.0803 -0.0713
 8034TIP3    H145517   6.193   4.280  15.920 -2.3638  3.6619 -0.0996
 8034TIP3    H245518   6.096   4.176  15.866  0.2870  1.5482 -1.0119
 8035TIP3   OH245519   3.726   6.343   2.339 -0.0730  0.5129 -0.1882
 8035TIP3    H145520   3.788   6.296   2.283  1.3070  0.8327  0.9884
 8035TIP3    H245521   3.696   6.279   2.403  1.0393  0.9390  0.8010
 8036TIP3   OH245522   4.733   5.842  15.933  0.1034 -0.1516 -0.1754
 8036TIP3    H145523   4.723   5.928  15.974 -1.5331 -0.7797  0.8671
 8036TIP3    H245524   4.820   5.814  15.959  0.7678  1.2902 -0.7570
 8037TIP3   OH245525   3.174   0.606  13.216 -0.2159  0.2347 -0.3876
 8037TIP3    H145526   3.104   0.604  13.281  0.6289 -0.5421  0.5350
 8037TIP3    H245527   3.198   0.514  13.204  0.2121  0.4439 -1.1698
 8038TIP3   OH245528   5.502   6.554   0.297  0.4637  0.3009  0.2720
 8038TIP3    H145529   5.545   6.487   0.245  0.6503  0.6363 -0.0102
 8038TIP3    H245530   5.412   6.523   0.308  0.8006 -0.4618  0.9679
 8039TIP3   OH245531   3.766   0.442  15.086 -0.1066 -0.3973 -0.5760
 8039TIP3    H145532   3.855   0.443  15.049 -0.5084  1.0166 -1.5938
 8039TIP3    H245533   3.774   0.489  15.168  0.6303 -2.8580  0.8880
 8040TIP3   OH245534   0.551   2.881   1.685 -0.4407 -0.5920 -0.5031
 8040TIP3    H145535   0.490   2.879   1.611 -1.1706 -3.0812  0.0581
 8040TIP3    H245536   0.590   2.793   1.685  1.6843  0.3029  0.3644
 8041TIP3   OH245537   5.713   6.725  14.071 -0.0974 -0.0516  0.2577
 8041TIP3    H145538   5.689   6.808  14.113 -0.2007  0.7181 -1.2620
 8041TIP3    H245539   5.799   6.705  14.107  2.2750  3.3052 -2.8171
 8042TIP3   OH245540   0.262   5.426  11.832 -0.2682  0.1232  0.2399
 8042TIP3    H145541   0.280   5.333  11.813  1.2535  0.3171  0.5837
 8042TIP3    H245542   0.342   5.471  11.806 -0.7662  1.2765  0.6588
 8043TIP3   OH245543   1.123   5.401  16.747  0.0381 -0.1895  0.4900
 8043TIP3    H145544   1.121   5.441  16.660  0.1108 -1.6395 -0.2000
 8043TIP3    H245545   1.161   5.469  16.803  1.0429  0.3755 -0.8140
 8044TIP3   OH245546   3.941   0.461  15.836  1.1159 -0.0914 -0.4604
 8044TIP3    H145547   3.954   0.409  15.757 -0.4175 -1.8102  0.3345
 8044TIP3    H245548   4.012   0.434  15.894  0.5259 -1.1073 -0.1794
 8045TIP3   OH245549   5.196   2.364  13.072  0.1712  0.5625  0.1909
 8045TIP3    H145550   5.244   2.343  13.152  0.0563  1.1542  0.4218
 8045TIP3    H245551   5.213   2.457  13.057 -1.4520  0.9755  0.6789
 8046TIP3   OH245552   5.025   2.723   2.033  0.1858  0.1870 -0.7530
 8046TIP3    H145553   4.956   2.662   2.061  0.4447  1.1058  2.1097
 8046TIP3    H245554   5.038   2.701   1.940 -3.3439 -0.5786 -1.2325
 8047TIP3   OH245555   0.804   5.199   1.253 -0.4362 -0.0699 -0.0713
 8047TIP3    H145556   0.739   5.257   1.213  0.2340  1.1398  0.5537
 8047TIP3    H245557   0.832   5.245   1.332  0.1978 -1.2090  0.3883
 8048TIP3   OH245558   6.498   3.093   5.528 -0.4223 -0.3393  0.4457
 8048TIP3    H145559   6.434   3.147   5.575  0.4518 -0.3265  1.6673
 8048TIP3    H245560   6.555   3.156   5.483 -0.7759 -0.3253  0.0146
 8049TIP3   OH245561   0.729   5.226   3.038 -0.4310  0.4230  0.0135
 8049TIP3    H145562   0.685   5.304   3.006  1.3734  1.4816 -0.0109
 8049TIP3    H245563   0.692   5.154   2.986  1.3273  1.8631 -3.5961
 8050TIP3   OH245564   3.729   2.013   0.470 -0.1449 -0.3284  0.0661
 8050TIP3    H145565   3.801   1.953   0.488  0.4021  0.6574  1.3320
 8050TIP3    H245566   3.767   2.100   0.480 -1.8699  0.2610  2.7146
 8051TIP3   OH245567   4.290   3.420  11.705  0.0303  0.0343  0.3491
 8051TIP3    H145568   4.265   3.397  11.794  1.2147 -0.2591  0.6252
 8051TIP3    H245569   4.341   3.344  11.674  0.2690  0.4476 -0.3019
 8052TIP3   OH245570   2.152   2.270  12.956 -0.2157 -0.0468  0.3018
 8052TIP3    H145571   2.120   2.241  13.041 -0.5043 -2.0678 -0.4566
 8052TIP3    H245572   2.246   2.252  12.959  0.0799  1.4443  0.7738
 8053TIP3   OH245573   5.428   1.866   5.477 -0.1149  0.0394 -0.2436
 8053TIP3    H145574   5.469   1.856   5.392  1.0689  0.4906  0.2538
 8053TIP3    H245575   5.497   1.899   5.534 -1.6804  3.0376  0.1254
 8054TIP3   OH245576   4.052   4.492   6.720  1.0552 -0.6237  0.2789
 8054TIP3    H145577   4.044   4.543   6.801 -0.7879 -1.4793  0.7101
 8054TIP3    H245578   3.970   4.442   6.716  2.1408 -2.4101 -0.8788
 8055TIP3   OH245579   6.092   0.988   0.706  0.0087 -0.3721  0.0898
 8055TIP3    H145580   6.076   1.011   0.798 -1.2577  0.2285 -0.2571
 8055TIP3    H245581   6.109   1.072   0.663  0.5067 -0.6420 -0.2508
 8056TIP3   OH245582   0.411   0.387  12.974 -0.8172 -0.1921 -0.7668
 8056TIP3    H145583   0.458   0.318  13.020 -0.0318  0.2864 -0.8418
 8056TIP3    H245584   0.475   0.457  12.963 -1.6678  0.6657 -0.4557
 8057TIP3   OH245585   5.922   1.399   5.470  0.5199  0.4156  0.3949
 8057TIP3    H145586   5.921   1.487   5.432  1.0203  0.6023  0.7976
 8057TIP3    H245587   6.013   1.370   5.458  0.6856  0.4649  1.3960
 8058TIP3   OH245588   4.325   2.010   0.414 -0.3378  0.0120  0.5301
 8058TIP3    H145589   4.230   2.011   0.413 -0.3645  1.9323  0.4646
 8058TIP3    H245590   4.349   1.919   0.433 -2.1337 -0.8845 -1.2607
 8059TIP3   OH245591   2.538   4.490  14.864  0.3386 -0.3908 -0.6047
 8059TIP3    H145592   2.579   4.450  14.940  2.3621 -0.1604 -1.5210
 8059TIP3    H245593   2.468   4.429  14.839 -0.2254 -0.5670  1.2753
 8060TIP3   OH245594   6.710   0.069   2.371 -0.7096 -0.3399 -0.3462
 8060TIP3    H145595   6.763   0.101   2.298  0.0843  0.8980  0.7224
 8060TIP3    H245596   6.739   0.121   2.446 -3.5536  0.4712  0.2815
 8061TIP3   OH245597   6.081   1.906  11.858 -0.1369  0.0558  0.5091
 8061TIP3    H145598   6.015   1.876  11.796 -0.8860 -0.4579  1.5081
 8061TIP3    H245599   6.164   1.900  11.812 -0.8718  1.6825 -1.1366
 8062TIP3   OH245600   4.556   0.732   4.146  0.5221  0.2214  0.1605
 8062TIP3    H145601   4.541   0.827   4.147 -1.3848 -0.0453  1.2449
 8062TIP3    H245602   4.552   0.706   4.238  0.3222 -1.0005 -0.1726
 8063TIP3   OH245603   1.125   0.739  11.556  0.4661 -0.4623 -0.1932
 8063TIP3    H145604   1.213   0.723  11.588  0.3390 -2.3997 -0.6775
 8063TIP3    H245605   1.126   0.708  11.465 -0.3727  0.7498 -0.6474
 8064TIP3   OH245606   1.856   5.002  17.069  0.3829  0.0791  0.3204
 8064TIP3    H145607   1.948   4.978  17.056  1.3447  2.6329  1.7196
 8064TIP3    H245608   1.849   5.090  17.033 -1.4581  0.0670  0.5538
 8065TIP3   OH245609   3.641   4.380   1.173 -0.0859  0.7722  0.1695
 8065TIP3    H145610   3.719   4.341   1.214  0.7969  0.7657 -1.4287
 8065TIP3    H245611   3.601   4.308   1.124  0.4420  1.3506 -1.1790
 8066TIP3   OH245612   3.917   1.567   1.489  0.5637  0.7564  0.1783
 8066TIP3    H145613   4.007   1.589   1.513  0.5275  0.5668  0.4857
 8066TIP3    H245614   3.920   1.475   1.464  0.4793  0.7857  0.0574
 8067TIP3   OH245615   5.445   3.345  15.553 -0.2912 -0.3371 -0.7449
 8067TIP3    H145616   5.494   3.335  15.472  3.9109 -0.5170  1.5133
 8067TIP3    H245617   5.403   3.430  15.546  3.6939  1.8019 -1.5253
 8068TIP3   OH245618   6.261   5.312   4.697  0.4898  0.1028 -0.9241
 8068TIP3    H145619   6.316   5.389   4.685  1.4930 -0.4006  0.1795
 8068TIP3    H245620   6.323   5.241   4.713 -0.3536 -1.1828 -2.9344
 8069TIP3   OH245621   6.783   5.111   5.447 -0.5466  0.3075 -0.5715
 8069TIP3    H145622   6.773   5.017   5.430 -0.1055  0.2822 -0.7139
 8069TIP3    H245623   6.814   5.115   5.538 -0.8860  0.3330 -0.4566
 8070TIP3   OH245624   4.009   2.516  14.408 -0.6913 -0.0218 -0.2216
 8070TIP3    H145625   3.985   2.476  14.491 -0.8736  2.0829  0.8077
 8070TIP3    H245626   4.105   2.523  14.412 -0.7719  0.9420  0.2595
 8071TIP3   OH245627   2.017   4.410  11.996  0.2207 -0.2342 -0.6269
 8071TIP3    H145628   2.045   4.392  11.906 -1.4760  0.6580 -1.3714
 8071TIP3    H245629   2.044   4.500  12.012  1.5362 -0.7319  0.2235
 8072TIP3   OH245630   3.482   2.555   5.415 -0.2012  0.4479  0.0471
 8072TIP3    H145631   3.506   2.561   5.507 -0.2509 -0.1206  0.1000
 8072TIP3    H245632   3.393   2.592   5.411 -1.5184 -2.3778  0.7910
 8073TIP3   OH245633   3.194   5.897  12.042 -0.3838  0.0368 -0.3998
 8073TIP3    H145634   3.169   5.892  11.949 -1.2459  2.4060 -0.3534
 8073TIP3    H245635   3.112   5.915  12.087  0.3748  1.1520  0.5677
 8074TIP3   OH245636   6.153   0.998  12.854 -0.0966 -0.3769 -0.2910
 8074TIP3    H145637   6.096   0.947  12.913  0.4214 -1.3146 -0.5789
 8074TIP3    H245638   6.146   0.953  12.770  0.5790 -0.1233 -0.4887
 8075TIP3   OH245639   5.516   5.591   3.521 -0.2736 -0.0318  0.6576
 8075TIP3    H145640   5.584   5.648   3.557  1.7869 -2.0477  0.1541
 8075TIP3    H245641   5.464   5.564   3.597  2.1232 -1.7916  1.7687
 8076TIP3   OH245642   2.344   0.007   4.883 -0.0748  0.0578  0.9041
 8076TIP3    H145643   2.386  -0.078   4.872  0.4511  0.4086  0.1183
 8076TIP3    H245644   2.294  -0.001   4.965 -1.0622 -1.4341  0.2140
 8077TIP3   OH245645   0.500   0.506  12.057  0.1937 -0.3392 -0.0080
 8077TIP3    H145646   0.490   0.519  11.962 -0.4830 -1.5394 -0.1182
 8077TIP3    H245647   0.577   0.450  12.065  0.7231  0.3917  0.2247
 8078TIP3   OH245648   2.916   5.302  16.770 -0.5082  0.4658  0.2149
 8078TIP3    H145649   2.984   5.344  16.823  0.3055  0.3600 -0.7061
 8078TIP3    H245650   2.902   5.217  16.811 -0.1197  0.5150  0.4523
 8079TIP3   OH245651   5.677   2.924   1.640 -0.3290 -0.5066 -0.1021
 8079TIP3    H145652   5.669   3.013   1.607 -0.6623  0.0773  1.4751
 8079TIP3    H245653   5.649   2.869   1.567 -0.9289  0.7153 -0.8219
 8080TIP3   OH245654   5.667   0.471  11.891  0.1822 -0.9176 -0.2777
 8080TIP3    H145655   5.753   0.500  11.922  0.4005 -2.1334  0.2631
 8080TIP3    H245656   5.658   0.382  11.923 -1.7545 -0.4563  0.6007
 8081TIP3   OH245657   3.108   6.487  12.904  0.3240 -0.4737  0.0193
 8081TIP3    H145658   3.063   6.572  12.905  2.3920  0.7089  2.5716
 8081TIP3    H245659   3.132   6.474  12.812 -1.3434  0.9349 -0.6706
 8082TIP3   OH245660   6.694   4.225  13.900  0.1928  0.3748 -0.0748
 8082TIP3    H145661   6.632   4.296  13.913  0.8622  0.9445  0.0455
 8082TIP3    H245662   6.700   4.181  13.985 -1.1931 -0.6445 -0.4708
 8083TIP3   OH245663   5.253   0.719  12.083  0.2512  0.1842 -0.0700
 8083TIP3    H145664   5.321   0.729  12.149  0.3658  0.9565 -0.2869
 8083TIP3    H245665   5.299   0.682  12.007  0.1149 -0.7186  0.2822
 8084TIP3   OH245666   4.303   2.321  11.649  0.1807  0.0052 -0.2071
 8084TIP3    H145667   4.363   2.254  11.682 -0.1969  0.0885  0.6765
 8084TIP3    H245668   4.235   2.272  11.602  0.9070 -0.0907 -1.2074
 8085TIP3   OH245669   3.809   3.818  16.511  0.1267 -0.0578  0.5267
 8085TIP3    H145670   3.751   3.887  16.542 -0.2897  0.1847 -0.7273
 8085TIP3    H245671   3.807   3.752  16.580  0.9000  1.3631  1.9630
 8086TIP3   OH245672   6.481   5.397   0.234  0.3537 -0.2510  0.2830
 8086TIP3    H145673   6.499   5.324   0.294 -0.9848 -1.0295 -0.2262
 8086TIP3    H245674   6.431   5.460   0.287 -1.1298 -1.0929 -0.0701
 8087TIP3   OH245675   0.857   4.351   2.039  0.1299 -0.1371 -0.0533
 8087TIP3    H145676   0.930   4.411   2.022 -0.2409 -0.2607 -2.2835
 8087TIP3    H245677   0.802   4.399   2.102  0.2529  1.5357 -1.1495
 8088TIP3   OH245678   1.402   2.897  13.369  0.2601 -0.1774 -0.3767
 8088TIP3    H145679   1.334   2.931  13.426  2.6913  2.1459  1.3801
 8088TIP3    H245680   1.414   2.806  13.396 -1.5218 -0.3747 -0.1749
 8089TIP3   OH245681   6.233   6.248  14.117 -0.2198  0.4517 -0.1183
 8089TIP3    H145682   6.164   6.309  14.091 -0.0929  0.7850  0.3247
 8089TIP3    H245683   6.275   6.289  14.192 -0.0381 -0.1118  0.0934
 8090TIP3   OH245684   2.716   2.446   3.443  0.2536  0.2644 -0.6889
 8090TIP3    H145685   2.637   2.440   3.498  0.1733  1.5575 -0.6145
 8090TIP3    H245686   2.781   2.487   3.500  1.3747 -1.8382 -0.3834
 8091TIP3   OH245687   5.351   1.333   0.627 -0.1607  0.0189  0.1388
 8091TIP3    H145688   5.320   1.251   0.666 -1.2544 -0.5306 -1.7585
 8091TIP3    H245689   5.295   1.400   0.665 -0.2878 -0.3175  0.5482
 8092TIP3   OH245690   0.600   1.420   3.401 -0.5871  0.1658  0.1763
 8092TIP3    H145691   0.571   1.329   3.393 -1.2544  0.3420  0.4925
 8092TIP3    H245692   0.541   1.458   3.466 -0.8491  1.0359 -0.5505
 8093TIP3   OH245693   1.920   6.782  14.026 -0.2266  0.1243  0.1157
 8093TIP3    H145694   1.875   6.849  14.078 -0.3738 -1.9095  2.8102
 8093TIP3    H245695   1.849   6.728  13.990 -0.1033  1.2433 -1.9132
 8094TIP3   OH245696   1.862   2.682  16.192  0.6425  0.0365 -0.1492
 8094TIP3    H145697   1.801   2.737  16.144 -0.3600  0.1248  1.1833
 8094TIP3    H245698   1.934   2.741  16.216  0.3526  0.3758 -0.1177
 8095TIP3   OH245699   5.128   1.835  11.440 -0.2207 -0.6068 -0.2919
 8095TIP3    H145700   5.189   1.770  11.473 -0.9334 -0.7260  0.8542
 8095TIP3    H245701   5.175   1.918  11.447 -0.5683 -0.5081  1.8364
 8096TIP3   OH245702   1.382   5.533  10.284 -0.4070  0.6209 -0.4440
 8096TIP3    H145703   1.451   5.550  10.349 -1.4136  0.4848  0.6876
 8096TIP3    H245704   1.389   5.605  10.222  0.9130  0.4810 -0.5030
 8097TIP3   OH245705   4.028   5.789   3.051  0.2443  0.2179 -0.2565
 8097TIP3    H145706   3.974   5.746   2.984  0.2832  0.5796 -0.5237
 8097TIP3    H245707   4.066   5.717   3.101 -0.9945 -0.0333  0.3482
 8098TIP3   OH245708   5.809   4.122  11.689  0.0118 -0.3208 -0.1745
 8098TIP3    H145709   5.865   4.062  11.640  0.7576 -1.8310  2.3762
 8098TIP3    H245710   5.733   4.069  11.713  0.2235  0.0050  1.2894
 8099TIP3   OH245711   2.390   5.352  15.640  0.3746 -0.4040 -0.1255
 8099TIP3    H145712   2.464   5.388  15.592  0.6364 -0.2227  0.4044
 8099TIP3    H245713   2.339   5.428  15.667  0.9577 -0.4102  1.0412
 8100TIP3   OH245714   1.427   1.177   2.278 -0.6354  0.1397  0.5903
 8100TIP3    H145715   1.466   1.104   2.325  0.7257 -0.0978 -0.8539
 8100TIP3    H245716   1.484   1.252   2.298 -0.3170  0.1397 -0.3038
 8101TIP3   OH245717   0.427   2.350  11.022  0.9336 -0.2963  0.4702
 8101TIP3    H145718   0.497   2.293  10.990  1.3589  0.1080  0.6812
 8101TIP3    H245719   0.431   2.428  10.967  0.3313 -0.4709  0.1633
 8102TIP3   OH245720   1.824   2.594   0.850 -0.3200  0.3224 -0.4714
 8102TIP3    H145721   1.830   2.685   0.879 -0.1651  0.6630 -1.5417
 8102TIP3    H245722   1.732   2.583   0.826 -0.6888 -0.2682  1.0750
 8103TIP3   OH245723   3.057   3.631  11.743 -0.6054  0.1707  0.0606
 8103TIP3    H145724   3.055   3.614  11.648  0.4599 -1.1514  0.2502
 8103TIP3    H245725   3.091   3.550  11.781 -0.5439  0.8668  1.5438
 8104TIP3   OH245726   2.810   0.216  15.241  0.6661 -0.0574  0.0583
 8104TIP3    H145727   2.853   0.133  15.219 -1.0280 -0.8837 -0.2613
 8104TIP3    H245728   2.745   0.193  15.307  1.3372  1.3492  1.2812
 8105TIP3   OH245729   2.287   5.086  15.490 -0.0331  0.1406 -0.0187
 8105TIP3    H145730   2.321   5.176  15.495  1.2379 -0.3540  0.9028
 8105TIP3    H245731   2.345   5.042  15.428 -1.5709  0.2943 -1.6527
 8106TIP3   OH245732   2.538   6.466   0.263 -0.1222  0.0506 -0.2120
 8106TIP3    H145733   2.472   6.397   0.264  0.1281 -0.3732 -3.1614
 8106TIP3    H245734   2.487   6.547   0.256 -0.3727 -0.1217 -0.4103
 8107TIP3   OH245735   6.259   5.170   4.459  1.0991  0.1454 -0.2967
 8107TIP3    H145736   6.227   5.220   4.535 -0.4310  0.1954 -0.9425
 8107TIP3    H245737   6.180   5.146   4.411  2.0127 -0.2656 -1.6511
 8108TIP3   OH245738   0.475   6.430  12.157 -0.3203  0.5260 -0.2906
 8108TIP3    H145739   0.430   6.511  12.181  1.2177  1.1018  0.7748
 8108TIP3    H245740   0.469   6.427  12.062 -1.9448  0.9463 -0.2394
 8109TIP3   OH245741   2.413   1.208  15.303 -0.2561 -0.0421 -0.4033
 8109TIP3    H145742   2.399   1.296  15.338 -2.6026 -0.5451  0.1010
 8109TIP3    H245743   2.438   1.155  15.379 -0.6402 -0.1675 -0.3613
 8110TIP3   OH245744   4.085   3.795  16.233  0.2473  0.4521 -0.2521
 8110TIP3    H145745   3.991   3.783  16.220  0.1244 -0.8199  1.4472
 8110TIP3    H245746   4.100   3.765  16.323  2.1066  1.6687 -0.1062
 8111TIP3   OH245747   1.809   1.146  15.566 -0.1448  0.1457  0.2274
 8111TIP3    H145748   1.755   1.072  15.537 -0.0956  0.5254 -0.8737
 8111TIP3    H245749   1.772   1.171  15.651  0.3106 -1.6106  0.9786
 8112TIP3   OH245750   3.252   5.046   1.989 -0.4444 -0.0582  0.4856
 8112TIP3    H145751   3.339   5.084   1.976 -0.6753  0.6739  1.0289
 8112TIP3    H245752   3.214   5.041   1.901 -0.1084  0.2383  0.3246
 8113TIP3   OH245753   4.561   5.700  15.792  0.9460 -0.2161 -0.4413
 8113TIP3    H145754   4.575   5.731  15.702  0.6823  1.3570  0.0377
 8113TIP3    H245755   4.637   5.733  15.841  0.0552  0.7544  0.3302
 8114TIP3   OH245756   2.196   3.829  13.941  0.0075  0.2310 -0.3071
 8114TIP3    H145757   2.132   3.849  14.009  0.4330 -0.2100  0.2331
 8114TIP3    H245758   2.188   3.901  13.878 -1.7803 -0.3667 -0.8188
 8115TIP3   OH245759   5.690   4.668  12.764  0.1609 -0.8770 -0.4759
 8115TIP3    H145760   5.739   4.659  12.845 -1.2067 -1.4093  0.3310
 8115TIP3    H245761   5.604   4.701  12.792  0.0261 -0.0103 -1.8287
 8116TIP3   OH245762   2.123   4.228   2.516  0.6531  0.6443 -0.6400
 8116TIP3    H145763   2.141   4.314   2.553  0.7430  0.5166 -0.3807
 8116TIP3    H245764   2.192   4.213   2.452  0.8657  0.6016 -0.4043
 8117TIP3   OH245765   4.275   6.387   0.043  0.7864  0.0136 -0.2427
 8117TIP3    H145766   4.224   6.334   0.105  1.9375  0.4267  1.1242
 8117TIP3    H245767   4.210   6.438  -0.005 -0.1341  0.0692  1.0053
 8118TIP3   OH245768   5.865   0.171  10.707 -0.3052  0.0339  0.7278
 8118TIP3    H145769   5.822   0.219  10.636  0.2216 -0.3985  0.0968
 8118TIP3    H245770   5.922   0.109  10.662  3.5999  2.7922  1.4087
 8119TIP3   OH245771   4.625   5.901  11.742 -0.9584  0.2015  0.3837
 8119TIP3    H145772   4.623   5.938  11.653 -0.2545 -0.0645  0.2561
 8119TIP3    H245773   4.617   5.978  11.799 -1.3114  0.3845  0.0964
 8120TIP3   OH245774   6.434   0.773  15.520  0.4025  0.3743  0.4013
 8120TIP3    H145775   6.498   0.820  15.466 -1.4165  2.1472 -0.3278
 8120TIP3    H245776   6.369   0.839  15.543 -1.7250 -1.5443  0.2325
 8121TIP3   OH245777   0.630   3.154  12.349 -0.4035 -0.3327 -0.3799
 8121TIP3    H145778   0.585   3.098  12.412  0.6383 -1.4501 -0.5694
 8121TIP3    H245779   0.665   3.226  12.402 -1.1248 -0.2543  0.0021
 8122TIP3   OH245780   2.059   4.980   2.308 -1.0553  0.0096  0.3510
 8122TIP3    H145781   2.081   4.901   2.258 -0.6790 -0.7675  1.7041
 8122TIP3    H245782   2.080   5.053   2.249  0.4770 -0.8531 -0.2130
 8123TIP3   OH245783   0.913   6.072   1.186 -0.0572 -0.2470  0.0958
 8123TIP3    H145784   0.996   6.026   1.187  1.9605  2.8022  4.5806
 8123TIP3    H245785   0.921   6.135   1.114  0.8060 -0.9806 -0.4746
 8124TIP3   OH245786   3.635   3.446   2.473 -0.4977  0.2291 -0.5667
 8124TIP3    H145787   3.603   3.362   2.504 -0.7542  1.0406  1.5671
 8124TIP3    H245788   3.697   3.475   2.540 -0.8409  1.9721 -0.9430
 8125TIP3   OH245789   3.889   0.229  13.318 -0.1900 -0.3047 -0.0871
 8125TIP3    H145790   3.965   0.260  13.269  0.0567 -1.4109 -0.4438
 8125TIP3    H245791   3.856   0.155  13.267 -0.7985 -0.5718  0.6702
 8126TIP3   OH245792   4.231   1.927  12.951  0.3671 -0.1891  0.1493
 8126TIP3    H145793   4.193   2.006  12.915  3.6993  1.3014 -0.4906
 8126TIP3    H245794   4.241   1.868  12.876 -0.4366 -0.5179  0.2896
 8127TIP3   OH245795   4.529   0.409  10.863 -0.6249 -0.1089 -0.5102
 8127TIP3    H145796   4.506   0.319  10.883 -0.5017 -0.3838 -1.5821
 8127TIP3    H245797   4.462   0.438  10.801  0.4407 -0.1155 -1.7079
 8128TIP3   OH245798   3.284   2.556  13.212  0.1421 -0.2109  0.4070
 8128TIP3    H145799   3.206   2.502  13.225  0.8275 -1.2590  0.2825
 8128TIP3    H245800   3.322   2.566  13.300 -0.5320  0.9451  0.5829
 8129TIP3   OH245801   1.835   5.802  14.969 -0.2580  0.5533  0.4030
 8129TIP3    H145802   1.839   5.738  14.898 -0.0828  1.0717 -0.0639
 8129TIP3    H245803   1.904   5.865  14.948 -0.1013  0.6272  1.1197
 8130TIP3   OH245804   6.413   5.857   1.153 -0.0452 -0.4149 -0.2993
 8130TIP3    H145805   6.330   5.889   1.188 -0.4439 -0.6942 -0.9870
 8130TIP3    H245806   6.419   5.895   1.065  0.3843 -0.6891 -0.3945
 8131TIP3   OH245807   3.938   6.051   0.960  0.1499  0.1192 -0.6679
 8131TIP3    H145808   4.029   6.028   0.978  0.4880  0.2075 -2.1222
 8131TIP3    H245809   3.906   5.980   0.904 -0.0889  1.0249 -1.7149
 8132TIP3   OH245810   0.072   4.963  12.713  0.2308 -0.5121 -0.4627
 8132TIP3    H145811   0.115   5.041  12.679 -0.5057  0.0057 -0.2379
 8132TIP3    H245812   0.118   4.890  12.672  0.0308  0.0616 -1.7684
 8133TIP3   OH245813   0.942   1.565  13.119  0.0793 -0.2864 -0.6677
 8133TIP3    H145814   0.950   1.469  13.124 -0.1576 -0.3046 -0.6354
 8133TIP3    H245815   0.911   1.590  13.206  1.6238 -0.0299 -0.1592
 8134TIP3   OH245816   0.247   6.560   2.153 -0.3448  0.4748  0.1127
 8134TIP3    H145817   0.234   6.650   2.182 -0.8314  0.7440 -0.9022
 8134TIP3    H245818   0.324   6.530   2.202 -0.2003  1.4242  0.4927
 8135TIP3   OH245819   0.909   6.350  16.491  0.1634  0.4054  0.0754
 8135TIP3    H145820   0.899   6.442  16.465 -0.1533  0.1255 -0.8257
 8135TIP3    H245821   0.819   6.321  16.509  0.1070 -0.1134 -1.0084
 8136TIP3   OH245822   1.022   6.595  10.677  0.2850 -0.0098 -0.0498
 8136TIP3    H145823   1.046   6.681  10.712  0.7259 -0.3163  0.4204
 8136TIP3    H245824   0.960   6.559  10.741 -0.2476  0.1399 -0.4744
 8137TIP3   OH245825   6.332   0.030   1.714 -0.0852  0.2378  0.4884
 8137TIP3    H145826   6.318  -0.046   1.771 -2.3767  0.7292  0.6862
 8137TIP3    H245827   6.341   0.104   1.774  0.2572  0.3886  0.2553
 8138TIP3   OH245828   4.327   0.578  10.672  0.5170  0.4919  0.7335
 8138TIP3    H145829   4.301   0.497  10.628 -1.1638  1.5209 -0.2594
 8138TIP3    H245830   4.379   0.626  10.607  0.1612  0.9116  0.7573
 8139TIP3   OH245831   1.454   1.138  15.396 -0.1701 -0.2554 -0.1809
 8139TIP3    H145832   1.522   1.189  15.439  0.6060 -0.6223 -0.9288
 8139TIP3    H245833   1.410   1.200  15.338 -0.2047 -0.1129 -0.0038
 8140TIP3   OH245834   0.777   0.649  14.780 -0.4060  0.6398  0.6082
 8140TIP3    H145835   0.784   0.617  14.870 -0.1568  0.9304  0.6969
 8140TIP3    H245836   0.805   0.741  14.786 -1.0141  0.8456  0.3441
 8141TIP3   OH245837   3.100   2.703  16.816 -0.1704  0.5935  0.0586
 8141TIP3    H145838   3.091   2.683  16.909  0.4959 -0.4049 -0.0823
 8141TIP3    H245839   3.014   2.685  16.779  0.1957 -1.3604  0.0728
 8142TIP3   OH245840   3.816   2.504  14.748  0.0683 -0.2153  0.5631
 8142TIP3    H145841   3.787   2.446  14.678 -0.6675 -1.7672  2.0802
 8142TIP3    H245842   3.737   2.552  14.774  0.7957  2.1107 -1.1429
 8143TIP3   OH245843   4.825   0.186  10.484  0.3390  0.4141 -0.2273
 8143TIP3    H145844   4.776   0.265  10.507 -0.5786 -0.1098 -0.3217
 8143TIP3    H245845   4.846   0.198  10.391  1.2967  1.0970  0.0585
 8144TIP3   OH245846   5.961   3.484  14.468  0.3311  0.7631 -0.0323
 8144TIP3    H145847   5.968   3.495  14.563  0.5506 -0.1338  0.0639
 8144TIP3    H245848   5.873   3.450  14.454  0.0364  1.5770 -0.2283
 8145TIP3   OH245849   4.143   3.293  13.577  0.0249  0.0248  0.2974
 8145TIP3    H145850   4.233   3.303  13.544  0.0387  1.2807  0.6500
 8145TIP3    H245851   4.134   3.363  13.642 -2.2091  1.9384 -1.8870
 8146TIP3   OH245852   4.471   0.648  11.266  0.0861 -0.7028 -0.5647
 8146TIP3    H145853   4.539   0.606  11.319  0.3748  0.6810  0.2080
 8146TIP3    H245854   4.500   0.636  11.176  1.5836  0.2201 -0.2375
 8147TIP3   OH245855   6.691   6.239   2.193  0.0562 -0.5979  0.0442
 8147TIP3    H145856   6.744   6.314   2.167  0.3069 -1.1858 -1.2658
 8147TIP3    H245857   6.684   6.245   2.288  0.8217  0.5704  0.0429
 8148TIP3   OH245858   5.834   6.560  13.616 -0.0774  0.1363  0.2920
 8148TIP3    H145859   5.790   6.579  13.700 -0.7104  0.3828 -0.0854
 8148TIP3    H245860   5.763   6.533  13.558  0.4653 -0.8114  0.0530
 8149TIP3   OH245861   2.527   4.530  11.642 -0.0067 -0.1910  0.2142
 8149TIP3    H145862   2.593   4.506  11.708 -0.2488 -1.2066  0.1049
 8149TIP3    H245863   2.557   4.487  11.562  0.1766  0.8746 -0.3060
 8150TIP3   OH245864   3.821   2.012  14.330 -0.0021  0.1288 -0.6014
 8150TIP3    H145865   3.911   2.043  14.338  0.0465  0.1791 -1.2926
 8150TIP3    H245866   3.776   2.050  14.405  0.2488  1.2132 -0.9843
 8151TIP3   OH245867   2.947   3.979  10.649  0.1521  0.2062 -0.0963
 8151TIP3    H145868   2.891   3.957  10.724 -0.6754  0.6148 -0.5802
 8151TIP3    H245869   2.889   3.975  10.573  0.9268  0.0379 -0.6959
 8152TIP3   OH245870   4.748   6.206  12.576 -0.6044  0.3156  0.1929
 8152TIP3    H145871   4.673   6.192  12.634 -0.4842  0.9589  0.5050
 8152TIP3    H245872   4.741   6.297  12.549 -1.4554 -0.3322 -1.9311
 8153TIP3   OH245873   3.124   1.971   2.106 -0.1026  0.3392  0.6170
 8153TIP3    H145874   3.087   2.044   2.056 -1.7001  0.0516  1.3054
 8153TIP3    H245875   3.110   1.895   2.049  0.2973  0.3618  0.4860
 8154TIP3   OH245876   2.180   3.806   3.675  0.2128 -0.4850  0.2162
 8154TIP3    H145877   2.135   3.884   3.708  0.5555 -0.2969  0.2459
 8154TIP3    H245878   2.273   3.827   3.684  0.3191 -0.3999 -0.9243
 8155TIP3   OH245879   6.142   3.199  13.185  0.3477  0.2601 -0.2574
 8155TIP3    H145880   6.233   3.228  13.171 -0.0999  1.3868 -0.9767
 8155TIP3    H245881   6.141   3.166  13.275  1.5175  0.0331 -0.3134
 8156TIP3   OH245882   3.669   2.704  11.853 -0.0626 -0.0622  0.3714
 8156TIP3    H145883   3.659   2.776  11.915  1.0454 -0.3183  0.8575
 8156TIP3    H245884   3.759   2.674  11.864  0.6904  0.8335 -2.3868
 8157TIP3   OH245885   0.122   6.482   0.827  0.3356  0.1087 -0.1915
 8157TIP3    H145886   0.097   6.434   0.906 -0.1749  0.2493 -0.2679
 8157TIP3    H245887   0.072   6.564   0.832  2.5037  1.5008  0.8778
 8158TIP3   OH245888   1.947   5.554  14.988 -0.4081  0.4286 -0.5373
 8158TIP3    H145889   1.994   5.631  15.018  0.5091  0.0680 -1.0120
 8158TIP3    H245890   1.855   5.574  15.005 -0.1827  1.5909 -0.5957
 8159TIP3   OH245891   2.035   1.281  16.862  0.1389  0.2292  0.1653
 8159TIP3    H145892   1.988   1.200  16.883 -0.0173  0.0750 -0.7422
 8159TIP3    H245893   2.081   1.262  16.780 -1.1231  1.5176 -0.9152
 8160TIP3   OH245894   2.460   5.808  12.475 -0.0335 -0.0541  0.1824
 8160TIP3    H145895   2.390   5.744  12.487  0.2937 -0.6198 -0.8199
 8160TIP3    H245896   2.415   5.892  12.468 -0.4891 -0.2087  1.1355
 8161TIP3   OH245897   0.512   2.822   1.140 -0.7184  0.6984 -0.0927
 8161TIP3    H145898   0.512   2.863   1.054 -2.9324 -1.1257 -1.0827
 8161TIP3    H245899   0.460   2.742   1.128 -1.5156  0.6274  3.0632
 8162TIP3   OH245900   5.112   5.412   1.527  0.1707  0.3454 -0.0003
 8162TIP3    H145901   5.194   5.400   1.576 -0.9136  0.2771  1.8799
 8162TIP3    H245902   5.128   5.369   1.443  2.5030  1.4605 -0.2198
 8163TIP3   OH245903   1.938   2.369   6.220  0.5661 -0.2524  0.2373
 8163TIP3    H145904   1.948   2.326   6.305  0.2820  1.2877  1.0784
 8163TIP3    H245905   1.854   2.416   6.226  1.0329  0.7203 -0.4963
 8164TIP3   OH245906   1.472   1.605  16.008  0.3915 -0.4356 -0.0839
 8164TIP3    H145907   1.438   1.645  15.928 -1.3946 -1.1122  0.2928
 8164TIP3    H245908   1.460   1.672  16.075 -4.6830 -2.0436  1.0375
 8165TIP3   OH245909   2.757   4.782  15.252  0.2695 -1.0943  0.2406
 8165TIP3    H145910   2.692   4.715  15.272 -1.4552  0.1172 -0.9978
 8165TIP3    H245911   2.821   4.737  15.196 -0.7976 -1.7598 -0.4870
 8166TIP3   OH245912   4.885   0.948  17.092 -0.6129 -0.3138  0.0665
 8166TIP3    H145913   4.799   0.923  17.128 -0.9322  1.1193  0.3607
 8166TIP3    H245914   4.935   0.867  17.092 -1.8128 -1.0805  0.3565
 8167TIP3   OH245915   6.570   4.237  11.995 -0.1848  0.3330 -0.1497
 8167TIP3    H145916   6.502   4.217  11.931  1.6604 -0.9597 -1.8217
 8167TIP3    H245917   6.638   4.172  11.980  3.4555  3.9920 -1.6582
 8168TIP3   OH245918   2.806   2.845   0.163  0.4911 -0.2161 -1.0895
 8168TIP3    H145919   2.816   2.929   0.209 -1.3614  0.0218 -1.0485
 8168TIP3    H245920   2.722   2.812   0.192 -0.1107 -0.7307 -3.2557
 8169TIP3   OH245921   5.542   0.224  13.536  0.1993 -0.1257 -0.3177
 8169TIP3    H145922   5.566   0.156  13.599  0.4547 -1.2258 -1.5658
 8169TIP3    H245923   5.493   0.178  13.468 -1.2406  1.2529 -0.2870
 8170TIP3   OH245924   4.165   2.697   1.184  0.7912 -0.3746  0.3339
 8170TIP3    H145925   4.106   2.706   1.109 -0.3299  0.9223  1.3216
 8170TIP3    H245926   4.228   2.768   1.175  0.6528 -0.2136  0.6112
 8171TIP3   OH245927   3.098   6.025  13.812 -0.1039 -0.0921 -0.3037
 8171TIP3    H145928   3.069   5.990  13.896  0.5025  0.2925  0.0681
 8171TIP3    H245929   3.114   6.117  13.828 -2.4497  0.6082 -1.4537
 8172TIP3   OH245930   0.827   6.409   3.254 -0.4579  0.5308  0.2623
 8172TIP3    H145931   0.895   6.462   3.211 -1.3059  1.0108 -0.5175
 8172TIP3    H245932   0.744   6.444   3.220 -1.1204  0.1980  1.4710
 8173TIP3   OH245933   1.578   1.912  13.382 -0.4381  0.4227  0.5235
 8173TIP3    H145934   1.671   1.930  13.367 -0.5452  1.5483  1.1072
 8173TIP3    H245935   1.569   1.914  13.477 -0.7099 -1.6405  0.5779
 8174TIP3   OH245936   0.882   0.813  13.165 -0.0995 -0.5039  0.5112
 8174TIP3    H145937   0.863   0.845  13.253 -0.6304  0.9166 -0.0865
 8174TIP3    H245938   0.799   0.822  13.118  0.1754 -1.2568 -0.1408
 8175TIP3   OH245939   4.237   5.846   5.328 -0.1436  0.0580  0.0120
 8175TIP3    H145940   4.220   5.936   5.356 -0.5946  0.2180 -0.7522
 8175TIP3    H245941   4.331   5.843   5.312 -0.3686  0.8784 -1.5969
 8176TIP3   OH245942   5.801   4.831  12.488  0.1832 -0.1566  0.2455
 8176TIP3    H145943   5.852   4.751  12.503  0.7565 -0.0391 -0.9739
 8176TIP3    H245944   5.866   4.899  12.475 -0.2957  0.3279  0.3413
 8177TIP3   OH245945   0.313   0.117   3.914 -0.3635 -0.1876  0.1184
 8177TIP3    H145946   0.374   0.061   3.962 -0.7516  0.4784  1.4148
 8177TIP3    H245947   0.369   0.175   3.863  0.0614 -0.6006  0.1039
 8178TIP3   OH245948   0.191   6.382   4.997  0.4971 -0.0519 -0.3617
 8178TIP3    H145949   0.131   6.383   5.072 -1.3532 -2.7292 -1.6265
 8178TIP3    H245950   0.149   6.437   4.931  0.8285  0.2591 -0.3151
 8179TIP3   OH245951   0.416   0.693  11.387  0.1370  0.6357 -0.2470
 8179TIP3    H145952   0.328   0.672  11.419  1.2823 -0.3335  2.6606
 8179TIP3    H245953   0.435   0.779  11.425  1.9816 -1.0505  3.1153
 8180TIP3   OH245954   6.055   3.239   4.837 -0.2673 -0.2191 -0.0263
 8180TIP3    H145955   6.128   3.246   4.776 -0.6531 -0.0970 -0.4814
 8180TIP3    H245956   6.094   3.254   4.924  0.1948  0.1258 -0.2890
 8181TIP3   OH245957   1.967   2.097  14.013  0.2014  0.2027 -0.6320
 8181TIP3    H145958   1.886   2.093  14.064 -0.2192  0.1398 -1.2866
 8181TIP3    H245959   1.980   2.008  13.981 -0.2209  0.4867 -1.6455
 8182TIP3   OH245960   0.370   5.278   1.570  0.2068  0.3676  0.1040
 8182TIP3    H145961   0.390   5.296   1.478 -1.8207 -1.2855 -0.7381
 8182TIP3    H245962   0.431   5.209   1.595 -0.1340 -0.1320 -0.4354
 8183TIP3   OH245963   3.952   6.201   3.323  0.1024  0.3460  0.5409
 8183TIP3    H145964   3.944   6.106   3.324 -0.2463  0.3607 -0.4188
 8183TIP3    H245965   3.925   6.228   3.411 -1.2022 -0.3405  0.3708
 8184TIP3   OH245966   2.641   4.465  14.609  0.2306  0.3443  0.0116
 8184TIP3    H145967   2.628   4.551  14.568 -2.1293  0.0195 -0.0425
 8184TIP3    H245968   2.616   4.478  14.700  0.2293 -0.2035  0.0923
 8185TIP3   OH245969   5.120   2.983  13.258 -0.5614  0.5901 -0.0666
 8185TIP3    H145970   5.204   2.943  13.234 -0.9911 -0.8758  0.7614
 8185TIP3    H245971   5.123   2.990  13.354 -2.0614 -1.1489  0.1583
 8186TIP3   OH245972   6.796   1.070  13.677  0.1421 -0.0486  0.6116
 8186TIP3    H145973   6.880   1.096  13.641  0.0624  1.2737  1.3021
 8186TIP3    H245974   6.749   1.031  13.604  0.4604  1.3938 -0.3976
 8187TIP3   OH245975   2.868   5.033  16.822 -0.3109 -0.0372  0.2206
 8187TIP3    H145976   2.783   5.040  16.780 -0.4882 -0.7213  0.4479
 8187TIP3    H245977   2.926   4.998  16.754 -0.4643 -0.5890  0.3661
 8188TIP3   OH245978   6.642   4.073   5.066  0.1407  0.1370 -0.0100
 8188TIP3    H145979   6.587   4.139   5.109 -0.1958  0.1058 -0.3831
 8188TIP3    H245980   6.699   4.124   5.008  0.9944  0.2297  0.8822
 8189TIP3   OH245981   5.570   1.783  15.471 -0.0794 -0.2926  0.2198
 8189TIP3    H145982   5.585   1.693  15.500  0.9430 -1.0253 -2.3243
 8189TIP3    H245983   5.658   1.821  15.464 -0.3147  0.0264 -1.2529
 8190TIP3   OH245984   3.531   0.870   5.576  0.1641 -0.1848  0.0838
 8190TIP3    H145985   3.572   0.839   5.496  0.8237  0.9106 -0.0180
 8190TIP3    H245986   3.604   0.887   5.636 -0.2386  0.2970  0.4451
 8191TIP3   OH245987   2.678   2.502   4.615  0.3820  0.1256 -0.1371
 8191TIP3    H145988   2.663   2.521   4.522 -2.4583 -3.5649 -0.6949
 8191TIP3    H245989   2.666   2.586   4.659  1.5633  1.9504 -3.0173
 8192TIP3   OH245990   6.628   3.853  14.782 -0.6095  0.4055 -0.2619
 8192TIP3    H145991   6.635   3.807  14.866 -1.1052 -0.5691 -0.7340
 8192TIP3    H245992   6.670   3.795  14.719 -0.0658  1.2240 -0.6588
 8193TIP3   OH245993   2.143   1.820   4.262 -0.3730  0.3722 -0.4068
 8193TIP3    H145994   2.051   1.830   4.238 -0.1796 -0.9217 -1.7911
 8193TIP3    H245995   2.173   1.910   4.279 -2.3380  0.6828  2.0767
 8194TIP3   OH245996   5.434   3.621   1.341  0.3655 -0.2851  0.2814
 8194TIP3    H145997   5.362   3.679   1.318 -0.6203 -0.8434  1.7684
 8194TIP3    H245998   5.512   3.675   1.336 -0.2169  0.4717 -0.8681
 8195TIP3   OH245999   3.833   6.805  15.388  0.2257  0.0651 -0.2425
 8195TIP3    H146000   3.803   6.889  15.354  0.1995 -0.5469 -1.8169
 8195TIP3    H246001   3.779   6.740  15.342  1.7354 -0.9029 -0.7122
 8196TIP3   OH246002   2.633   1.855   5.068 -0.3529 -0.1489 -0.1333
 8196TIP3    H146003   2.666   1.939   5.100 -0.1894 -0.8821  1.7518
 8196TIP3    H246004   2.547   1.846   5.110 -0.7979 -0.4937 -1.0914
 8197TIP3   OH246005   4.405   2.434  14.652  0.1639  0.3733  0.3529
 8197TIP3    H146006   4.488   2.400  14.685  1.7840  2.3324 -1.4609
 8197TIP3    H246007   4.338   2.392  14.707  2.3720 -0.5296  2.5082
 8198TIP3   OH246008   2.387   4.012  10.632  0.0398 -0.0494  0.1389
 8198TIP3    H146009   2.451   3.991  10.564 -0.8779 -0.5982 -0.5838
 8198TIP3    H246010   2.427   4.083  10.682  0.9283  0.0529 -0.6887
 8199TIP3   OH246011   6.364   6.213  16.188 -0.0631 -0.0755  0.2220
 8199TIP3    H146012   6.360   6.179  16.277 -1.4575  1.3255  0.7269
 8199TIP3    H246013   6.412   6.295  16.196  0.1496 -0.1315 -0.3967
 8200TIP3   OH246014   1.185   2.826  12.551  0.0721  0.3127 -0.1466
 8200TIP3    H146015   1.121   2.896  12.537 -0.5560 -0.0634  0.7231
 8200TIP3    H246016   1.270   2.867  12.535 -0.2433  1.4399  0.9238
 8201TIP3   OH246017   3.508   5.172  11.193  0.1877  0.1756 -0.5260
 8201TIP3    H146018   3.510   5.197  11.286 -2.9563  1.7991 -0.7603
 8201TIP3    H246019   3.552   5.245  11.148  2.9157 -1.2332 -0.3220
 8202TIP3   OH246020   5.229   0.132   0.615 -0.4206  0.1403  0.8559
 8202TIP3    H146021   5.210   0.225   0.605 -3.2158 -0.4344 -0.0839
 8202TIP3    H246022   5.268   0.107   0.531  1.3098  0.6103  1.4789
 8203TIP3   OH246023   1.305   2.136   4.378 -0.0784  0.0996 -0.9292
 8203TIP3    H146024   1.232   2.108   4.434  0.5339 -0.0569 -0.1830
 8203TIP3    H246025   1.306   2.231   4.385  0.1712  0.0615 -0.4481
 8204TIP3   OH246026   1.408   3.527   4.790 -0.4599 -0.2418 -0.0370
 8204TIP3    H146027   1.401   3.438   4.822 -1.5148  0.2946  1.3262
 8204TIP3    H246028   1.461   3.572   4.856  0.2211  0.1120 -0.8061
 8205TIP3   OH246029   5.269   3.251   1.365 -0.4014  0.1601 -0.0630
 8205TIP3    H146030   5.326   3.327   1.358  1.7990 -1.3770  0.2432
 8205TIP3    H246031   5.307   3.187   1.305  1.1200 -2.5972  3.4893
 8206TIP3   OH246032   1.065   3.389  11.048 -0.6466 -0.0072  0.0347
 8206TIP3    H146033   1.079   3.294  11.051 -1.4752 -0.1361 -0.0774
 8206TIP3    H246034   1.041   3.407  10.957 -0.5184  0.3125  0.0627
 8207TIP3   OH246035   5.974   4.422  14.168  0.8375  0.0153  0.1763
 8207TIP3    H146036   5.968   4.409  14.263 -2.3330  0.4412  0.1502
 8207TIP3    H246037   5.950   4.514  14.155  1.6162  0.0673 -1.0351
 8208TIP3   OH246038   0.365   5.407   2.915 -0.1362  0.0095  0.2782
 8208TIP3    H146039   0.356   5.343   2.986 -0.7170  0.4568  0.6119
 8208TIP3    H246040   0.427   5.366   2.855 -0.4066 -0.8224  0.5414
 8209TIP3   OH246041   5.262   1.485  15.170 -0.5179 -0.8676  0.1351
 8209TIP3    H146042   5.305   1.562  15.206  3.4937 -1.6942 -2.3127
 8209TIP3    H246043   5.210   1.519  15.097 -1.6984 -0.1833  1.2502
 8210TIP3   OH246044   4.235   3.447   0.189  0.6116  0.1099 -0.4282
 8210TIP3    H146045   4.194   3.511   0.131  2.1290  1.1912 -0.3498
 8210TIP3    H246046   4.168   3.429   0.255 -0.2622  0.7081 -1.1199
 8211TIP3   OH246047   3.127   3.948  16.370 -0.3220  0.8718  0.1484
 8211TIP3    H146048   3.127   3.957  16.466 -0.1382 -0.5243  0.2944
 8211TIP3    H246049   3.187   3.876  16.353 -0.6740  0.8360 -1.0039
 8212TIP3   OH246050   1.988   4.896  14.275 -0.1023 -0.4004 -0.1478
 8212TIP3    H146051   1.953   4.847  14.201 -1.0825 -2.9731  1.8501
 8212TIP3    H246052   1.923   4.965  14.291 -1.0274 -1.2000 -0.3548
 8213TIP3   OH246053   4.261   1.697   0.240  0.2223  0.1170  0.5163
 8213TIP3    H146054   4.181   1.738   0.272  0.1685 -0.1886  0.7726
 8213TIP3    H246055   4.329   1.724   0.301  0.3061  0.3308  0.3306
 8214TIP3   OH246056   2.271   0.356   4.489  0.8970 -0.1986 -0.8480
 8214TIP3    H146057   2.341   0.322   4.543  1.8749  0.9655 -1.3463
 8214TIP3    H246058   2.315   0.393   4.412 -0.2363  0.6547 -1.1223
 8215TIP3   OH246059   6.472   4.381  16.047  0.2383  0.3183  0.4642
 8215TIP3    H146060   6.388   4.379  16.093  0.1902  0.6987  0.3955
 8215TIP3    H246061   6.450   4.368  15.955  0.0009  2.6495  0.1211
 8216TIP3   OH246062   1.877   1.748  11.531 -0.3127  0.4359  0.5015
 8216TIP3    H146063   1.892   1.800  11.452 -1.0871  1.2359  0.8569
 8216TIP3    H246064   1.964   1.718  11.557  0.4064  2.7284  1.0500
 8217TIP3   OH246065   0.461   2.929  16.322 -0.2264 -0.0963  0.4875
 8217TIP3    H146066   0.451   2.986  16.246 -1.8042  0.8954  1.3917
 8217TIP3    H246067   0.380   2.877  16.325  0.1026 -0.5990  1.1120
 8218TIP3   OH246068   1.368   0.721   5.329 -0.2557 -0.1098  0.1106
 8218TIP3    H146069   1.354   0.649   5.390 -0.0270  1.0684  1.5893
 8218TIP3    H246070   1.297   0.783   5.348  0.8027  1.0445  0.3585
 8219TIP3   OH246071   5.986   0.671   5.671  0.7201  0.6138  0.0390
 8219TIP3    H146072   6.043   0.599   5.697  0.2840  0.2648  0.0333
 8219TIP3    H246073   6.013   0.691   5.581 -0.6049 -1.0171 -0.7849
 8220TIP3   OH246074   0.853   1.256  14.644 -0.1022  0.4593 -0.5893
 8220TIP3    H146075   0.765   1.240  14.677 -0.2785  0.2827 -1.1310
 8220TIP3    H246076   0.889   1.324  14.701 -0.0807 -0.4344  0.4834
 8221TIP3   OH246077   5.425   0.700  16.596 -0.3898  0.1729  0.0949
 8221TIP3    H146078   5.517   0.674  16.605 -0.2885  0.7012  0.6759
 8221TIP3    H246079   5.408   0.696  16.502  0.6589  1.4751 -0.1751
 8222TIP3   OH246080   5.156   1.086   0.439  0.9104 -0.3206 -0.2200
 8222TIP3    H146081   5.129   1.073   0.529 -0.1117 -0.3357 -0.5220
 8222TIP3    H246082   5.252   1.090   0.443  0.8217  2.0622  1.1894
 8223TIP3   OH246083   1.735   2.329  15.353  0.2416  0.4711 -0.1399
 8223TIP3    H146084   1.685   2.347  15.433 -0.0523  0.3437 -0.2920
 8223TIP3    H246085   1.807   2.274  15.383  0.7384  1.2960  0.2055
 8224TIP3   OH246086   3.615   0.815  16.312 -0.3262 -0.7396  0.3522
 8224TIP3    H146087   3.646   0.737  16.267  0.8350  0.2910 -0.7125
 8224TIP3    H246088   3.626   0.796  16.405  1.0513 -1.4186  0.0734
 8225TIP3   OH246089   5.310   1.715   5.182 -0.2527  0.1215  0.5452
 8225TIP3    H146090   5.324   1.677   5.095 -3.5065  2.2839 -1.1672
 8225TIP3    H246091   5.350   1.802   5.176  0.1844 -0.0060  1.5150
 8226TIP3   OH246092   5.322   2.062   0.174 -0.3028 -0.0851  0.2021
 8226TIP3    H146093   5.385   2.128   0.146 -0.2167 -0.6480 -0.9994
 8226TIP3    H246094   5.237   2.094   0.142 -0.5882  0.4936  1.5012
 8227TIP3   OH246095   3.262   3.796  16.837  0.5112 -0.7115  0.1021
 8227TIP3    H146096   3.297   3.865  16.781  0.3902 -1.4659 -0.9215
 8227TIP3    H246097   3.187   3.761  16.789 -0.4637 -0.4457  1.3730
 8228TIP3   OH246098   4.474   0.335   1.252  0.7423 -0.1826 -0.4680
 8228TIP3    H146099   4.420   0.326   1.330 -0.2974  0.9344 -1.0204
 8228TIP3    H246100   4.535   0.406   1.274  0.7369 -0.1605 -0.5247
 8229TIP3   OH246101   4.138   4.338   1.738  0.0902 -0.3200  0.6986
 8229TIP3    H146102   4.206   4.318   1.802  1.0352  1.1668  0.2143
 8229TIP3    H246103   4.174   4.411   1.687 -0.1085 -2.1115 -2.2789
 8230TIP3   OH246104   3.548   0.536   5.406  0.0795 -0.2249 -0.2103
 8230TIP3    H146105   3.576   0.626   5.390  1.7604 -0.7043 -0.0781
 8230TIP3    H246106   3.459   0.545   5.441 -0.2630  1.3006 -1.3430
 8231TIP3   OH246107   4.932   5.972  11.282  0.4144  0.1753  0.0101
 8231TIP3    H146108   4.925   6.013  11.368  0.3442  2.5103 -1.0516
 8231TIP3    H246109   4.883   6.029  11.223 -0.9447 -2.2266 -1.3666
 8232TIP3   OH246110   5.660   4.349   0.109  0.8570 -0.0358  0.3953
 8232TIP3    H146111   5.675   4.320   0.199  1.4669 -0.5322  0.1383
 8232TIP3    H246112   5.598   4.422   0.118  1.2730  0.2297  1.2496
 8233TIP3   OH246113   1.070   1.273   0.605  0.0010 -0.5241 -0.2147
 8233TIP3    H146114   1.073   1.251   0.512 -0.2593 -1.6221  0.0253
 8233TIP3    H246115   1.080   1.368   0.607  1.7890 -0.6493 -1.2494
 8234TIP3   OH246116   6.301   3.691  13.182 -0.6827  0.1766  0.7504
 8234TIP3    H146117   6.380   3.690  13.236 -1.5093  2.7261  2.1825
 8234TIP3    H246118   6.305   3.774  13.135 -2.2262  0.1122  0.4276
 8235TIP3   OH246119   6.007   2.992  11.978 -0.2168  0.0023 -0.1246
 8235TIP3    H146120   5.962   2.908  11.968 -0.7008  0.3231 -0.6756
 8235TIP3    H246121   5.984   3.022  12.066 -2.5138  0.9908 -0.9945
 8236TIP3   OH246122   6.411   5.167  16.359 -0.1246 -0.1753  0.6331
 8236TIP3    H146123   6.493   5.120  16.370  0.0680 -0.0389 -0.1909
 8236TIP3    H246124   6.347   5.115  16.409 -0.0113 -1.5686 -0.6023
 8237TIP3   OH246125   5.433   2.353   0.655  0.0885  0.3396 -0.1786
 8237TIP3    H146126   5.408   2.444   0.672 -1.2752  0.5921 -2.9145
 8237TIP3    H246127   5.527   2.356   0.642  0.3476  0.9998  1.6001
 8238TIP3   OH246128   5.045   6.502   5.736  0.0080 -0.0452 -1.2107
 8238TIP3    H146129   5.085   6.418   5.761 -1.2406 -0.1698  0.5637
 8238TIP3    H246130   5.063   6.560   5.810 -1.1563  0.5363 -1.3562
 8239TIP3   OH246131   3.212   2.759   3.261  0.2088 -0.2408  0.2351
 8239TIP3    H146132   3.187   2.756   3.168 -1.6611 -0.0202  0.6881
 8239TIP3    H246133   3.278   2.828   3.266  1.0056 -0.8647 -1.0509
 8240TIP3   OH246134   2.035   4.055  13.841 -0.8963  0.6565 -0.0610
 8240TIP3    H146135   1.954   4.054  13.891 -0.7524  0.6772  0.1745
 8240TIP3    H246136   2.007   4.048  13.749 -1.1536  0.5133  0.0280
 8241TIP3   OH246137   2.227   3.138  13.027  0.1586 -0.5948  0.5387
 8241TIP3    H146138   2.213   3.217  13.079  0.0125 -0.0738 -0.2660
 8241TIP3    H246139   2.322   3.131  13.018  0.1637 -0.3647  0.4058
 8242TIP3   OH246140   4.256   5.270   0.233 -0.7232  0.0972  0.3441
 8242TIP3    H146141   4.335   5.302   0.189 -0.5092 -1.8934 -0.8358
 8242TIP3    H246142   4.262   5.305   0.322  1.0143  0.7436  0.0054
 8243TIP3   OH246143   5.534   5.075   6.008  0.2259 -0.0744  0.6846
 8243TIP3    H146144   5.546   5.153   5.955 -1.0130 -0.4104 -0.1295
 8243TIP3    H246145   5.554   5.104   6.097  1.1017  0.8138  0.2226
 8244TIP3   OH246146   5.137   0.075   4.729 -0.4638 -0.9487  0.1764
 8244TIP3    H146147   5.223   0.093   4.691 -0.4097 -2.7633 -0.6522
 8244TIP3    H246148   5.133   0.132   4.806  1.4624 -0.8074  0.2277
 8245TIP3   OH246149   0.987   3.548   1.286 -0.0778 -0.1844 -0.5249
 8245TIP3    H146150   0.920   3.481   1.270  0.2989 -0.8693  0.6880
 8245TIP3    H246151   1.059   3.501   1.327 -1.3155  1.4603  4.2303
 8246TIP3   OH246152   6.658   4.583  16.899  0.1386 -0.1063  0.4181
 8246TIP3    H146153   6.653   4.627  16.813 -0.8619 -1.2875 -0.1557
 8246TIP3    H246154   6.729   4.521  16.890 -1.0780 -1.4724 -0.1932
 8247TIP3   OH246155   0.893   5.357   1.480 -0.7061  0.3876  0.0002
 8247TIP3    H146156   0.803   5.386   1.499 -0.4222  1.4121 -0.1445
 8247TIP3    H246157   0.946   5.436   1.489 -0.1396  0.3215 -2.2018
 8248TIP3   OH246158   5.679   6.250   5.552  0.3495 -0.4580 -0.1430
 8248TIP3    H146159   5.636   6.203   5.624  0.0918 -0.6209 -0.3945
 8248TIP3    H246160   5.771   6.225   5.558  0.1505 -1.3488 -0.5225
 8249TIP3   OH246161   3.735   2.542   3.387 -0.3677 -0.1139  0.1564
 8249TIP3    H146162   3.745   2.631   3.419  0.9842  0.3179 -1.2887
 8249TIP3    H246163   3.734   2.487   3.465  1.7753  0.9387  0.9852
 8250TIP3   OH246164   1.458   6.404   5.604 -0.1801 -0.2722 -0.2112
 8250TIP3    H146165   1.433   6.369   5.689 -0.7983  0.1534 -0.2158
 8250TIP3    H246166   1.554   6.397   5.603 -0.0961  0.4462  0.8421
 8251TIP3   OH246167   6.010   0.481   1.172  0.1279  0.0207 -0.1351
 8251TIP3    H146168   5.921   0.490   1.138  0.7043  0.4784 -1.5948
 8251TIP3    H246169   6.012   0.535   1.251 -1.1043 -0.6589  0.3795
 8252TIP3   OH246170   3.426   1.272  12.242 -0.0431 -0.1677  0.5140
 8252TIP3    H146171   3.393   1.362  12.240 -0.5404 -0.3414  0.6435
 8252TIP3    H246172   3.349   1.219  12.263 -0.5652 -0.9740 -2.8048
 8253TIP3   OH246173   5.486   1.643  12.177  0.9645  0.3925  0.0994
 8253TIP3    H146174   5.555   1.589  12.138  1.1081  0.5675  0.1094
 8253TIP3    H246175   5.419   1.649  12.110  2.9739  4.1918 -1.8706
 8254TIP3   OH246176   1.743   0.773  13.327 -0.6760 -0.3552 -1.3436
 8254TIP3    H146177   1.736   0.680  13.350  3.5556 -0.3233  1.0488
 8254TIP3    H246178   1.815   0.777  13.264  1.4588  1.3970  1.0016
 8255TIP3   OH246179   5.488   3.311  16.606  0.0542  0.4765  0.0698
 8255TIP3    H146180   5.506   3.401  16.578  1.6137  0.1728 -0.0001
 8255TIP3    H246181   5.422   3.279  16.545  0.3151  1.2103 -0.6012
 8256TIP3   OH246182   2.261   2.255  15.403  0.5768  0.2189 -0.3551
 8256TIP3    H146183   2.305   2.301  15.331 -1.4672  2.0342 -0.5707
 8256TIP3    H246184   2.232   2.325  15.461 -0.0278 -1.0554  0.9308
 8257TIP3   OH246185   0.800   3.173  16.349 -0.0979 -0.2254 -0.1468
 8257TIP3    H146186   0.775   3.100  16.405 -3.1802 -0.0461 -1.0906
 8257TIP3    H246187   0.822   3.133  16.265 -0.4463 -0.1796 -0.2628
 8258TIP3   OH246188   3.001   4.181   4.777  0.1420  0.5712 -0.0015
 8258TIP3    H146189   2.935   4.229   4.827 -0.9767 -0.6432 -0.2460
 8258TIP3    H246190   2.963   4.094   4.765  0.8244  0.5081 -2.0653
 8259TIP3   OH246191   4.441   2.538  16.468  0.2510  0.9493 -0.1170
 8259TIP3    H146192   4.482   2.490  16.396  0.0052  0.2103  0.2185
 8259TIP3    H246193   4.348   2.539  16.446 -0.0903 -0.8332  1.0107
 8260TIP3   OH246194   5.776   2.896  10.951 -0.5826 -0.3715 -0.2007
 8260TIP3    H146195   5.772   2.979  10.904  1.3986 -0.0606  0.0825
 8260TIP3    H246196   5.856   2.853  10.919 -1.5656 -2.1979 -0.3574
 8261TIP3   OH246197   4.544   5.548   2.244  0.2697 -0.0580 -0.2857
 8261TIP3    H146198   4.497   5.617   2.290 -0.6729 -0.5600 -0.4461
 8261TIP3    H246199   4.598   5.506   2.311 -0.9046 -0.6316  0.3335
 8262TIP3   OH246200   1.562   4.956   1.295  0.1678  0.5219  0.4983
 8262TIP3    H146201   1.509   4.876   1.288  0.3986  0.3942  0.1682
 8262TIP3    H246202   1.503   5.026   1.266 -0.3193  0.6011  1.6310
 8263TIP3   OH246203   4.554   4.286   3.938 -0.2440  0.4875 -0.4808
 8263TIP3    H146204   4.554   4.355   4.005  1.5631 -0.2321  0.3360
 8263TIP3    H246205   4.528   4.331   3.858 -2.4517  1.3767  0.6428
 8264TIP3   OH246206   6.130   2.798  13.088  0.1252 -0.1091 -0.1741
 8264TIP3    H146207   6.210   2.775  13.134  0.1296  0.6225  0.1928
 8264TIP3    H246208   6.077   2.718  13.090  0.1693 -0.1122  1.0143
 8265TIP3   OH246209   3.143   5.451  13.774 -0.2199  0.0942 -0.0286
 8265TIP3    H146210   3.144   5.547  13.767 -0.5309  0.1229  0.3004
 8265TIP3    H246211   3.158   5.434  13.867 -1.6326 -0.1394  0.1781
 8266TIP3   OH246212   5.201   5.829   1.902  0.4284 -0.0365 -0.3611
 8266TIP3    H146213   5.134   5.890   1.932  0.1506 -0.6776  0.3257
 8266TIP3    H246214   5.283   5.879   1.906  0.2612  0.1637  0.5785
 8267TIP3   OH246215   6.184   3.743   4.713 -0.6502  0.6541  0.2777
 8267TIP3    H146216   6.248   3.795   4.762 -1.6787  1.8474  0.3696
 8267TIP3    H246217   6.099   3.777   4.739 -1.3912 -1.3720  0.6744
 8268TIP3   OH246218   2.353   4.473  15.666  0.2301  0.0565  0.0365
 8268TIP3    H146219   2.273   4.526  15.670 -0.0147 -0.2767 -0.3868
 8268TIP3    H246220   2.424   4.537  15.656  0.0681  0.3855  0.9195
 8269TIP3   OH246221   6.657   1.147  13.241  0.0224 -0.5163 -0.5921
 8269TIP3    H146222   6.602   1.164  13.318  2.5905 -3.5428  2.2183
 8269TIP3    H246223   6.602   1.094  13.184 -0.8368 -1.3582  0.9490
 8270TIP3   OH246224   3.419   5.941   3.157 -0.3263  0.3184 -0.3395
 8270TIP3    H146225   3.420   6.015   3.217  1.1834  0.7300 -0.8227
 8270TIP3    H246226   3.392   5.978   3.073  1.3698  0.5697 -0.8187
 8271TIP3   OH246227   2.247   2.416  11.754  0.0475 -0.2885  0.4766
 8271TIP3    H146228   2.248   2.485  11.820 -1.0880 -1.0295  1.3085
 8271TIP3    H246229   2.320   2.437  11.696 -2.2998  3.6571 -1.4771
 8272TIP3   OH246230   4.664   5.509  16.807  0.4713 -0.1827  0.0295
 8272TIP3    H146231   4.749   5.515  16.764  0.4086 -0.4637 -0.1402
 8272TIP3    H246232   4.652   5.593  16.850  1.3740 -0.5807  1.0888
 8273TIP3   OH246233   3.809   2.803   4.785  0.0810 -0.2942  0.0738
 8273TIP3    H146234   3.748   2.766   4.848  2.3904 -0.8472  2.1306
 8273TIP3    H246235   3.839   2.885   4.824  0.8597 -0.1736 -0.7218
 8274TIP3   OH246236   2.921   0.819  16.891 -0.4093  0.2532  0.0982
 8274TIP3    H146237   2.866   0.747  16.921 -3.9184  2.5842 -0.2205
 8274TIP3    H246238   2.977   0.780  16.824  0.2659 -2.7949  2.2314
 8275TIP3   OH246239   1.415   2.971  11.351  0.2986  0.1990 -0.4450
 8275TIP3    H146240   1.394   2.940  11.262 -0.2404  1.2983 -0.7223
 8275TIP3    H246241   1.441   2.892  11.398  0.5419 -0.4163 -1.5654
 8276TIP3   OH246242   1.551   2.246   5.257  0.1782 -0.2334  0.0910
 8276TIP3    H146243   1.581   2.269   5.169  0.4321 -2.2697 -0.4122
 8276TIP3    H246244   1.628   2.256   5.312 -0.1075  1.5524  0.2296
 8277TIP3   OH246245   0.410   4.127  16.225 -0.1821 -0.5875  0.2177
 8277TIP3    H146246   0.501   4.152  16.207 -0.6290  2.5183  1.6238
 8277TIP3    H246247   0.402   4.134  16.321 -1.7372 -1.5051  0.1917
 8278TIP3   OH246248   3.571   5.890  16.884 -0.3829  0.3527 -0.8636
 8278TIP3    H146249   3.641   5.884  16.818  1.5928 -0.2118  1.1701
 8278TIP3    H246250   3.493   5.857  16.839  0.6200  1.0237 -3.2362
 8279TIP3   OH246251   4.492   0.425   2.160 -0.2851  0.5829  0.2517
 8279TIP3    H146252   4.571   0.421   2.106 -0.5858  0.2139 -0.1697
 8279TIP3    H246253   4.501   0.350   2.220 -0.6669  0.0919 -0.2954
 8280TIP3   OH246254   4.638   2.916  16.341  1.5139  0.1186  0.1115
 8280TIP3    H146255   4.687   2.839  16.371  3.2010  0.1427 -2.2563
 8280TIP3    H246256   4.546   2.889  16.344  2.0907 -2.5194 -1.7502
 8281TIP3   OH246257   0.558   1.605  11.869 -0.1141 -0.6227  0.0985
 8281TIP3    H146258   0.599   1.519  11.876 -0.7952 -0.9888 -0.3581
 8281TIP3    H246259   0.471   1.588  11.831 -1.9808 -0.2459  3.7822
 8282TIP3   OH246260   2.105   5.520  11.562 -0.1337  0.0917 -0.2582
 8282TIP3    H146261   2.096   5.613  11.544  2.5787  0.0674 -2.3665
 8282TIP3    H246262   2.173   5.515  11.629 -0.3794 -0.3639 -0.0382
 8283TIP3   OH246263   0.212   6.414   4.156 -0.4285 -0.0405 -0.2026
 8283TIP3    H146264   0.146   6.355   4.192  0.8289 -0.7161  1.1164
 8283TIP3    H246265   0.251   6.365   4.084 -1.2386  0.3043 -0.8924
 8284TIP3   OH246266   1.710   2.347  15.642 -0.0717 -0.0856 -0.2818
 8284TIP3    H146267   1.756   2.284  15.696  2.0035  1.7338  0.2335
 8284TIP3    H246268   1.769   2.423  15.638 -1.3515  0.9135 -2.8269
 8285TIP3   OH246269   2.078   5.314  10.083  0.5605  0.0837 -0.0362
 8285TIP3    H146270   2.102   5.226  10.111 -1.3553 -0.7058 -0.7256
 8285TIP3    H246271   2.029   5.302  10.002  1.3318  1.9021 -0.8460
 8286TIP3   OH246272   4.926   6.294  16.250  0.3606  0.4128 -0.2047
 8286TIP3    H146273   4.842   6.282  16.293 -0.7213 -2.2494 -2.6835
 8286TIP3    H246274   4.964   6.371  16.291 -3.3829  1.9065  0.8735
 8287TIP3   OH246275   3.972   2.625  13.240 -0.1475  0.2485  0.2374
 8287TIP3    H146276   3.944   2.652  13.152  2.3261 -0.0236 -0.7260
 8287TIP3    H246277   4.027   2.697  13.270 -1.1771  0.4614  1.7337
 8288TIP3   OH246278   3.056   3.085  13.514 -0.2451  0.5993  0.0796
 8288TIP3    H146279   2.964   3.105  13.530 -0.9110 -0.6001 -1.9136
 8288TIP3    H246280   3.073   3.121  13.427  0.2714 -1.7946 -0.8844
 8289TIP3   OH246281   2.469   5.293   3.351 -0.3193  0.1372  0.2149
 8289TIP3    H146282   2.451   5.228   3.419 -2.0002 -0.8652 -1.1034
 8289TIP3    H246283   2.382   5.326   3.327  0.2425  0.5217 -1.3638
 8290TIP3   OH246284   0.468   3.203   5.160  0.1575 -0.4228 -0.2675
 8290TIP3    H146285   0.519   3.274   5.200  1.1354  0.5835 -3.1060
 8290TIP3    H246286   0.378   3.220   5.190  0.7474  0.5423  1.0740
 8291TIP3   OH246287   4.503   1.163   4.743 -0.1401 -0.2020  0.3372
 8291TIP3    H146288   4.569   1.211   4.795  0.7172  0.9440 -1.7126
 8291TIP3    H246289   4.419   1.192   4.779  0.4265 -0.1143  1.6546
 8292TIP3   OH246290   3.358   4.390  14.537 -0.2319  0.0436  0.4943
 8292TIP3    H146291   3.389   4.378  14.627 -0.6970 -0.3047  0.6098
 8292TIP3    H246292   3.290   4.324  14.526  0.9123 -1.0186 -0.6419
 8293TIP3   OH246293   2.531   2.019  14.458 -0.0131 -0.4659  0.1749
 8293TIP3    H146294   2.524   2.094  14.518 -0.2261  1.0119 -1.5995
 8293TIP3    H246295   2.523   2.058  14.371 -0.7841 -2.6581 -0.8007
 8294TIP3   OH246296   3.421   3.302  15.199 -0.8926  0.5080 -0.4168
 8294TIP3    H146297   3.391   3.267  15.282 -0.7881  1.9549  0.2670
 8294TIP3    H246298   3.512   3.329  15.216 -0.8843  0.8556 -0.9742
 8295TIP3   OH246299   5.727   0.761   0.542 -0.1520 -0.1637 -0.1146
 8295TIP3    H146300   5.783   0.792   0.471 -1.1126  0.9117 -0.4363
 8295TIP3    H246301   5.645   0.734   0.499 -0.3144 -0.6222  0.4600
 8296TIP3   OH246302   0.571   6.099  12.562  0.1477  0.5138 -0.5393
 8296TIP3    H146303   0.547   6.126  12.473  0.3795  2.3685 -0.0747
 8296TIP3    H246304   0.661   6.131  12.574  0.7724 -1.2254 -0.2049
 8297TIP3   OH246305   3.794   4.428   3.820  0.0951 -0.5304  0.0009
 8297TIP3    H146306   3.766   4.493   3.885  1.7461  1.4041 -1.1294
 8297TIP3    H246307   3.830   4.356   3.873  1.0432  0.8107  1.2581
 8298TIP3   OH246308   5.919   4.670   0.943 -0.0905  0.2054  0.4465
 8298TIP3    H146309   5.908   4.746   1.001 -0.4850 -0.2758  1.0076
 8298TIP3    H246310   6.010   4.644   0.953 -0.5272 -0.8171  2.0403
 8299TIP3   OH246311   3.508   3.899   3.615 -0.4628  0.0598  0.3254
 8299TIP3    H146312   3.528   3.972   3.556 -1.5358 -0.2514 -0.4476
 8299TIP3    H246313   3.564   3.828   3.584  1.8524  0.9545  2.1135
 8300TIP3   OH246314   2.040   2.661   2.651  0.0249 -0.5241  0.4417
 8300TIP3    H146315   2.050   2.575   2.610 -0.3250 -1.6173  2.5207
 8300TIP3    H246316   1.947   2.681   2.642 -0.0309 -0.7133  0.5820
 8301TIP3   OH246317   5.072   4.023  13.755 -0.2689  0.6418 -0.0568
 8301TIP3    H146318   4.982   4.054  13.746 -0.5856 -0.4927 -1.2352
 8301TIP3    H246319   5.124   4.102  13.772 -1.6229  1.1580  1.9327
 8302TIP3   OH246320   2.014   1.914   0.895  0.2144  0.1634 -0.3278
 8302TIP3    H146321   2.007   1.862   0.815 -0.3522  0.8207 -0.7283
 8302TIP3    H246322   2.035   2.002   0.864  1.9558  0.0246  0.3889
 8303TIP3   OH246323   5.053   6.385   4.201 -0.0564  0.4213  1.0582
 8303TIP3    H146324   4.958   6.392   4.204 -0.3616 -0.6991 -2.0595
 8303TIP3    H246325   5.083   6.472   4.174 -0.0930  0.8644  2.3366
 8304TIP3   OH246326   3.094   2.420   0.572  0.5492  0.3055 -0.1518
 8304TIP3    H146327   3.096   2.431   0.667 -1.3591 -2.5380  0.3307
 8304TIP3    H246328   3.186   2.417   0.546  1.1087  1.5254  1.4980
 8305TIP3   OH246329   6.508   1.414  11.585 -0.3690 -0.2797 -0.0886
 8305TIP3    H146330   6.488   1.392  11.494 -1.0142 -1.4769  0.3309
 8305TIP3    H246331   6.434   1.382  11.635  1.1797 -2.1396  1.1665
 8306TIP3   OH246332   6.453   6.174   0.262  0.2481  0.3980 -0.0817
 8306TIP3    H146333   6.358   6.166   0.266  0.3292 -0.6440  0.1415
 8306TIP3    H246334   6.484   6.122   0.337  1.0504 -0.9181 -1.2743
 8307TIP3   OH246335   1.107   6.243  16.312  0.2016 -0.0770  0.5120
 8307TIP3    H146336   1.053   6.295  16.371  0.2020 -0.4116  0.8088
 8307TIP3    H246337   1.128   6.163  16.361  0.6647 -0.1111  0.2693
 8308TIP3   OH246338   2.613   2.430  13.176 -0.0782  0.1926 -0.2165
 8308TIP3    H146339   2.615   2.336  13.160  0.0241 -0.0309  1.0155
 8308TIP3    H246340   2.520   2.453  13.174 -0.2935 -0.3591  1.6530
 8309TIP3   OH246341   2.777   4.078  11.447  0.3093 -0.1517 -0.2095
 8309TIP3    H146342   2.798   4.001  11.501 -1.0469 -0.4719 -0.1067
 8309TIP3    H246343   2.762   4.043  11.360 -2.0240 -0.2888  0.1893
 8310TIP3   OH246344   1.908   2.744   1.815  0.6851 -0.5370 -0.0226
 8310TIP3    H146345   1.977   2.684   1.844 -1.0484 -2.8555 -0.3902
 8310TIP3    H246346   1.934   2.829   1.850  0.8345 -2.3148  4.8724
 8311TIP3   OH246347   1.768   5.847  11.759  0.1407  0.1650 -0.2618
 8311TIP3    H146348   1.701   5.858  11.691 -0.8543  0.0530  0.6669
 8311TIP3    H246349   1.766   5.930  11.807 -1.9091 -1.0486  1.9723
 8312TIP3   OH246350   4.494   1.404  15.953  0.7192  0.4280 -0.2353
 8312TIP3    H146351   4.427   1.469  15.972 -0.6077 -1.0716  0.4324
 8312TIP3    H246352   4.466   1.364  15.870 -0.7976 -2.0235  1.3237
 8313TIP3   OH246353   0.852   2.812   3.305  0.0235 -0.2188  0.0683
 8313TIP3    H146354   0.862   2.870   3.381 -0.8828 -0.0103  0.0404
 8313TIP3    H246355   0.937   2.815   3.262  0.1079  0.8084  0.2749
 8314TIP3   OH246356   4.860   1.435   0.762  0.7315 -0.1894  0.4155
 8314TIP3    H146357   4.806   1.511   0.782  1.7818  0.5332  0.5969
 8314TIP3    H246358   4.824   1.400   0.681 -1.0587 -0.7495  1.3912
 8315TIP3   OH246359   2.670   5.824   0.416  0.2101  0.1924 -0.0225
 8315TIP3    H146360   2.699   5.840   0.506 -2.7231 -0.5456  1.1891
 8315TIP3    H246361   2.623   5.904   0.392 -1.1614 -0.5266  0.1267
 8316TIP3   OH246362   6.061   3.051  10.935 -0.0461 -0.1656 -0.3751
 8316TIP3    H146363   5.999   3.062  11.008 -0.0058 -1.0635 -0.1949
 8316TIP3    H246364   6.145   3.033  10.978  0.4434  1.4049 -0.6094
 8317TIP3   OH246365   0.378   4.752   0.339  0.0316  0.1405  0.0171
 8317TIP3    H146366   0.360   4.845   0.336 -1.5389 -0.1520 -0.4595
 8317TIP3    H246367   0.296   4.712   0.367  0.5244 -1.1436 -0.2757
 8318TIP3   OH246368   5.234   5.320  14.231 -0.1506 -0.6397  0.2037
 8318TIP3    H146369   5.265   5.248  14.176  2.6709 -1.7886  2.9847
 8318TIP3    H246370   5.243   5.287  14.321 -0.5552  2.5398  1.5323
 8319TIP3   OH246371   1.876   5.154  16.465 -0.5746 -0.9214 -0.2651
 8319TIP3    H146372   1.786   5.162  16.497  0.1619  1.1712  1.5589
 8319TIP3    H246373   1.920   5.103  16.532  0.8966  3.1681  2.2289
 8320TIP3   OH246374   4.718   3.327  11.154 -0.4748 -0.1856 -0.5128
 8320TIP3    H146375   4.807   3.331  11.118 -0.0074 -1.2526  0.4784
 8320TIP3    H246376   4.663   3.357  11.082  0.6232 -0.1448 -1.3787
 8321TIP3   OH246377   1.366   2.912  12.867  0.3202 -0.2380 -0.5639
 8321TIP3    H146378   1.417   2.854  12.810  0.7422  0.1888 -0.6268
 8321TIP3    H246379   1.420   2.991  12.875  0.1574 -0.2057  0.2493
 8322TIP3   OH246380   4.332   5.376   2.282 -0.0107 -0.1104 -0.1130
 8322TIP3    H146381   4.405   5.429   2.251  0.2560 -1.1589 -1.3632
 8322TIP3    H246382   4.352   5.357   2.373  0.2194  1.3371  0.1674
 8323TIP3   OH246383   0.388   3.254  15.572 -0.4044 -0.1262  0.2520
 8323TIP3    H146384   0.383   3.176  15.626  0.5347 -0.7081 -0.4588
 8323TIP3    H246385   0.298   3.271  15.544 -0.4953 -1.5852 -0.4456
 8324TIP3   OH246386   0.630   5.118  13.921  0.2309 -0.2126 -0.1298
 8324TIP3    H146387   0.663   5.197  13.878  0.6891 -2.1236 -3.5904
 8324TIP3    H246388   0.709   5.070  13.946 -0.0483  0.1078  1.4744
 8325TIP3   OH246389   3.088   5.599  14.629  0.0159 -0.3106 -0.4650
 8325TIP3    H146390   3.163   5.540  14.620  0.8511  0.8984 -2.1966
 8325TIP3    H246391   3.089   5.651  14.549 -3.1293 -0.6780 -0.8531
 8326TIP3   OH246392   3.327   6.245   1.999  0.0585 -0.0601  0.1168
 8326TIP3    H146393   3.394   6.307   2.028  1.2254 -1.5841  0.8528
 8326TIP3    H246394   3.359   6.212   1.915  0.2020 -0.7420  0.4352
 8327TIP3   OH246395   2.203   2.213  11.351 -0.0600  0.0653  0.4835
 8327TIP3    H146396   2.240   2.250  11.270 -0.7967 -0.3933 -0.0677
 8327TIP3    H246397   2.138   2.277  11.379 -1.7565 -1.0161 -0.7884
 8328TIP3   OH246398   2.759   0.135   3.612  0.2148  0.9572 -0.0977
 8328TIP3    H146399   2.702   0.063   3.638 -0.1718 -0.4179 -4.0666
 8328TIP3    H246400   2.845   0.111   3.648 -0.5970  0.3414  1.5362
 8329TIP3   OH246401   3.159   6.648  12.325  0.3879 -0.1235 -0.0738
 8329TIP3    H146402   3.064   6.661  12.328  0.2947 -0.3229 -1.4448
 8329TIP3    H246403   3.173   6.595  12.247  1.6478  0.0137  0.0436
 8330TIP3   OH246404   4.787   5.629  13.874  0.7221 -0.9143  0.4122
 8330TIP3    H146405   4.727   5.668  13.938 -0.1984 -0.1946 -0.8573
 8330TIP3    H246406   4.771   5.535  13.881  0.4968 -0.8321  1.0990
 8331TIP3   OH246407   0.253   4.255   3.023 -0.6184  0.1207 -0.1286
 8331TIP3    H146408   0.167   4.292   3.002 -0.5796 -0.1935 -0.8645
 8331TIP3    H246409   0.235   4.187   3.088 -0.8590  0.4033  0.1078
 8332TIP3   OH246410   3.756   0.445  16.742  0.2224  0.0593  0.1272
 8332TIP3    H146411   3.782   0.380  16.677  2.3567 -0.9975  1.8902
 8332TIP3    H246412   3.690   0.400  16.795  0.4874 -0.0909  0.3356
 8333TIP3   OH246413   0.842   0.948  12.368  0.0255 -0.1941 -0.1815
 8333TIP3    H146414   0.907   0.879  12.378 -0.8721 -0.8861  1.2013
 8333TIP3    H246415   0.758   0.904  12.378 -0.5562  1.3008  2.7688
 8334TIP3   OH246416   5.495   5.168  11.129 -0.4994  0.5047  0.2536
 8334TIP3    H146417   5.583   5.178  11.095 -0.9853  0.6996 -1.0167
 8334TIP3    H246418   5.460   5.091  11.084 -0.8188  0.1428  1.1004
 8335TIP3   OH246419   1.528   3.972   1.929  0.4521 -0.0269  0.5583
 8335TIP3    H146420   1.516   3.995   1.837 -0.8090  1.9926  1.1818
 8335TIP3    H246421   1.617   4.002   1.950  1.0045 -1.1118 -0.1360
 8336TIP3   OH246422   2.086   4.331  15.637  0.3305 -0.7132 -0.1379
 8336TIP3    H146423   2.110   4.422  15.617  2.1003  0.1512  4.5411
 8336TIP3    H246424   2.004   4.339  15.687  0.3898 -1.7001  0.1311
 8337TIP3   OH246425   6.563   0.730  16.467 -0.6932  0.3930  0.2829
 8337TIP3    H146426   6.645   0.710  16.511 -1.5157 -2.1250  0.8036
 8337TIP3    H246427   6.581   0.811  16.419  2.3823 -0.5867 -0.4343
 8338TIP3   OH246428   0.877   6.723   2.686  0.1351 -0.2177 -0.1229
 8338TIP3    H146429   0.967   6.715   2.655 -0.0271  0.4977 -0.8062
 8338TIP3    H246430   0.826   6.741   2.607 -0.2907  1.6089  0.5339
 8339TIP3   OH246431   3.031   2.756  14.938  0.7818 -0.1428  1.0174
 8339TIP3    H146432   3.085   2.696  14.989  2.1728  0.7005  0.5708
 8339TIP3    H246433   2.964   2.786  14.999  0.1011 -2.0427  1.2797
 8340TIP3   OH246434   1.942   3.562  14.895 -0.2747  0.3721 -0.3007
 8340TIP3    H146435   1.972   3.505  14.824 -0.4753  0.7049 -0.6546
 8340TIP3    H246436   2.012   3.557  14.961 -0.3555 -0.3878 -0.2656
 8341TIP3   OH246437   5.496   0.038  14.583  0.4335 -0.2926  0.4489
 8341TIP3    H146438   5.409   0.018  14.549  0.4075  0.5942 -0.0427
 8341TIP3    H246439   5.538   0.088  14.513  1.2741 -0.5436  0.7593
 8342TIP3   OH246440   3.332   1.596  13.413 -0.0317  0.1212  0.1249
 8342TIP3    H146441   3.270   1.523  13.405  0.2264 -0.2355  1.2176
 8342TIP3    H246442   3.382   1.576  13.492  0.0102  1.5074  0.4701
 8343TIP3   OH246443   3.021   4.415  13.214 -0.0848  0.1342 -0.2140
 8343TIP3    H146444   3.005   4.346  13.278 -1.3056  2.3110  1.9994
 8343TIP3    H246445   2.994   4.496  13.258  0.2439  1.9376 -3.0439
 8344TIP3   OH246446   4.706   3.263  16.583  0.0972 -0.1439  0.0967
 8344TIP3    H146447   4.737   3.274  16.493  0.3031  0.9022  0.2857
 8344TIP3    H246448   4.786   3.259  16.635  0.0156 -1.9367  0.1267
 8345TIP3   OH246449   2.527   3.537  12.323 -0.6045 -0.3139 -0.4343
 8345TIP3    H146450   2.582   3.474  12.369  0.2898  0.9762  0.3250
 8345TIP3    H246451   2.438   3.506  12.338 -0.2275 -0.9356  0.6223
 8346TIP3   OH246452   1.153   5.191   0.577  0.1428  0.0689 -0.2044
 8346TIP3    H146453   1.104   5.129   0.631 -0.1386  0.6904  0.2630
 8346TIP3    H246454   1.111   5.186   0.491  0.3597 -0.6572 -0.2716
 8347TIP3   OH246455   3.250   0.487   6.270 -0.6361  0.0439  0.0274
 8347TIP3    H146456   3.182   0.525   6.326 -0.6643 -0.0560  0.0611
 8347TIP3    H246457   3.305   0.562   6.245 -0.3764  0.0211  0.5291
 8348TIP3   OH246458   1.244   0.144  16.024  0.5009  0.4487  0.3700
 8348TIP3    H146459   1.178   0.213  16.031  0.4217  0.3919  0.1927
 8348TIP3    H246460   1.198   0.064  16.048  0.4978  0.4057  0.2237
 8349TIP3   OH246461   4.832   6.157   5.414 -0.7711 -0.4616 -0.0192
 8349TIP3    H146462   4.837   6.153   5.510 -2.0911 -0.2825  0.0832
 8349TIP3    H246463   4.785   6.239   5.397 -0.8909 -0.6932 -0.8082
 8350TIP3   OH246464   6.715   2.819  14.659 -0.0138  0.0836  0.5537
 8350TIP3    H146465   6.700   2.749  14.595 -0.2229  0.4760  0.1645
 8350TIP3    H246466   6.636   2.873  14.653  0.0736  0.2601  0.9731
 8351TIP3   OH246467   5.119   1.535  13.586 -0.7281 -0.1582 -0.4832
 8351TIP3    H146468   5.207   1.549  13.622 -1.1229  1.5210 -0.0915
 8351TIP3    H246469   5.120   1.444  13.556  1.3050 -0.0312 -0.9502
 8352TIP3   OH246470   0.455   0.118   0.310 -1.0681  0.6447  0.1615
 8352TIP3    H146471   0.393   0.051   0.279 -1.3254  0.6485  0.6554
 8352TIP3    H246472   0.518   0.070   0.363 -0.5058  0.6074 -0.5266
 8353TIP3   OH246473   6.436   3.556  15.956 -0.1538  0.4907 -0.3041
 8353TIP3    H146474   6.368   3.622  15.946  1.8178  2.6360 -0.3770
 8353TIP3    H246475   6.439   3.539  16.050  0.4925  1.8850 -0.0476
 8354TIP3   OH246476   4.271   6.214  16.304 -0.7027  0.0686  0.2063
 8354TIP3    H146477   4.323   6.280  16.258  0.7701 -1.5945 -0.6478
 8354TIP3    H246478   4.246   6.152  16.236 -2.9948  0.2603  0.7908
 8355TIP3   OH246479   5.752   6.042  14.372  0.4741 -1.0336  0.0514
 8355TIP3    H146480   5.753   5.997  14.287 -1.2742 -0.9892 -0.0278
 8355TIP3    H246481   5.660   6.062  14.387  0.9869  0.8026  1.0019
 8356TIP3   OH246482   3.502   4.914   3.180  0.2225 -0.3183 -0.3717
 8356TIP3    H146483   3.592   4.906   3.212 -0.1943 -0.4618  0.8081
 8356TIP3    H246484   3.448   4.874   3.248 -0.9057  1.5089 -0.0999
 8357TIP3   OH246485   4.897   5.191  17.004  0.0480  0.7799 -0.1251
 8357TIP3    H146486   4.835   5.234  17.064 -1.8638 -2.5324  0.5514
 8357TIP3    H246487   4.948   5.133  17.061 -1.0131 -1.5843 -1.4268
 8358TIP3   OH246488   2.832   3.422   3.925 -0.1667  0.2100 -0.2141
 8358TIP3    H146489   2.908   3.364   3.914  0.4591  0.8128  0.8069
 8358TIP3    H246490   2.849   3.495   3.865 -0.6484 -0.3284 -1.0321
 8359TIP3   OH246491   1.271   1.787   0.046  0.1884 -0.1388  0.1292
 8359TIP3    H146492   1.235   1.873   0.067  2.5765  1.0135 -0.1771
 8359TIP3    H246493   1.228   1.762  -0.036 -0.8354  0.5536  0.4401
 8360TIP3   OH246494   5.955   5.752   6.136  0.0858 -0.8337  0.0175
 8360TIP3    H146495   5.937   5.819   6.202  1.1128 -0.9742  0.4515
 8360TIP3    H246496   6.047   5.729   6.149  0.3794 -0.7115 -1.5949
 8361TIP3   OH246497   4.983   0.620  13.733  0.3368  0.6664 -0.5148
 8361TIP3    H146498   4.907   0.597  13.786  0.6899  0.2960 -0.1713
 8361TIP3    H246499   4.959   0.592  13.644 -0.9717  2.8516 -0.9388
 8362TIP3   OH246500   6.434   5.004   1.930  0.0418 -0.6411  0.2163
 8362TIP3    H146501   6.514   5.009   1.877  0.4145 -1.8212  0.6326
 8362TIP3    H246502   6.408   5.095   1.943  0.7569 -0.2766 -0.7674
 8363TIP3   OH246503   6.244   6.633  15.804 -0.6914 -0.0790  0.5862
 8363TIP3    H146504   6.246   6.574  15.729  0.1569  1.2368 -0.4823
 8363TIP3    H246505   6.317   6.605  15.858 -0.6679 -0.3893  0.3976
 8364TIP3   OH246506   3.120   3.887   2.190  0.0599  0.1672 -0.4435
 8364TIP3    H146507   3.178   3.961   2.209 -1.5720  1.9980 -2.0226
 8364TIP3    H246508   3.177   3.810   2.192  1.7201  1.3234  1.9368
 8365TIP3   OH246509   5.521   1.689  11.825 -0.1081  0.4339  0.2870
 8365TIP3    H146510   5.530   1.601  11.788  3.4085  0.4162  0.8899
 8365TIP3    H246511   5.455   1.680  11.893 -0.0280 -1.6717  0.1437
 8366TIP3   OH246512   0.697   2.009  12.975  0.1606  0.5671 -0.2414
 8366TIP3    H146513   0.718   1.926  12.933  0.9049 -0.4266  1.9825
 8366TIP3    H246514   0.668   2.065  12.903  0.4700 -1.3209 -1.9208
 8367TIP3   OH246515   5.538   3.879   3.708 -0.8376  0.2461  0.3371
 8367TIP3    H146516   5.449   3.892   3.739 -1.1433 -0.6470 -0.1311
 8367TIP3    H246517   5.529   3.859   3.615 -0.0596  1.2224  0.0337
 8368TIP3   OH246518   6.756   5.532  16.605 -0.0408 -0.1381 -0.2536
 8368TIP3    H146519   6.711   5.452  16.579  0.3607 -0.7081  0.7439
 8368TIP3    H246520   6.711   5.602  16.557 -2.2025 -0.6413  0.8729
 8369TIP3   OH246521   4.143   1.189  14.718 -0.6930 -0.0307 -0.9794
 8369TIP3    H146522   4.084   1.177  14.643 -1.6701  1.3559 -0.4641
 8369TIP3    H246523   4.182   1.275  14.704 -0.6379  0.0993 -0.0555
 8370TIP3   OH246524   2.452   0.078   0.101 -0.0883 -0.2741 -0.2427
 8370TIP3    H146525   2.501   0.050   0.024  0.5748 -1.3515  0.5458
 8370TIP3    H246526   2.425   0.168   0.080  0.7452 -0.2641 -1.4048
 8371TIP3   OH246527   3.253   1.350  15.674  0.5096  0.3319  0.4046
 8371TIP3    H146528   3.223   1.441  15.676  1.5522  0.6787  0.9561
 8371TIP3    H246529   3.320   1.348  15.606  1.4487  0.3106  1.2927
 8372TIP3   OH246530   5.191   5.962  11.047 -0.2751 -0.3062  0.0306
 8372TIP3    H146531   5.206   5.903  10.973 -2.1953  1.2224 -1.7047
 8372TIP3    H246532   5.131   6.028  11.013  1.8999  2.8259  1.7741
 8373TIP3   OH246533   2.944   6.483   0.524 -0.1513 -0.0629  0.0333
 8373TIP3    H146534   2.975   6.407   0.574 -1.0890 -1.0472 -0.8124
 8373TIP3    H246535   2.984   6.472   0.438 -2.0311 -0.8675 -0.7924
 8374TIP3   OH246536   6.792   1.404   5.258 -0.6823 -0.3862  0.2913
 8374TIP3    H146537   6.765   1.455   5.181  0.0139 -0.3411  0.0698
 8374TIP3    H246538   6.742   1.323   5.251 -0.1930 -0.6262 -0.5371
 8375TIP3   OH246539   4.060   3.478  11.570 -0.0292  0.0272  1.1669
 8375TIP3    H146540   4.049   3.565  11.606  1.4379  1.2560 -1.1211
 8375TIP3    H246541   4.142   3.446  11.608  1.4834  1.2952 -0.8501
 8376TIP3   OH246542   2.888   3.014  12.461 -0.0188  0.5690 -0.2412
 8376TIP3    H146543   2.874   3.102  12.494  0.7127  0.3552  0.6587
 8376TIP3    H246544   2.817   2.962  12.500  0.2850  0.5089  0.2311
 8377TIP3   OH246545   3.290   6.251  12.036  0.2148  0.1074  0.1331
 8377TIP3    H146546   3.201   6.234  12.006 -0.1338  1.8090  0.0933
 8377TIP3    H246547   3.345   6.197  11.980 -0.6774  0.3735 -1.0246
 8378TIP3   OH246548   1.580   6.704  12.686  0.3818 -0.5236  0.3626
 8378TIP3    H146549   1.624   6.635  12.637  0.8933 -1.1186  1.6391
 8378TIP3    H246550   1.486   6.688  12.671  0.4277 -2.2926  1.6552
 8379TIP3   OH246551   6.666   0.312  15.189  0.5182  0.1815  0.2064
 8379TIP3    H146552   6.688   0.397  15.150  0.3733  0.9879  1.8000
 8379TIP3    H246553   6.608   0.333  15.262  1.2872 -1.1976  1.2682
 8380TIP3   OH246554   0.082   1.327  16.825 -0.1873  0.0344  0.2187
 8380TIP3    H146555   0.141   1.289  16.890 -0.9644 -0.9807  0.3567
 8380TIP3    H246556   0.099   1.421  16.830 -0.5869  0.0589  2.2882
 8381TIP3   OH246557   1.263   6.592   4.860 -0.0718 -0.5574 -0.6012
 8381TIP3    H146558   1.305   6.509   4.838 -1.6460 -1.4046 -0.5755
 8381TIP3    H246559   1.335   6.653   4.873  1.0897 -1.5864 -1.9058
 8382TIP3   OH246560   0.465   6.292   2.610  0.3505 -0.2955 -0.2953
 8382TIP3    H146561   0.536   6.306   2.547  0.8548  1.7355  0.6398
 8382TIP3    H246562   0.497   6.332   2.691 -0.9725 -1.3417  0.7908
 8383TIP3   OH246563   2.978   1.218   3.737 -0.1482 -0.0675  0.0112
 8383TIP3    H146564   2.909   1.161   3.771 -0.3951 -0.8413 -1.7068
 8383TIP3    H246565   2.969   1.299   3.788 -0.5379 -1.1052  1.6997
 8384TIP3   OH246566   4.231   4.719  12.897 -0.1020  0.3242  0.5534
 8384TIP3    H146567   4.261   4.648  12.955  0.0154  0.0594  0.1719
 8384TIP3    H246568   4.136   4.712  12.898 -0.0647 -0.7751 -0.6164
 8385TIP3   OH246569   0.714   2.175  16.220  0.7301  0.2905 -0.2241
 8385TIP3    H146570   0.718   2.236  16.146 -0.5431  0.0393 -0.5240
 8385TIP3    H246571   0.770   2.214  16.287  0.3421  1.5225 -0.6026
 8386TIP3   OH246572   0.210   0.853   4.432  0.8132  0.6245  0.0079
 8386TIP3    H146573   0.166   0.904   4.500  0.8058  1.3859 -0.5477
 8386TIP3    H246574   0.233   0.918   4.365 -0.2627 -0.2452 -1.2850
 8387TIP3   OH246575   4.714   5.056  12.971  0.2272  0.6490 -0.4594
 8387TIP3    H146576   4.627   5.094  12.968 -0.3288 -0.4996  0.4626
 8387TIP3    H246577   4.767   5.119  13.020  0.1414  1.7147 -1.6818
 8388TIP3   OH246578   0.315   0.703  14.420 -0.2195  0.4151  0.0009
 8388TIP3    H146579   0.370   0.763  14.471 -0.9755 -0.3731  1.8448
 8388TIP3    H246580   0.281   0.641  14.485 -0.2260 -1.4481 -1.6745
 8389TIP3   OH246581   1.230   3.968   4.228  0.4625  0.1144 -0.0424
 8389TIP3    H146582   1.135   3.974   4.212  0.2139  0.7026  1.5264
 8389TIP3    H246583   1.249   3.874   4.223 -0.1940 -0.0082 -0.3784
 8390TIP3   OH246584   5.747   5.006   2.488 -0.0810  0.1057 -0.0233
 8390TIP3    H146585   5.784   4.934   2.437 -0.2117  0.4917 -0.6767
 8390TIP3    H246586   5.695   5.056   2.425 -0.2291  0.6082  0.4847
 8391TIP3   OH246587   5.245   1.612  14.384 -0.1977 -0.2360  0.0046
 8391TIP3    H146588   5.288   1.697  14.368  0.8211 -0.8431 -0.5921
 8391TIP3    H246589   5.276   1.586  14.471  0.5398 -0.6003 -0.3597
 8392TIP3   OH246590   6.516   6.627  13.004 -0.3416  0.3711  0.1835
 8392TIP3    H146591   6.585   6.645  13.068 -1.0080  0.5235  0.8622
 8392TIP3    H246592   6.555   6.650  12.920  1.1126 -1.3289  0.3297
 8393TIP3   OH246593   3.704   6.163   5.343 -0.0664  0.0212 -0.1327
 8393TIP3    H146594   3.608   6.155   5.347 -0.1078  0.6272  0.3249
 8393TIP3    H246595   3.735   6.075   5.323 -0.6990 -0.2952  0.2582
 8394TIP3   OH246596   0.161   1.282   5.992 -0.0548  0.3646 -0.7180
 8394TIP3    H146597   0.171   1.316   6.081 -0.9137 -1.3688  0.0924
 8394TIP3    H246598   0.093   1.337   5.953  0.1302  0.9639 -0.2143
 8395TIP3   OH246599   6.349   0.728  13.501  0.2545 -0.1787  0.0266
 8395TIP3    H146600   6.286   0.703  13.433 -1.9467 -1.2992  2.2877
 8395TIP3    H246601   6.397   0.648  13.521  1.0486  0.1985 -0.3393
 8396TIP3   OH246602   2.857   5.200   0.380  0.0733  0.0448  0.6916
 8396TIP3    H146603   2.781   5.244   0.342 -0.1764 -0.4871  0.5770
 8396TIP3    H246604   2.832   5.183   0.471  0.4418  0.7700  0.9412
 8397TIP3   OH246605   6.034   0.386   2.001 -0.0983 -0.7942 -0.8486
 8397TIP3    H146606   6.089   0.451   2.044 -0.0897 -1.3204 -0.0528
 8397TIP3    H246607   6.084   0.360   1.923  0.1637 -0.2880 -0.8509
 8398TIP3   OH246608   0.069   5.623  12.964 -0.2756  0.6596  0.2929
 8398TIP3    H146609   0.149   5.599  13.012 -1.0231 -0.6585  0.9273
 8398TIP3    H246610   0.018   5.675  13.026  0.7260  2.8750 -0.6265
 8399TIP3   OH246611   4.863   6.111  16.061  0.2908 -0.3457 -0.1113
 8399TIP3    H146612   4.908   6.179  16.111  0.0705 -0.5629  0.3844
 8399TIP3    H246613   4.821   6.158  15.989 -2.3715  0.5243  1.8765
 8400TIP3   OH246614   1.195   3.126  11.535 -0.0655 -0.3169  0.5652
 8400TIP3    H146615   1.145   3.126  11.453 -0.9909  2.3385  1.0376
 8400TIP3    H246616   1.285   3.145  11.507 -0.7992  3.3956  0.2034
 8401TIP3   OH246617   6.297   4.910   4.557  0.4297 -0.2335 -0.7149
 8401TIP3    H146618   6.261   4.907   4.645  1.9941 -1.2006 -0.0516
 8401TIP3    H246619   6.280   4.999   4.526 -1.1390 -0.2235  0.1030
 8402TIP3   OH246620   3.198   4.388   5.886 -0.2864 -0.1635 -0.4648
 8402TIP3    H146621   3.138   4.326   5.928  1.9779 -1.1213  1.5826
 8402TIP3    H246622   3.164   4.474   5.911 -1.2941 -0.6556 -0.0847
 8403TIP3   OH246623   2.019   3.041   1.309 -0.8964 -0.2368 -0.5139
 8403TIP3    H146624   2.103   3.082   1.287  0.0320 -1.9475 -0.2521
 8403TIP3    H246625   1.961   3.068   1.238 -0.3545  1.5654 -0.3206
 8404TIP3   OH246626   4.870   0.325   4.765  0.2622  0.0652  0.3277
 8404TIP3    H146627   4.929   0.298   4.835  0.6065  0.6284  0.2580
 8404TIP3    H246628   4.875   0.420   4.764 -0.8536  0.1381  0.4884
 8405TIP3   OH246629   4.932   4.892   1.314 -0.0458 -0.3372 -0.6524
 8405TIP3    H146630   4.995   4.822   1.331  1.7473  1.2445 -0.4149
 8405TIP3    H246631   4.955   4.924   1.226 -1.0124 -0.1930 -0.8683
 8406TIP3   OH246632   3.390   0.355  16.691 -0.1362  0.0590 -0.1404
 8406TIP3    H146633   3.360   0.302  16.765  1.2462 -0.1031  0.3319
 8406TIP3    H246634   3.391   0.444  16.725  1.6045 -0.1515  0.4379
 8407TIP3   OH246635   5.515   0.258   2.174  0.1974 -0.2569 -0.1536
 8407TIP3    H146636   5.435   0.206   2.168 -0.2643  0.4666 -0.4944
 8407TIP3    H246637   5.506   0.307   2.256  0.3423 -0.2626 -0.1340
 8408TIP3   OH246638   3.084   4.716   4.234  0.9396 -0.1468  0.4977
 8408TIP3    H146639   3.005   4.662   4.229 -0.1717  1.0010  3.4528
 8408TIP3    H246640   3.059   4.799   4.193  1.4566 -0.5533 -0.7042
 8409TIP3   OH246641   2.192   0.314   1.480  0.4483  0.4063 -0.1421
 8409TIP3    H146642   2.199   0.237   1.423  0.9638  0.0267  0.4256
 8409TIP3    H246643   2.282   0.336   1.502  0.3986  1.9931 -1.3430
 8410TIP3   OH246644   5.676   1.412   3.567  0.6122  0.5952  0.4017
 8410TIP3    H146645   5.676   1.358   3.487 -1.8891  1.0380  0.0192
 8410TIP3    H246646   5.628   1.360   3.631 -1.3089  2.0205  0.2088
 8411TIP3   OH246647   5.071   6.488  15.460 -0.3567  0.4328  0.3572
 8411TIP3    H146648   5.156   6.446  15.459 -0.2604  0.6321 -0.1773
 8411TIP3    H246649   5.024   6.446  15.531 -1.0682 -2.1537 -1.4971
 8412TIP3   OH246650   4.488   5.611   3.853 -0.2561 -0.2171  0.1372
 8412TIP3    H146651   4.508   5.624   3.760  0.4741 -0.9102  0.1851
 8412TIP3    H246652   4.438   5.530   3.857 -0.9527  0.2133  0.2771
 8413TIP3   OH246653   1.728   3.905   6.407 -0.2668 -0.3216 -0.6762
 8413TIP3    H146654   1.690   3.833   6.456 -1.6828  1.4026  0.9017
 8413TIP3    H246655   1.822   3.884   6.402 -0.1165 -0.8140  2.4195
 8414TIP3   OH246656   2.677   1.750   0.196 -0.0153  0.5624 -0.5563
 8414TIP3    H146657   2.672   1.657   0.173  0.5390  0.1080  1.0443
 8414TIP3    H246658   2.600   1.766   0.251  0.2427  0.8800 -0.2799
 8415TIP3   OH246659   2.565   5.011   3.790 -0.4437 -0.3069 -0.4587
 8415TIP3    H146660   2.650   4.970   3.769  0.6962  0.6295  1.9908
 8415TIP3    H246661   2.517   4.943   3.838  1.0020  0.6409  2.5950
 8416TIP3   OH246662   4.519   1.623   2.728 -0.5606 -0.3263  0.0748
 8416TIP3    H146663   4.494   1.535   2.701 -0.0217 -0.4567 -0.0012
 8416TIP3    H246664   4.598   1.642   2.678 -0.8837  0.3507 -0.1936
 8417TIP3   OH246665   5.133   1.289   2.743  0.1228  0.1716  0.5496
 8417TIP3    H146666   5.143   1.232   2.819 -0.9140  0.3131  0.8145
 8417TIP3    H246667   5.199   1.357   2.755 -0.7017  0.7742  1.8857
 8418TIP3   OH246668   3.227   0.926   1.467 -0.1659  0.4645  0.1868
 8418TIP3    H146669   3.157   0.986   1.442  0.1337  0.7478  0.0295
 8418TIP3    H246670   3.299   0.982   1.495 -0.4144  0.1651  1.4865
 8419TIP3   OH246671   1.133   0.791   1.412 -0.2048 -0.2356 -0.4961
 8419TIP3    H146672   1.063   0.761   1.470 -0.3414  1.7901  0.4817
 8419TIP3    H246673   1.089   0.844   1.347  0.2891 -0.0277 -0.6631
 8420TIP3   OH246674   5.871   0.568  12.799  0.2484 -0.0052 -0.1602
 8420TIP3    H146675   5.869   0.555  12.704  1.6686 -0.0257 -0.2037
 8420TIP3    H246676   5.821   0.649  12.813  1.6262  1.0661 -1.1405
 8421TIP3   OH246677   3.503   6.718  16.753  0.1175  0.3778  0.0295
 8421TIP3    H146678   3.471   6.629  16.740  2.0003 -0.4890  1.0080
 8421TIP3    H246679   3.514   6.753  16.664 -0.2726 -0.4950 -0.3653
 8422TIP3   OH246680   0.418   3.835  16.374 -0.4476 -0.3061 -0.1024
 8422TIP3    H146681   0.405   3.924  16.405  2.2203 -0.3435  1.4412
 8422TIP3    H246682   0.512   3.828  16.359 -0.5420 -2.8776 -0.0497
 8423TIP3   OH246683   6.449   6.582  15.978 -0.6560  0.0821 -0.3464
 8423TIP3    H146684   6.380   6.581  16.044  0.0834 -0.1530  0.4486
 8423TIP3    H246685   6.529   6.602  16.027 -0.4615  2.7137 -1.5619
 8424TIP3   OH246686   1.592   6.521   4.579 -0.3133 -0.1404  0.0370
 8424TIP3    H146687   1.558   6.608   4.601  1.2759  0.7670 -0.9197
 8424TIP3    H246688   1.532   6.489   4.512 -0.1934  0.7837 -0.5326
 8425TIP3   OH246689   4.411   3.417  13.582 -0.1057 -0.5160  0.0589
 8425TIP3    H146690   4.414   3.428  13.677  0.3215  0.6970 -0.0813
 8425TIP3    H246691   4.455   3.494  13.547  0.2680 -1.2363 -1.1178
 8426TIP3   OH246692   1.391   3.115  14.276 -0.1222 -0.1872  0.2742
 8426TIP3    H146693   1.464   3.056  14.297 -0.1032  0.4165  2.1735
 8426TIP3    H246694   1.318   3.082  14.328 -0.4274  0.7858  0.4819
 8427TIP3   OH246695   1.967   1.480   3.251 -0.3045 -0.2594 -0.0578
 8427TIP3    H146696   2.054   1.519   3.244 -0.4530  0.3296  1.1252
 8427TIP3    H246697   1.983   1.386   3.252  0.1687 -0.2304 -1.4903
 8428TIP3   OH246698   0.732   1.617   3.805  0.6675 -0.3393 -0.1940
 8428TIP3    H146699   0.736   1.665   3.722  1.7569 -0.4142 -0.2014
 8428TIP3    H246700   0.797   1.548   3.795 -0.9469 -1.9492 -0.2401
 8429TIP3   OH246701   6.162   3.408   1.451 -0.0931 -0.9395 -0.3746
 8429TIP3    H146702   6.110   3.462   1.509 -1.3342 -2.5156  0.0654
 8429TIP3    H246703   6.242   3.389   1.501  0.1270  0.0311 -0.3411
 8430TIP3   OH246704   6.360   6.344   1.857  0.0757 -0.9771 -0.0336
 8430TIP3    H146705   6.345   6.438   1.855 -1.5547 -1.1939  0.2863
 8430TIP3    H246706   6.455   6.334   1.858  0.3356  0.7466  2.6133
 8431TIP3   OH246707   2.683   0.265  12.479  0.5359  0.3238  0.1777
 8431TIP3    H146708   2.588   0.267  12.484  0.4187 -2.1981  0.3063
 8431TIP3    H246709   2.702   0.258  12.386  0.6194  1.2749  0.1219
 8432TIP3   OH246710   5.120   0.467  10.365  0.0960 -0.4688 -0.1987
 8432TIP3    H146711   5.058   0.532  10.334 -0.4882  0.1115  1.9748
 8432TIP3    H246712   5.075   0.424  10.438  1.7417 -0.9239  0.6077
 8433TIP3   OH246713   5.618   6.011  10.248 -0.2461 -0.3705  0.7800
 8433TIP3    H146714   5.623   6.044  10.337  0.2501  0.7222  0.3727
 8433TIP3    H246715   5.629   6.089  10.193  0.1428 -1.1173 -0.2363
 8434TIP3   OH246716   5.519   3.244  15.816 -0.5010 -0.4988 -0.0645
 8434TIP3    H146717   5.538   3.150  15.820 -0.6200 -0.5704 -1.0177
 8434TIP3    H246718   5.490   3.259  15.727  1.0593  0.7440 -0.4083
 8435TIP3   OH246719   2.083   5.901  13.195 -0.0377  0.1831  0.5052
 8435TIP3    H146720   2.067   5.970  13.260  2.4254  1.0431  0.2906
 8435TIP3    H246721   2.032   5.927  13.119  1.3444  2.1714  0.2037
 8436TIP3   OH246722   1.294   0.686   0.521 -0.5585  0.0228  0.2255
 8436TIP3    H146723   1.325   0.731   0.600 -1.6446 -1.1513  1.3623
 8436TIP3    H246724   1.374   0.666   0.472  0.0898  1.3380  0.6866
 8437TIP3   OH246725   1.276   1.562  15.017 -0.1109  0.1626 -0.9590
 8437TIP3    H146726   1.344   1.547  14.952 -0.4971  0.1506 -1.3630
 8437TIP3    H246727   1.305   1.639  15.066 -0.2160  0.6576 -1.6732
 8438TIP3   OH246728   5.604   6.706   3.348 -0.2720 -0.3138 -0.2238
 8438TIP3    H146729   5.590   6.648   3.423 -1.2759 -1.0092 -0.9201
 8438TIP3    H246730   5.539   6.776   3.359 -1.7557 -1.4393 -1.4048
 8439TIP3   OH246731   6.550   4.201  10.770 -0.0414  0.1225  0.1107
 8439TIP3    H146732   6.479   4.215  10.708  0.4427 -0.3721 -0.5758
 8439TIP3    H246733   6.522   4.246  10.850 -1.0369  0.0857 -0.2054
 8440TIP3   OH246734   3.423   1.963  10.861 -0.1282  0.5487  0.1790
 8440TIP3    H146735   3.374   1.887  10.830  0.6627  0.5586 -1.1952
 8440TIP3    H246736   3.514   1.932  10.865  0.2802  1.5438 -0.8985
 8441TIP3   OH246737   1.997   5.167  16.080  0.3028 -0.1796  0.7989
 8441TIP3    H146738   1.930   5.159  16.012  0.3322  0.0889  0.7388
 8441TIP3    H246739   2.077   5.135  16.039  0.5129  0.8115  0.4200
 8442TIP3   OH246740   2.293   4.397  13.380 -0.1392  0.3756 -0.1217
 8442TIP3    H146741   2.356   4.331  13.350  1.2307  1.2132  0.8173
 8442TIP3    H246742   2.238   4.350  13.444  0.7686  0.1054  0.4803
 8443TIP3   OH246743   4.863   2.283   0.900 -0.8574 -0.5636  0.0477
 8443TIP3    H146744   4.826   2.347   0.839 -0.0821  0.1017  0.2578
 8443TIP3    H246745   4.934   2.241   0.851 -0.2608 -0.0580  0.4647
 8444TIP3   OH246746   4.103   1.038  13.571 -0.1035 -0.6951 -0.5050
 8444TIP3    H146747   4.109   1.132  13.586  0.8924 -0.7309 -0.6129
 8444TIP3    H246748   4.043   1.007  13.639 -0.9805  0.1001 -0.8966
 8445TIP3   OH246749   5.700   6.108  13.511 -0.5162 -0.5369  0.2333
 8445TIP3    H146750   5.758   6.033  13.493 -0.6580 -1.0724  1.8260
 8445TIP3    H246751   5.618   6.086  13.467  0.4276  0.2094 -2.0153
 8446TIP3   OH246752   2.655   5.306  15.283  0.5801  0.4553 -0.4400
 8446TIP3    H146753   2.651   5.281  15.375  0.2435  0.3611 -0.4815
 8446TIP3    H246754   2.703   5.235  15.241  0.1459  0.1720 -0.4551
 8447TIP3   OH246755   2.873   6.794   0.415  0.6787  0.0266  0.2264
 8447TIP3    H146756   2.955   6.744   0.423  0.5439  0.0416  2.4995
 8447TIP3    H246757   2.842   6.775   0.327  1.6836 -2.2968  0.2841
 8448TIP3   OH246758   4.254   1.221  12.930  0.3339 -0.3400 -0.1269
 8448TIP3    H146759   4.214   1.303  12.959  1.9265  1.6957 -3.1636
 8448TIP3    H246760   4.203   1.153  12.975 -0.2881  2.2091  3.5368
 8449TIP3   OH246761   5.516   6.116  16.320 -0.1003  0.5471 -0.4521
 8449TIP3    H146762   5.549   6.026  16.312  1.4175  0.9428  0.8411
 8449TIP3    H246763   5.422   6.105  16.336 -0.1362 -0.7547 -1.4020
 8450TIP3   OH246764   3.108   6.240   5.612  0.3780  0.3593 -0.2520
 8450TIP3    H146765   3.055   6.245   5.691  1.2239 -1.3147  0.4642
 8450TIP3    H246766   3.051   6.273   5.542 -2.0411 -2.3403  0.2885
 8451TIP3   OH246767   2.445   6.016   2.249  0.1666 -0.0882  0.2722
 8451TIP3    H146768   2.466   5.922   2.253  0.3568 -0.1532 -1.3681
 8451TIP3    H246769   2.367   6.026   2.303  0.3238 -1.1355  0.7211
 8452TIP3   OH246770   4.109   1.775  14.166 -0.2632  0.3064  0.0053
 8452TIP3    H146771   4.073   1.787  14.254  0.2436 -0.8462  0.3784
 8452TIP3    H246772   4.044   1.722  14.121 -0.8701  1.4934 -0.5699
 8453TIP3   OH246773   5.975   1.303   3.642 -0.0120  0.1088  0.4883
 8453TIP3    H146774   5.994   1.391   3.610 -2.5421  0.1039 -1.3650
 8453TIP3    H246775   5.918   1.316   3.717 -2.3833  0.1574 -1.2139
 8454TIP3   OH246776   0.755   4.010   2.709 -0.4612 -0.5931 -0.3353
 8454TIP3    H146777   0.772   3.917   2.722  2.9982 -0.4295 -2.3123
 8454TIP3    H246778   0.782   4.027   2.619 -1.5751  2.2470 -0.2468
 8455TIP3   OH246779   0.313   1.966   1.828 -0.2387  0.1849  0.7088
 8455TIP3    H146780   0.262   1.892   1.861 -0.1916  0.3786  1.2343
 8455TIP3    H246781   0.258   2.042   1.845 -0.3646  0.2540  0.0021
 8456TIP3   OH246782   3.701   6.266  11.921 -0.0236 -0.1559  0.3695
 8456TIP3    H146783   3.680   6.323  11.996  2.6051 -0.3462  1.3508
 8456TIP3    H246784   3.616   6.245  11.883 -1.3112  1.7577  1.9537
 8457TIP3   OH246785   0.214   3.318   2.460 -0.3800  0.4833  0.1415
 8457TIP3    H146786   0.242   3.373   2.534  0.0054  1.3291 -0.6236
 8457TIP3    H246787   0.230   3.228   2.490  0.1986  0.8337  0.9122
 8458TIP3   OH246788   6.446   3.383  16.972  0.2152  0.1792  0.0406
 8458TIP3    H146789   6.420   3.296  16.942 -0.4616  0.6732 -0.8469
 8458TIP3    H246790   6.422   3.385  17.065  1.2390 -0.9526  0.3507
 8459TIP3   OH246791   2.351   6.420   5.290  0.9249  0.4091  0.2543
 8459TIP3    H146792   2.410   6.473   5.343  0.9460 -0.6320  1.3251
 8459TIP3    H246793   2.362   6.331   5.323 -1.7662  0.2576  1.0296
 8460TIP3   OH246794   5.536   0.540  15.312  0.3250  0.8782  0.0753
 8460TIP3    H146795   5.502   0.586  15.388  0.9902  0.5684  0.5708
 8460TIP3    H246796   5.460   0.499  15.272  0.4229 -3.0388  3.3047
 8461TIP3   OH246797   2.674   6.188   7.001  0.0262  0.3601  0.4135
 8461TIP3    H146798   2.734   6.117   6.976 -0.5711  0.3185 -1.0513
 8461TIP3    H246799   2.612   6.146   7.060  0.2838 -0.0860  0.3792
 8462TIP3   OH246800   3.428   5.698   0.875 -0.5209  0.4544 -0.2512
 8462TIP3    H146801   3.508   5.657   0.907 -1.6983  0.2541  2.7134
 8462TIP3    H246802   3.459   5.771   0.821  1.7590  1.3794  2.0643
 8463TIP3   OH246803   5.114   0.623  15.743  0.4367 -0.4865 -0.1390
 8463TIP3    H146804   5.063   0.549  15.775 -0.0910  0.4976  1.4033
 8463TIP3    H246805   5.153   0.661  15.822  1.4729  0.3134 -1.0105
 8464TIP3   OH246806   5.242   5.403   0.023  0.5462  0.3667  0.1998
 8464TIP3    H146807   5.171   5.463   0.003  1.6823  2.4969  2.0881
 8464TIP3    H246808   5.274   5.430   0.109  2.0053 -2.1393  0.5704
 8465TIP3   OH246809   5.915   5.143  12.925 -0.3948 -0.8127 -0.0060
 8465TIP3    H146810   5.879   5.231  12.922  1.6353  0.0843  0.0657
 8465TIP3    H246811   5.871   5.095  12.855  0.2196  0.9962 -1.7146
 8466TIP3   OH246812   4.820   5.183  16.629 -0.5297  0.0813 -0.3941
 8466TIP3    H146813   4.829   5.092  16.601 -0.0342 -0.2911  0.9188
 8466TIP3    H246814   4.773   5.225  16.557 -1.9494 -1.5083 -0.4646
 8467TIP3   OH246815   4.387   2.260   5.853  0.7114 -0.0337 -0.1604
 8467TIP3    H146816   4.403   2.228   5.764 -0.3046  1.2147 -0.8425
 8467TIP3    H246817   4.350   2.185   5.899  1.0309 -0.6400 -0.8634
 8468TIP3   OH246818   0.385   3.014  16.718 -0.0862 -0.3268 -0.0735
 8468TIP3    H146819   0.474   3.013  16.754 -0.3985  0.8695  0.8186
 8468TIP3    H246820   0.332   2.968  16.784 -0.4142  0.5594  0.2999
 8469TIP3   OH246821   5.639   5.790   2.405  0.3018  0.2434  0.2131
 8469TIP3    H146822   5.678   5.843   2.336 -0.3941 -0.5534 -0.8188
 8469TIP3    H246823   5.662   5.700   2.383 -0.4895 -0.0787  0.6473
 8470TIP3   OH246824   1.782   3.946  15.640 -0.4756  0.4120 -0.1963
 8470TIP3    H146825   1.756   4.028  15.681 -0.3111  0.2175  0.2943
 8470TIP3    H246826   1.869   3.963  15.604 -1.7511  1.5324 -3.1230
 8471TIP3   OH246827   5.198   1.254  13.606  0.4980 -0.0613 -0.0171
 8471TIP3    H146828   5.269   1.225  13.549  1.4820  2.3807 -0.1497
 8471TIP3    H246829   5.204   1.196  13.682  1.1019 -1.3998 -1.0381
 8472TIP3   OH246830   1.220   1.252   0.894 -0.0473  0.9283 -0.6585
 8472TIP3    H146831   1.135   1.293   0.908 -0.9760 -0.3505 -2.1989
 8472TIP3    H246832   1.281   1.325   0.880 -0.8415  1.8577  0.6165
 8473TIP3   OH246833   5.098   6.517  11.953  0.5033 -0.1164  0.3869
 8473TIP3    H146834   5.059   6.564  11.879 -1.0078  1.5011  2.1021
 8473TIP3    H246835   5.174   6.571  11.978 -0.2802  0.5634  1.3508
 8474TIP3   OH246836   2.742   4.374  12.461 -0.2496 -0.1867  0.5853
 8474TIP3    H146837   2.703   4.451  12.504  0.3916  0.5542 -0.1205
 8474TIP3    H246838   2.684   4.356  12.387  0.0539  0.1646  0.2509
 8475TIP3   OH246839   6.172   4.959   1.979  0.0763 -0.1134 -0.7183
 8475TIP3    H146840   6.265   4.960   2.000 -0.0547 -0.2218 -0.0989
 8475TIP3    H246841   6.166   4.915   1.895  0.3567 -2.6725  0.4887
 8476TIP3   OH246842   5.783   5.028  11.838  0.3987  0.4804  0.5536
 8476TIP3    H146843   5.724   5.011  11.765  0.1309  0.2129  0.8300
 8476TIP3    H246844   5.725   5.054  11.910  0.4274 -1.4617  1.3553
 8477TIP3   OH246845   0.681   1.347  10.724 -0.0626 -0.8437 -0.5101
 8477TIP3    H146846   0.636   1.285  10.780  0.0101 -1.3205 -0.9736
 8477TIP3    H246847   0.698   1.299  10.643 -0.1282 -0.1839 -0.9289
 8478TIP3   OH246848   5.444   6.319  16.585  0.4061 -0.3151  0.4204
 8478TIP3    H146849   5.406   6.373  16.516  1.7073 -0.0866 -0.1470
 8478TIP3    H246850   5.369   6.278  16.628 -0.6796  2.3037  1.1842
 8479TIP3   OH246851   4.586   4.875   2.703 -0.3169  0.4995 -0.4458
 8479TIP3    H146852   4.680   4.882   2.686 -0.0453 -3.0735 -1.1613
 8479TIP3    H246853   4.580   4.819   2.781 -1.8398  0.0820 -0.8359
 8480TIP3   OH246854   2.826   4.685   5.961  0.7913 -0.0294 -0.1899
 8480TIP3    H146855   2.862   4.771   5.984  2.1292 -0.7315  0.4202
 8480TIP3    H246856   2.880   4.655   5.888 -1.2687  0.6931 -2.1548
 8481TIP3   OH246857   0.726   6.466   2.719  0.1782 -0.3084 -0.0851
 8481TIP3    H146858   0.776   6.396   2.677  0.3047 -1.1630  1.4066
 8481TIP3    H246859   0.791   6.535   2.735  0.7078 -1.0009  0.9197
 8482TIP3   OH246860   1.985   4.291  15.266  0.2204  0.2667 -0.0522
 8482TIP3    H146861   1.940   4.282  15.182 -0.7889  1.0072  0.3935
 8482TIP3    H246862   2.034   4.209  15.276  0.0545  0.0189 -1.1831
 8483TIP3   OH246863   1.612   0.288  11.676 -0.3224  0.6252  0.1943
 8483TIP3    H146864   1.567   0.205  11.658  1.3970 -0.2162 -0.4842
 8483TIP3    H246865   1.593   0.343  11.601 -1.1358  0.6969  0.4495
 8484TIP3   OH246866   3.803   3.092  15.433 -0.2444  0.0849 -0.3094
 8484TIP3    H146867   3.867   3.024  15.452 -0.0507  0.4299  0.2812
 8484TIP3    H246868   3.844   3.145  15.364 -0.4010 -0.3916 -0.7810
 8485TIP3   OH246869   0.794   3.202   3.001  0.6791  0.3631  0.3451
 8485TIP3    H146870   0.824   3.291   2.980 -0.9786  1.1372  1.0220
 8485TIP3    H246871   0.706   3.198   2.963 -0.0834 -0.2454  2.0905
 8486TIP3   OH246872   5.681   2.492   0.112 -0.4457  0.0451  0.1786
 8486TIP3    H146873   5.628   2.522   0.186 -0.9733 -1.1050  0.3017
 8486TIP3    H246874   5.641   2.534   0.035 -1.8364 -1.1130  0.2213
 8487TIP3   OH246875   1.616   4.550   1.980 -0.2507  0.5321 -0.3716
 8487TIP3    H146876   1.675   4.480   1.951 -1.1972 -0.8530  0.8971
 8487TIP3    H246877   1.528   4.516   1.964 -0.7813  0.5625  2.0516
 8488TIP3   OH246878   0.965   3.276   2.000 -0.0921 -0.0688  0.3351
 8488TIP3    H146879   1.030   3.315   1.941  1.4673 -1.1000  1.2957
 8488TIP3    H246880   1.001   3.291   2.087 -0.3498 -2.0480  0.8116
 8489TIP3   OH246881   5.801   5.863   5.495  0.4715 -0.6261 -0.4129
 8489TIP3    H146882   5.720   5.830   5.456 -0.4481 -0.4264  1.2643
 8489TIP3    H246883   5.802   5.956   5.472  2.1561 -1.2647 -3.5833
 8490TIP3   OH246884   3.702   6.445  10.808 -0.0185  0.5114 -0.6614
 8490TIP3    H146885   3.777   6.405  10.764 -0.3797  0.0915 -0.9133
 8490TIP3    H246886   3.637   6.374  10.813  0.5669  0.0577  1.9548
 8491TIP3   OH246887   5.870   6.621  12.055 -0.0742  0.0217 -0.0263
 8491TIP3    H146888   5.788   6.572  12.043  0.5048 -0.7705 -0.8136
 8491TIP3    H246889   5.929   6.559  12.097  0.0945  0.6313  0.6517
 8492TIP3   OH246890   5.399   0.351  17.086 -0.7546  0.1952  0.3454
 8492TIP3    H146891   5.432   0.347  16.996 -1.1575 -0.1138  0.2053
 8492TIP3    H246892   5.434   0.433  17.121  0.4807 -0.3050  0.3345
 8493TIP3   OH246893   6.400   0.866   3.654  0.5067  0.2955 -0.0589
 8493TIP3    H146894   6.347   0.930   3.608  0.4133  0.9424  0.9121
 8493TIP3    H246895   6.432   0.807   3.586 -1.6882 -0.3061 -0.6563
 8494TIP3   OH246896   6.021   0.958   4.407  0.2302 -0.3642 -0.0486
 8494TIP3    H146897   5.932   0.973   4.438 -0.8676 -3.0836 -1.4689
 8494TIP3    H246898   6.033   1.022   4.337 -0.2175  0.6608  0.7931
 8495TIP3   OH246899   5.250   4.689  14.417 -0.1589 -0.3825 -0.3997
 8495TIP3    H146900   5.244   4.779  14.448  1.9900  0.3935 -1.9347
 8495TIP3    H246901   5.238   4.635  14.495  2.2790  1.3618  1.3203
 8496TIP3   OH246902   6.178   1.016   4.669  0.0692 -0.8112  0.7335
 8496TIP3    H146903   6.161   0.960   4.594 -2.3354  0.8158 -0.0386
 8496TIP3    H246904   6.231   1.088   4.634 -0.3591 -0.4701  0.7845
 8497TIP3   OH246905   2.449   4.155   4.149  1.1622 -0.0454 -0.2305
 8497TIP3    H146906   2.481   4.086   4.206  0.5466 -0.0564  0.1153
 8497TIP3    H246907   2.520   4.219   4.146  1.6555 -0.5966 -0.3941
 8498TIP3   OH246908   2.868   4.555   2.012  0.3965  0.0587  0.3749
 8498TIP3    H146909   2.906   4.491   2.072  0.2335 -0.0421  0.3731
 8498TIP3    H246910   2.920   4.634   2.024  0.7602 -0.1514  0.1930
 8499TIP3   OH246911   5.244   5.574   5.723  0.5893  0.2559 -0.4893
 8499TIP3    H146912   5.182   5.607   5.658 -0.5337 -1.2205 -0.2249
 8499TIP3    H246913   5.225   5.480   5.729  0.1316  0.4409  2.4753
 8500TIP3   OH246914   2.599   4.102   3.136 -0.5665 -0.0727  0.2273
 8500TIP3    H146915   2.508   4.071   3.142 -0.6375  0.0107 -0.3559
 8500TIP3    H246916   2.607   4.136   3.047  0.5980 -1.8809 -0.4286
 8501TIP3   OH246917   0.529   0.645   3.876 -0.1061 -0.0282  0.2590
 8501TIP3    H146918   0.442   0.629   3.911 -1.5671  3.1771 -1.4798
 8501TIP3    H246919   0.565   0.714   3.932 -0.1293  1.0370 -0.9787
 8502TIP3   OH246920   5.988   5.648   3.511  0.0193 -0.6090  0.1601
 8502TIP3    H146921   5.962   5.586   3.443 -0.3579 -2.1412  1.6259
 8502TIP3    H246922   6.083   5.638   3.517 -0.2116 -2.6414  1.7455
 8503TIP3   OH246923   4.035   2.340   5.244  0.2105 -0.0428  0.0143
 8503TIP3    H146924   3.977   2.313   5.173 -0.7532  1.8549  0.0071
 8503TIP3    H246925   4.101   2.394   5.202 -0.5951  1.4344  0.5329
 8504TIP3   OH246926   2.886   1.672  12.959 -0.3047  0.8156  0.6754
 8504TIP3    H146927   2.797   1.697  12.936 -0.8144 -0.4092  1.2142
 8504TIP3    H246928   2.879   1.579  12.984  1.5723 -0.1050 -1.7963
 8505TIP3   OH246929   3.604   3.341   5.474 -0.2140 -0.0416 -0.5813
 8505TIP3    H146930   3.650   3.424   5.458  2.2044 -1.3810 -1.1329
 8505TIP3    H246931   3.517   3.353   5.436  0.3885  1.9264 -1.4500
 8506TIP3   OH246932   2.522   1.561  12.092 -0.1204 -0.1076 -0.4492
 8506TIP3    H146933   2.442   1.515  12.068 -1.1057  0.7043  1.0586
 8506TIP3    H246934   2.504   1.595  12.180  0.4403  3.2348 -1.4821
 8507TIP3   OH246935   6.045   1.371  14.468 -0.3543  0.2700  0.2301
 8507TIP3    H146936   6.065   1.411  14.383 -0.1248 -0.7152 -0.2011
 8507TIP3    H246937   6.066   1.278  14.455  0.3312  0.2218  1.5720
 8508TIP3   OH246938   1.571   3.465  11.278 -0.3358  0.1177  0.1011
 8508TIP3    H146939   1.538   3.403  11.344 -0.0108  0.5242  0.6483
 8508TIP3    H246940   1.626   3.525  11.327  0.3572  0.0988 -0.6370
 8509TIP3   OH246941   6.502   1.862  15.263  0.1976 -0.1235 -0.7326
 8509TIP3    H146942   6.570   1.856  15.196  1.4008  0.5189  0.3898
 8509TIP3    H246943   6.509   1.779  15.311  1.1412  0.4974  0.2388
 8510TIP3   OH246944   4.284   2.778   5.114 -0.7466 -0.4731 -0.0467
 8510TIP3    H146945   4.334   2.858   5.130  0.5165 -1.2724  0.2062
 8510TIP3    H246946   4.300   2.724   5.192 -1.3703 -1.0622 -0.3157
 8511TIP3   OH246947   5.698   1.070   1.453 -0.4390  0.1137  0.0005
 8511TIP3    H146948   5.682   1.160   1.425  1.1790  1.0114  1.6809
 8511TIP3    H246949   5.651   1.062   1.536 -2.1529 -1.2690 -1.0520
 8512TIP3   OH246950   4.444   2.453  10.884 -0.6926  0.2743 -0.6611
 8512TIP3    H146951   4.505   2.421  10.950 -1.6559 -0.3018 -0.0272
 8512TIP3    H246952   4.497   2.510  10.828  0.3989 -0.1605 -0.0956
 8513TIP3   OH246953   1.871   1.519   0.980 -0.0172  0.0143  0.0645
 8513TIP3    H146954   1.921   1.567   1.046 -0.6386  1.2865 -0.3545
 8513TIP3    H246955   1.809   1.466   1.030  0.3136  0.0647  0.5326
 8514TIP3   OH246956   1.372   0.981  12.626  0.0196 -0.4835 -0.6428
 8514TIP3    H146957   1.425   1.045  12.579 -2.7958  0.8088 -2.2814
 8514TIP3    H246958   1.377   0.902  12.572 -1.3028  0.2664 -1.9072
 8515TIP3   OH246959   6.303   3.536  11.065 -0.4626 -0.2978 -0.4098
 8515TIP3    H146960   6.293   3.444  11.090  1.8157 -0.3836  0.4107
 8515TIP3    H246961   6.309   3.583  11.148  0.8766  0.2547 -0.7987
 8516TIP3   OH246962   0.222   3.213   5.271  0.4645  0.2299  0.7473
 8516TIP3    H146963   0.199   3.186   5.360 -1.7162  3.2594  1.2500
 8516TIP3    H246964   0.182   3.299   5.261  1.7705  0.5834 -2.7523
 8517TIP3   OH246965   6.248   5.949  11.383  0.0444  0.5747 -0.0543
 8517TIP3    H146966   6.190   5.887  11.427  1.1662 -0.5426 -0.0944
 8517TIP3    H246967   6.298   5.989  11.455  0.4087  0.2860 -0.1445
 8518TIP3   OH246968   3.243   2.411  12.679  0.2338 -0.2086 -0.2531
 8518TIP3    H146969   3.303   2.432  12.609  0.2046 -1.8740 -0.8261
 8518TIP3    H246970   3.202   2.495  12.702  2.0610  0.7970 -0.4630
 8519TIP3   OH246971   2.176   1.732   3.807  0.0937  0.6629 -1.0343
 8519TIP3    H146972   2.177   1.825   3.785 -2.2746  0.6235 -1.5526
 8519TIP3    H246973   2.209   1.688   3.728  0.2655  0.9968 -1.1484
 8520TIP3   OH246974   4.416   3.939  14.309 -0.1116  0.4685 -0.1659
 8520TIP3    H146975   4.511   3.941  14.301 -0.0435  0.9162  0.7160
 8520TIP3    H246976   4.399   3.933  14.403 -0.9489 -0.0968 -0.3430
 8521TIP3   OH246977   4.414   0.437  12.701  0.1307  0.5520 -0.2085
 8521TIP3    H146978   4.455   0.451  12.616 -1.1822  0.3510 -0.9029
 8521TIP3    H246979   4.320   0.436  12.682 -0.1617 -0.0701  1.1605
 8522TIP3   OH246980   1.053   2.510   0.725 -0.4045 -0.0271 -0.1221
 8522TIP3    H146981   1.033   2.505   0.818  0.5753  1.0523  0.1625
 8522TIP3    H246982   1.039   2.603   0.703 -0.1156 -0.1719 -0.9303
 8523TIP3   OH246983   4.378   4.413   2.225  0.0469 -0.1438 -0.1104
 8523TIP3    H146984   4.459   4.391   2.270 -0.8497 -2.0611  0.6978
 8523TIP3    H246985   4.325   4.457   2.292  0.3416  0.9607 -0.5897
 8524TIP3   OH246986   4.746   4.809  14.269 -0.1450  0.7553  0.6102
 8524TIP3    H146987   4.835   4.809  14.304  0.0710  0.4334  0.0629
 8524TIP3    H246988   4.707   4.728  14.300  1.2631 -1.4784 -2.9054
 8525TIP3   OH246989   0.684   4.497  13.441  0.1028 -0.2290 -0.1942
 8525TIP3    H146990   0.615   4.514  13.505  1.9387  2.4429  1.2553
 8525TIP3    H246991   0.645   4.521  13.357 -0.9407  0.7446  0.5362
 8526TIP3   OH246992   4.162   6.754   1.291  0.2032 -0.3499  0.1401
 8526TIP3    H146993   4.161   6.805   1.210  0.6480 -1.2692 -0.4546
 8526TIP3    H246994   4.133   6.667   1.266 -0.9380 -0.3168  1.2260
 8527TIP3   OH246995   1.298   5.054   5.248 -0.1477  0.1881 -0.2713
 8527TIP3    H146996   1.260   5.006   5.321 -1.1742 -0.9326 -1.5042
 8527TIP3    H246997   1.317   4.987   5.182 -0.4638  1.3243 -1.5535
 8528TIP3   OH246998   0.752   5.442  16.166 -0.1490  0.4148 -0.7529
 8528TIP3    H146999   0.709   5.527  16.176  2.2179  1.6076 -0.1654
 8528TIP3    H247000   0.778   5.417  16.254  0.5277 -0.1810 -1.1106
 8529TIP3   OH247001   1.148   0.413   4.095  0.5773  0.1019 -0.1976
 8529TIP3    H147002   1.158   0.389   4.188  1.6138  0.6486 -0.1474
 8529TIP3    H247003   1.207   0.353   4.049  0.8299  0.4989 -0.3946
 8530TIP3   OH247004   4.395   3.735   4.258 -0.1692  0.1952 -0.7636
 8530TIP3    H147005   4.438   3.749   4.342 -0.3967  0.9108 -0.7558
 8530TIP3    H247006   4.324   3.674   4.277 -0.8489  1.1341 -0.2224
 8531TIP3   OH247007   4.196   3.029  15.668  0.0660 -0.2076  0.0073
 8531TIP3    H147008   4.217   3.029  15.761 -0.5308 -1.6454  0.1719
 8531TIP3    H247009   4.159   3.116  15.652  0.0732  0.0235  1.1290
 8532TIP3   OH247010   5.216   3.542   2.000  0.2404 -0.2417  0.4808
 8532TIP3    H147011   5.309   3.562   1.989 -0.2779  2.1286 -0.2596
 8532TIP3    H247012   5.173   3.591   1.930 -1.6813  0.1039  1.8209
 8533TIP3   OH247013   6.629   0.344  13.846 -0.4861 -0.2782 -0.2619
 8533TIP3    H147014   6.650   0.343  13.940 -0.3666  0.5255 -0.2738
 8533TIP3    H247015   6.694   0.286  13.807  1.1492  1.3745 -0.1667
 8534TIP3   OH247016   5.442   4.497   1.268  0.4873  0.3191  0.3866
 8534TIP3    H147017   5.497   4.572   1.247  0.5455  0.7419  1.9265
 8534TIP3    H247018   5.467   4.430   1.204  2.7614  0.5237  0.9722
 8535TIP3   OH247019   5.614   2.858   3.260 -0.3998  0.0714  0.3281
 8535TIP3    H147020   5.591   2.788   3.199  0.5011  0.3839 -0.3996
 8535TIP3    H247021   5.707   2.875   3.242  0.3186 -0.8507  2.8056
 8536TIP3   OH247022   3.928   1.820   2.812 -0.4304 -0.1655  0.1911
 8536TIP3    H147023   3.879   1.902   2.813  0.3636  0.3343  2.0368
 8536TIP3    H247024   3.867   1.754   2.845 -0.2840  0.1929  1.1908
 8537TIP3   OH247025   1.219   6.443   1.007 -0.3193 -0.4285 -0.2880
 8537TIP3    H147026   1.230   6.433   1.102  1.0781 -2.3713 -0.5853
 8537TIP3    H247027   1.127   6.467   0.995 -0.3488  0.5704  1.5684
 8538TIP3   OH247028   6.380   4.799  11.517  0.0502 -0.3231 -0.1052
 8538TIP3    H147029   6.451   4.786  11.580 -0.2970  0.4573  0.4721
 8538TIP3    H247030   6.321   4.725  11.532 -0.9017  0.7214  1.7423
 8539TIP3   OH247031   4.808   3.914   0.583 -0.1687 -0.1469 -0.3625
 8539TIP3    H147032   4.776   3.964   0.507 -3.4495  0.7929  1.4373
 8539TIP3    H247033   4.749   3.839   0.587  2.0781 -2.0208 -0.5624
 8540TIP3   OH247034   2.215   4.936   3.528 -0.5589  0.2525  0.0900
 8540TIP3    H147035   2.149   5.004   3.537 -3.6364 -2.5978  0.7876
 8540TIP3    H247036   2.204   4.880   3.605  0.0492 -2.4128 -1.6063
 8541TIP3   OH247037   2.975   5.429   1.207 -0.2827 -0.3466 -0.3985
 8541TIP3    H147038   2.948   5.508   1.252  0.4752  0.1643 -0.8085
 8541TIP3    H247039   2.964   5.359   1.271  0.2443  0.2798  0.3919
 8542TIP3   OH247040   3.399   0.705   6.218 -0.0295 -0.5052 -0.6328
 8542TIP3    H147041   3.329   0.771   6.224 -1.1697 -1.7991  1.5410
 8542TIP3    H247042   3.469   0.748   6.169 -1.3171  1.7711 -0.5898
 8543TIP3   OH247043   0.413   2.370  16.510 -0.3066  0.0271  0.6195
 8543TIP3    H147044   0.433   2.292  16.458  1.0534  0.6523  0.1549
 8543TIP3    H247045   0.495   2.419  16.511 -1.4728  2.1071 -0.2134
 8544TIP3   OH247046   1.391   5.825  12.777 -0.0897  0.1436 -0.5668
 8544TIP3    H147047   1.352   5.742  12.750  0.6812  0.1595 -1.7896
 8544TIP3    H247048   1.421   5.809  12.867  1.2354 -1.3340 -1.2217
 8545TIP3   OH247049   2.042   0.128   5.558 -0.0829 -0.4217 -0.2373
 8545TIP3    H147050   2.086   0.212   5.549  0.8613 -0.7885  0.7513
 8545TIP3    H247051   1.949   0.148   5.546  0.1723  0.6783 -0.4636
 8546TIP3   OH247052   2.149   4.937   1.081 -0.4476  0.0940  0.5996
 8546TIP3    H147053   2.208   4.862   1.088 -2.6206 -1.7745 -0.3456
 8546TIP3    H247054   2.203   5.006   1.041  0.3489 -2.5339 -3.3890
 8547TIP3   OH247055   5.025   2.417   6.344 -0.0328  0.1960 -0.4542
 8547TIP3    H147056   4.958   2.357   6.312 -0.8751  0.2730  1.0824
 8547TIP3    H247057   4.981   2.470   6.411  1.6322 -0.0310  0.9095
 8548TIP3   OH247058   1.741   4.285  13.596 -0.4661 -0.1680 -0.0348
 8548TIP3    H147059   1.693   4.367  13.590 -1.4430 -0.4886  2.3568
 8548TIP3    H247060   1.688   4.222  13.547 -0.8438  0.1599 -0.0459
 8549TIP3   OH247061   4.111   1.137   3.297 -0.8599 -0.0071  0.3606
 8549TIP3    H147062   4.041   1.073   3.311 -0.0565 -0.7767  0.9974
 8549TIP3    H247063   4.152   1.147   3.383 -0.3773  0.6563  0.0644
 8550TIP3   OH247064   0.376   5.998  14.827  0.4088  0.2769 -0.3295
 8550TIP3    H147065   0.469   6.001  14.806  0.6528  3.2193  0.7447
 8550TIP3    H247066   0.372   5.999  14.923 -0.7305  0.4877 -0.3581
 8551TIP3   OH247067   0.896   2.819   4.268 -0.4892 -0.2026 -0.2432
 8551TIP3    H147068   0.963   2.751   4.267 -0.2670 -0.0790 -2.9511
 8551TIP3    H247069   0.925   2.881   4.202 -2.0171  1.1751  0.3240
 8552TIP3   OH247070   2.066   3.021  12.135  0.0980  0.1819  0.5529
 8552TIP3    H147071   2.026   3.100  12.171 -0.0137  0.1671  0.4602
 8552TIP3    H247072   2.157   3.045  12.119 -0.2428  0.6854 -0.6997
 8553TIP3   OH247073   3.557   0.114  15.473 -0.4712 -0.3023 -0.3921
 8553TIP3    H147074   3.559   0.022  15.448  1.1287 -0.1903 -0.7882
 8553TIP3    H247075   3.576   0.161  15.392 -1.3289  0.3948 -0.2025
 8554TIP3   OH247076   3.307   5.165   1.374 -0.3038 -0.1872  0.6048
 8554TIP3    H147077   3.369   5.115   1.427  0.7985  1.1940  0.6930
 8554TIP3    H247078   3.315   5.126   1.286  0.3361 -0.3459  0.7250
 8555TIP3   OH247079   3.949   0.261  12.281  0.1445  0.0924 -0.0348
 8555TIP3    H147080   4.041   0.261  12.253 -0.1084  1.3389 -0.9343
 8555TIP3    H247081   3.902   0.302  12.209 -1.1290 -0.4468  0.4582
 8556TIP3   OH247082   2.599   3.047   3.565  0.0560  0.2510 -0.2719
 8556TIP3    H147083   2.546   3.126   3.582  0.0482  0.0187  0.8365
 8556TIP3    H247084   2.549   2.999   3.500 -1.1459  0.0303  0.7720
 8557TIP3   OH247085   1.156   0.404  12.238 -0.3209  0.3776 -0.3559
 8557TIP3    H147086   1.114   0.428  12.155  0.7608 -0.1112 -1.0709
 8557TIP3    H247087   1.237   0.454  12.239 -0.7391  1.0517  0.8406
 8558TIP3   OH247088   1.231   4.170   6.010  0.1875  0.1183 -0.3786
 8558TIP3    H147089   1.185   4.252   5.993 -0.3364  0.0788  0.7882
 8558TIP3    H247090   1.307   4.196   6.063 -0.5291 -0.2394  0.8700
 8559TIP3   OH247091   5.475   3.772  11.310 -0.0645 -0.4134 -0.5278
 8559TIP3    H147092   5.480   3.757  11.216 -0.7365  0.8061 -0.7714
 8559TIP3    H247093   5.404   3.715  11.339 -0.0385 -0.5884 -0.7988
 8560TIP3   OH247094   5.373   0.510   0.563 -0.1409  0.2650 -0.4001
 8560TIP3    H147095   5.436   0.546   0.625 -0.2792 -0.2096  0.0225
 8560TIP3    H247096   5.316   0.454   0.616  1.0694 -1.8886 -1.2811
 8561TIP3   OH247097   1.530   5.848   3.399 -0.1709 -0.7097  0.8891
 8561TIP3    H147098   1.471   5.916   3.366  1.1931  0.3950  0.6233
 8561TIP3    H247099   1.472   5.784   3.440 -1.4776  1.0134  1.8818
 8562TIP3   OH247100   4.882   1.031   5.447  0.2310  0.7169 -0.3801
 8562TIP3    H147101   4.888   0.936   5.460 -0.8733  0.5048 -1.2780
 8562TIP3    H247102   4.949   1.067   5.505  0.4585 -0.5906  0.2140
 8563TIP3   OH247103   1.872   4.017   3.436  0.0081  0.1669 -0.5932
 8563TIP3    H147104   1.789   4.006   3.481  1.7161 -1.1493  2.5320
 8563TIP3    H247105   1.901   4.105   3.460  0.9129 -0.5302  1.0752
 8564TIP3   OH247106   4.811   1.788  11.764  0.0991  0.3297 -0.6597
 8564TIP3    H147107   4.902   1.758  11.762 -0.4802 -1.5343 -0.5946
 8564TIP3    H247108   4.760   1.714  11.731 -1.5057  0.9331  0.3544
 8565TIP3   OH247109   0.103   6.164   4.321  0.0176  0.1249 -0.5115
 8565TIP3    H147110   0.038   6.111   4.367 -1.1919  0.8501 -1.3086
 8565TIP3    H247111   0.142   6.104   4.257 -0.8571  0.0172 -0.9563
 8566TIP3   OH247112   6.209   5.181  12.398 -0.3315  0.0975 -0.0140
 8566TIP3    H147113   6.263   5.211  12.324  0.1070  2.2478  1.1009
 8566TIP3    H247114   6.271   5.173  12.471 -0.9685 -0.7935  0.4421
 8567TIP3   OH247115   5.435   5.085  13.098  0.5110  0.5898 -0.6667
 8567TIP3    H147116   5.522   5.109  13.130  0.7881 -0.6246 -0.4527
 8567TIP3    H247117   5.397   5.033  13.170 -0.1020  0.5030 -1.0490
 8568TIP3   OH247118   3.054   4.740   2.607 -0.0502  0.4947 -0.2729
 8568TIP3    H147119   3.111   4.667   2.630  0.5937  1.0671 -0.0071
 8568TIP3    H247120   3.114   4.809   2.579 -0.6606  0.8560 -0.7055
 8569TIP3   OH247121   2.516   2.658   1.877  0.2330 -0.1608  0.0875
 8569TIP3    H147122   2.595   2.671   1.824 -1.4880  1.1266 -2.3799
 8569TIP3    H247123   2.488   2.569   1.858 -0.2206  0.2026 -1.0182
 8570TIP3   OH247124   1.750   4.164   3.654  0.0616 -0.0588 -0.0848
 8570TIP3    H147125   1.670   4.113   3.643 -0.5367  1.0605 -1.0324
 8570TIP3    H247126   1.755   4.180   3.749 -1.0347  0.1825 -0.0615
 8571TIP3   OH247127   2.590   3.250  16.276  0.2545  0.8202  0.7334
 8571TIP3    H147128   2.624   3.164  16.300 -1.1300 -0.2831 -1.0147
 8571TIP3    H247129   2.660   3.291  16.226  0.6374  0.4076  0.9213
 8572TIP3   OH247130   5.865   0.118   3.786  0.1851 -0.1953 -0.0662
 8572TIP3    H147131   5.797   0.183   3.774  1.0444  0.7735  0.1657
 8572TIP3    H247132   5.875   0.111   3.881 -1.9198 -2.8724  0.0832
 8573TIP3   OH247133   3.517   2.298  15.041 -0.0842  0.4143 -0.3053
 8573TIP3    H147134   3.548   2.298  14.950 -2.7246  0.5122 -1.3125
 8573TIP3    H247135   3.463   2.219  15.047 -0.1239  0.5335  1.1207
 8574TIP3   OH247136   2.507   0.369  13.154 -0.1604 -0.0186  0.1467
 8574TIP3    H147137   2.565   0.349  13.080  1.0035 -0.8146  1.2325
 8574TIP3    H247138   2.563   0.360  13.231 -1.5823 -0.1731  1.1965
 8575TIP3   OH247139   3.023   3.505  13.384 -0.0017 -0.5662 -0.7170
 8575TIP3    H147140   3.018   3.501  13.479 -2.4106  0.4268 -0.7100
 8575TIP3    H247141   3.070   3.586  13.365 -1.4228  0.4003 -0.2948
 8576TIP3   OH247142   3.552   0.745  16.585  0.5408 -0.0235  0.3837
 8576TIP3    H147143   3.470   0.794  16.577 -0.2048 -1.3272 -0.3330
 8576TIP3    H247144   3.549   0.708  16.673  0.2985 -0.1327  0.3324
 8577TIP3   OH247145   5.892   4.126  12.814  0.2709 -0.0913  0.5768
 8577TIP3    H147146   5.871   4.148  12.723 -0.3706 -0.6466  0.5789
 8577TIP3    H247147   5.826   4.173  12.865 -0.7163 -1.4785  0.6174
 8578TIP3   OH247148   3.384   0.139   2.971 -0.4013 -0.5002  0.5044
 8578TIP3    H147149   3.322   0.103   3.035 -1.4341  1.6729  0.8322
 8578TIP3    H247150   3.422   0.215   3.015  1.8410 -1.2189 -0.0649
 8579TIP3   OH247151   1.552   6.741  11.991 -0.0043  0.1406 -0.0650
 8579TIP3    H147152   1.635   6.780  12.020 -0.0828  1.2005 -1.1638
 8579TIP3    H247153   1.509   6.713  12.072  0.1020  2.3156  0.8190
 8580TIP3   OH247154   1.776   1.424  16.711 -0.0447  0.2850 -0.6716
 8580TIP3    H147155   1.743   1.334  16.708  0.1706  0.2222 -1.5941
 8580TIP3    H247156   1.697   1.478  16.702 -0.1297  0.1770 -0.5811
 8581TIP3   OH247157   5.928   1.943  12.457  0.0834  0.2980  0.6193
 8581TIP3    H147158   5.902   1.892  12.380 -0.6306  0.1283  0.9641
 8581TIP3    H247159   6.000   1.892  12.495 -0.3390 -0.2326  0.7193
 8582TIP3   OH247160   3.686   6.728   3.409 -0.9732 -1.1114 -0.3341
 8582TIP3    H147161   3.635   6.797   3.367 -0.8432 -1.4713 -1.0935
 8582TIP3    H247162   3.668   6.738   3.502  1.2739  1.8084 -0.0659
 8583TIP3   OH247163   5.567   5.301   5.875  0.2535  0.1093 -0.0481
 8583TIP3    H147164   5.660   5.287   5.888  0.6659  2.1922 -0.4273
 8583TIP3    H247165   5.562   5.373   5.813 -1.6134  0.0917  0.0254
 8584TIP3   OH247166   2.532   1.410   3.096  0.3363 -0.1513  0.7369
 8584TIP3    H147167   2.514   1.483   3.037 -0.4215 -1.2884 -0.5067
 8584TIP3    H247168   2.552   1.451   3.180  1.5859  1.5428 -0.3197
 8585TIP3   OH247169   5.376   2.143   0.807 -0.2745  0.4546  0.2614
 8585TIP3    H147170   5.408   2.208   0.745 -1.3766  1.1896  0.4515
 8585TIP3    H247171   5.319   2.086   0.755  0.4721 -0.2257  0.1555
 8586TIP3   OH247172   5.041   6.194   5.844  0.5912  0.0230 -0.3092
 8586TIP3    H147173   5.014   6.131   5.777  0.7175 -0.4824  0.1084
 8586TIP3    H247174   4.994   6.167   5.923 -1.1334  1.7889 -0.6337
 8587TIP3   OH247175   2.495   0.007  13.328 -0.5379 -0.0256 -0.4014
 8587TIP3    H147176   2.514   0.039  13.417 -0.4625 -0.4128 -0.2752
 8587TIP3    H247177   2.544   0.066  13.271  0.1982 -0.3542 -0.1309
 8588TIP3   OH247178   3.348   4.347   3.352 -0.0421 -0.5884  0.3336
 8588TIP3    H147179   3.419   4.361   3.289  0.3866  2.8925  1.3852
 8588TIP3    H247180   3.392   4.328   3.434 -0.4633 -1.3482  0.3924
 8589TIP3   OH247181   4.367   2.390  12.140  0.1610  0.1068  0.3450
 8589TIP3    H147182   4.334   2.480  12.141  2.0996  0.8784 -0.5847
 8589TIP3    H247183   4.462   2.399  12.129  0.5160 -2.0392  1.1752
 8590TIP3   OH247184   2.196   3.688  13.423 -0.4370 -0.0647 -0.6659
 8590TIP3    H147185   2.177   3.705  13.516 -0.7324  0.0516 -0.7478
 8590TIP3    H247186   2.221   3.773  13.388 -0.2498 -0.1233 -0.6768
 8591TIP3   OH247187   6.035   5.113   4.316  0.6163 -0.0617  0.2586
 8591TIP3    H147188   6.035   5.200   4.278  1.7823 -0.2148 -0.1360
 8591TIP3    H247189   5.950   5.105   4.359 -0.0473  0.7473 -0.8601
 8592TIP3   OH247190   3.044   6.057  11.456 -0.1322 -0.1256 -0.1744
 8592TIP3    H147191   3.097   6.100  11.388  1.3483 -1.3549  0.1475
 8592TIP3    H247192   3.038   5.966  11.427 -0.4461 -0.4171  0.7963
 8593TIP3   OH247193   4.312   4.124  12.345  0.1967  0.6326 -0.3422
 8593TIP3    H147194   4.320   4.185  12.272  2.4483  0.9709  0.1018
 8593TIP3    H247195   4.314   4.037  12.304  2.2729  0.7970 -0.6984
 8594TIP3   OH247196   6.114   0.721   0.655  0.7618 -0.0661  0.5442
 8594TIP3    H147197   6.094   0.732   0.562  0.2979  0.2733  0.6769
 8594TIP3    H247198   6.132   0.810   0.686 -1.4618  0.1992  1.2922
 8595TIP3   OH247199   4.115   4.262   5.792 -0.5564 -0.1659 -0.1483
 8595TIP3    H147200   4.185   4.282   5.730  0.8468 -1.6215  0.8588
 8595TIP3    H247201   4.046   4.324   5.772  0.6864  0.7715 -1.7663
 8596TIP3   OH247202   0.043   6.597  15.736  0.3263 -0.7154 -0.0293
 8596TIP3    H147203   0.069   6.546  15.660  0.5231 -1.6038  0.6181
 8596TIP3    H247204  -0.052   6.587  15.740 -0.2674  2.3961 -2.2964
 8597TIP3   OH247205   2.713   5.824   1.151  0.0823  0.2273  0.3653
 8597TIP3    H147206   2.757   5.801   1.069  0.9437 -0.5916  1.0233
 8597TIP3    H247207   2.784   5.831   1.214 -0.6926 -0.9227  1.4185
 8598TIP3   OH247208   5.710   1.016  16.909  0.2752  0.0235 -0.3874
 8598TIP3    H147209   5.688   1.079  16.978  2.2074  0.2071  0.1160
 8598TIP3    H247210   5.643   1.030  16.842 -0.6130  1.0823  0.6715
 8599TIP3   OH247211   6.146   3.215  15.042 -0.8607  0.4099 -0.1781
 8599TIP3    H147212   6.152   3.125  15.010 -2.1880  0.4357 -0.5575
 8599TIP3    H247213   6.052   3.230  15.055 -0.6115  1.5202  0.5345
 8600TIP3   OH247214   6.534   2.344  11.553  0.2806 -0.2306  0.3996
 8600TIP3    H147215   6.586   2.422  11.574 -0.1097  0.8612 -2.3304
 8600TIP3    H247216   6.480   2.330  11.630 -0.8226  3.2275  0.4012
 8601TIP3   OH247217   1.111   1.484  10.742 -0.3293 -0.1565 -0.4047
 8601TIP3    H147218   1.123   1.470  10.648  1.8735  0.6379 -0.3132
 8601TIP3    H247219   1.199   1.506  10.774 -1.1936  0.5382  1.6712
 8602TIP3   OH247220   6.184   5.930  14.863  0.3309  0.6610  0.0033
 8602TIP3    H147221   6.191   5.845  14.907  1.7286  0.8929  0.2664
 8602TIP3    H247222   6.126   5.913  14.788  0.7578 -0.5838 -0.0692
 8603TIP3   OH247223   2.024   2.616   5.266  0.3410 -0.3402  0.2718
 8603TIP3    H147224   2.099   2.671   5.247 -1.0130  1.5451  0.1163
 8603TIP3    H247225   2.008   2.628   5.360 -1.1343  1.1647 -0.1277
 8604TIP3   OH247226   3.251   4.328  10.703  0.4680 -0.3159  0.7317
 8604TIP3    H147227   3.224   4.291  10.787 -0.2053  1.6061  1.4247
 8604TIP3    H247228   3.338   4.365  10.720  1.0866 -1.4170  0.0816
 8605TIP3   OH247229   0.210   6.207  12.075  0.5511 -0.4228  0.6077
 8605TIP3    H147230   0.117   6.197  12.055  0.9051 -2.7778 -0.1567
 8605TIP3    H247231   0.212   6.236  12.166 -0.9183 -0.2621  0.6089
 8606TIP3   OH247232   4.283   3.517   0.733  0.1493  0.2365 -0.0474
 8606TIP3    H147233   4.279   3.429   0.696  0.1059 -0.6840  2.0015
 8606TIP3    H247234   4.193   3.534   0.763  0.0467  1.2025 -0.8448
 8607TIP3   OH247235   2.370   5.340  16.641 -0.1331  0.2632  0.7796
 8607TIP3    H147236   2.415   5.390  16.709  0.0369 -1.1706  1.7719
 8607TIP3    H247237   2.419   5.358  16.561  0.6881  0.6540  1.3587
 8608TIP3   OH247238   0.053   1.036   5.892 -0.3380  0.4049 -0.8327
 8608TIP3    H147239   0.067   0.980   5.968  0.9339 -0.5933 -1.7783
 8608TIP3    H247240   0.098   1.118   5.914 -2.2934  1.1720  0.5963
 8609TIP3   OH247241   3.229   3.198  13.766 -0.1049  0.0866 -0.2827
 8609TIP3    H147242   3.231   3.103  13.755 -0.6860  0.1116 -0.6161
 8609TIP3    H247243   3.137   3.219  13.782 -0.1508  0.7169 -1.3048
 8610TIP3   OH247244   0.235   0.215  12.576  0.2143 -0.2981 -0.0882
 8610TIP3    H147245   0.229   0.271  12.499  2.6988  0.5755  0.2667
 8610TIP3    H247246   0.305   0.154  12.556 -1.1454 -2.0843  0.3263
 8611TIP3   OH247247   2.553   4.197   5.548  0.3323 -0.3202  0.1690
 8611TIP3    H147248   2.502   4.129   5.504 -0.3114 -0.7361  1.4859
 8611TIP3    H247249   2.558   4.269   5.485 -1.7182 -0.3583 -0.1001
 8612TIP3   OH247250   1.836   0.530  11.552 -0.1820 -0.0910 -0.3185
 8612TIP3    H147251   1.867   0.469  11.486 -0.8580 -1.8684  0.9039
 8612TIP3    H247252   1.874   0.499  11.634 -1.9665 -0.0003  0.6171
 8613TIP3   OH247253   1.038   2.596   3.986  0.1341 -0.3274  0.2357
 8613TIP3    H147254   1.081   2.670   3.943 -1.2037  0.8174  0.8041
 8613TIP3    H247255   1.106   2.529   3.991  1.1841  0.5926 -0.9286
 8614TIP3   OH247256   5.778   3.392   5.582 -0.2128 -0.0062 -0.2018
 8614TIP3    H147257   5.726   3.452   5.529  0.0120 -0.4241 -0.9008
 8614TIP3    H247258   5.843   3.357   5.521  0.6467  0.2177  0.5615
 8615TIP3   OH247259   1.540   0.860   0.220  0.1811  0.2977  0.2957
 8615TIP3    H147260   1.491   0.930   0.262 -0.3446  0.3967 -0.4629
 8615TIP3    H247261   1.615   0.845   0.278 -0.9483 -0.1516  1.6942
 8616TIP3   OH247262   3.893   1.380  12.764 -0.7725 -0.1928  0.2719
 8616TIP3    H147263   3.923   1.470  12.749 -0.7375 -0.1210  0.7391
 8616TIP3    H247264   3.837   1.387  12.841  0.3374 -0.7917  1.1636
 8617TIP3   OH247265   3.419   1.765  11.656 -0.1198 -0.8358  0.4360
 8617TIP3    H147266   3.468   1.692  11.694  0.0070 -0.5267  0.8745
 8617TIP3    H247267   3.379   1.809  11.731 -0.4352 -0.6261  0.1491
 8618TIP3   OH247268   4.632   5.496   4.470  0.3369  0.8235  0.8734
 8618TIP3    H147269   4.688   5.509   4.393 -0.1945  2.3201  0.6947
 8618TIP3    H247270   4.584   5.579   4.479  0.2125  0.5997  2.6817
 8619TIP3   OH247271   0.789   2.379   4.544 -0.4218 -0.4307 -0.4485
 8619TIP3    H147272   0.816   2.357   4.455 -0.4553  2.5280 -1.2835
 8619TIP3    H247273   0.712   2.325   4.559 -0.4574 -0.9475 -2.2247
 8620TIP3   OH247274   6.155   2.773  11.272 -0.4905 -0.1781  0.6632
 8620TIP3    H147275   6.084   2.837  11.266 -0.1534  0.1813  0.4795
 8620TIP3    H247276   6.230   2.816  11.231 -0.2015 -0.6081  0.7330
 8621TIP3   OH247277   5.460   6.336   0.529 -0.0939  0.3377  0.0189
 8621TIP3    H147278   5.472   6.241   0.540 -1.2255  0.1326 -0.3248
 8621TIP3    H247279   5.548   6.372   0.531  0.2935 -0.5998  1.3076
 8622TIP3   OH247280   1.230   4.589  10.178  0.0516 -0.4230  0.0876
 8622TIP3    H147281   1.266   4.504  10.205  0.3440  0.4293  2.6319
 8622TIP3    H247282   1.283   4.614  10.102  2.4784 -0.8516  1.5412
 8623TIP3   OH247283   5.277   0.354  14.493 -0.0786  0.3425 -0.2930
 8623TIP3    H147284   5.277   0.338  14.398 -2.2852  1.0052 -0.4720
 8623TIP3    H247285   5.260   0.267  14.531 -0.3842  0.2745 -0.5783
 8624TIP3   OH247286   3.136   5.156   2.448  0.5173  0.3579 -0.0145
 8624TIP3    H147287   3.211   5.213   2.431  0.4929  1.5340  3.2328
 8624TIP3    H247288   3.173   5.076   2.483  0.3778 -0.6095 -1.9387
 8625TIP3   OH247289   1.402   0.679  15.264 -0.1091  0.0401  0.1006
 8625TIP3    H147290   1.375   0.743  15.330 -2.3017  0.7653 -1.3898
 8625TIP3    H247291   1.401   0.595  15.311 -4.4289  0.0928  0.4863
 8626TIP3   OH247292   0.668   6.407   1.011  0.1120 -0.3173  0.8366
 8626TIP3    H147293   0.620   6.332   0.977  0.5926 -0.6947  0.9693
 8626TIP3    H247294   0.614   6.483   0.989 -0.7926 -0.7654  1.4523
 8627TIP3   OH247295   4.398   4.840   2.943 -0.1585  0.2657  0.4462
 8627TIP3    H147296   4.420   4.754   2.907 -0.7906  0.1619  0.2947
 8627TIP3    H247297   4.350   4.883   2.873 -0.7540  0.3465  0.8978
 8628TIP3   OH247298   6.649   3.855  10.863  0.7387 -0.2485  0.1627
 8628TIP3    H147299   6.643   3.765  10.830 -0.3977 -0.3260  0.5360
 8628TIP3    H247300   6.679   3.845  10.953 -0.4665 -0.3575  0.5767
 8629TIP3   OH247301   2.407   1.823   5.596  0.1548 -0.2219  0.3853
 8629TIP3    H147302   2.487   1.876   5.598  0.6053 -0.8998  1.0629
 8629TIP3    H247303   2.426   1.749   5.654 -1.0983 -0.2098  0.8307
 8630TIP3   OH247304   1.790   4.030  11.820  0.0968 -0.5596  0.0482
 8630TIP3    H147305   1.761   4.092  11.887  1.6125 -1.3989  1.5908
 8630TIP3    H247306   1.759   4.067  11.738 -4.5296 -0.9836  1.3185
 8631TIP3   OH247307   3.176   3.435  16.071  0.3633  0.5080  0.4839
 8631TIP3    H147308   3.105   3.489  16.106  0.0210  0.0713  0.4878
 8631TIP3    H247309   3.216   3.488  16.004 -1.2049  0.0717 -0.8728
 8632TIP3   OH247310   5.521   0.170  10.979  0.4330  0.4714  0.3267
 8632TIP3    H147311   5.497   0.080  10.955 -2.9234  0.7849  1.9463
 8632TIP3    H247312   5.616   0.166  10.994  0.7087 -2.3366 -1.3158
 8633TIP3   OH247313   4.337   4.291   5.556  0.6955  0.2419  0.6707
 8633TIP3    H147314   4.431   4.280   5.574  0.9342  3.0675  1.6821
 8633TIP3    H247315   4.327   4.264   5.465  2.6948  0.7530  0.2417
 8634TIP3   OH247316   4.561   0.691   4.419  0.0985 -0.2805 -0.4060
 8634TIP3    H147317   4.586   0.630   4.488  1.6682  1.0127  0.2488
 8634TIP3    H247318   4.563   0.777   4.461  0.1255  0.4378 -1.8103
 8635TIP3   OH247319   4.449   1.916   3.755  0.2755 -0.1153  0.0743
 8635TIP3    H147320   4.408   1.840   3.795 -0.6812 -1.2304 -2.7771
 8635TIP3    H247321   4.528   1.882   3.714  2.3693  1.3806  2.5356
 8636TIP3   OH247322   5.042   6.682   5.988 -0.5951  0.1597 -0.5015
 8636TIP3    H147323   5.075   6.749   6.048 -1.2285 -0.4296  0.5408
 8636TIP3    H247324   4.973   6.727   5.938  2.2488  1.6936 -3.4118
 8637TIP3   OH247325   1.787   4.314  11.527 -0.4117 -0.6008 -0.4290
 8637TIP3    H147326   1.756   4.358  11.448 -1.7309  0.5968  0.6968
 8637TIP3    H247327   1.736   4.232  11.530  1.4272 -1.8951 -2.0693
 8638TIP3   OH247328   4.449   5.652  14.488 -0.1181  0.0212  0.1617
 8638TIP3    H147329   4.531   5.665  14.536  0.9383 -1.5551 -1.1377
 8638TIP3    H247330   4.440   5.557  14.480 -0.8519  0.2092 -1.7272
 8639TIP3   OH247331   4.257   5.824  14.988 -0.3277 -0.1979 -0.0207
 8639TIP3    H147332   4.164   5.843  14.980 -0.1169  0.6388 -0.5968
 8639TIP3    H247333   4.263   5.728  14.979 -1.1604 -0.2970  0.4392
 8640TIP3   OH247334   6.093   3.522  13.223  0.0179  0.1695 -0.1180
 8640TIP3    H147335   6.162   3.589  13.217  0.5433 -0.1214  2.1220
 8640TIP3    H247336   6.015   3.571  13.249  0.1416  0.0522  0.4664
 8641TIP3   OH247337   0.093   5.833  14.202 -0.2881  0.3438  0.2242
 8641TIP3    H147338   0.177   5.824  14.247 -0.7666  0.8743  1.2470
 8641TIP3    H247339   0.028   5.829  14.272 -1.0247  1.7991 -0.3483
 8642TIP3   OH247340   5.566   0.660  14.474 -0.1944 -0.2496 -0.2233
 8642TIP3    H147341   5.498   0.597  14.500 -1.9507  2.0232  0.9890
 8642TIP3    H247342   5.525   0.746  14.485  2.6766  1.2069 -0.1375
 8643TIP3   OH247343   3.825   4.334  11.041 -0.2734  0.2234 -0.3584
 8643TIP3    H147344   3.819   4.340  10.946  1.5985 -1.5251 -0.6619
 8643TIP3    H247345   3.735   4.349  11.072 -0.9108  0.8188 -2.3744
 8644TIP3   OH247346   0.439   3.548  16.893  0.3627 -0.0039 -0.3821
 8644TIP3    H147347   0.402   3.471  16.851 -0.4690 -0.6736  1.4738
 8644TIP3    H247348   0.410   3.622  16.839  0.7835 -0.9210 -1.9167
 8645TIP3   OH247349   4.940   3.258  17.070 -0.0019 -0.2513  0.2998
 8645TIP3    H147350   4.899   3.334  17.111 -0.7545 -0.8769  0.7160
 8645TIP3    H247351   4.876   3.228  17.005  0.8908  0.3250 -0.8954
 8646TIP3   OH247352   0.893   4.282  11.225  0.0521 -0.1888 -0.3121
 8646TIP3    H147353   0.852   4.217  11.282  0.8164 -0.7522 -0.3931
 8646TIP3    H247354   0.904   4.236  11.141  0.5039  0.0791 -0.3985
 8647TIP3   OH247355   2.245   1.055  13.902  0.4786 -0.4421 -0.0959
 8647TIP3    H147356   2.247   0.962  13.881  1.3952 -0.5855  0.5653
 8647TIP3    H247357   2.278   1.098  13.823 -1.2565 -0.5559 -0.9164
 8648TIP3   OH247358   0.789   4.515   1.783  0.3893  0.1182  0.3507
 8648TIP3    H147359   0.823   4.543   1.868 -0.9622 -0.9896  1.3129
 8648TIP3    H247360   0.821   4.425   1.772 -0.9200 -0.3966  0.5690
 8649TIP3   OH247361   1.187   3.959  11.246  0.6555  0.2358  0.2317
 8649TIP3    H147362   1.191   3.883  11.188  1.2339  0.0640  0.4935
 8649TIP3    H247363   1.131   3.930  11.319  1.7512 -0.3197  0.8727
 8650TIP3   OH247364   4.243   1.156   1.659 -0.1835  0.5161  0.6241
 8650TIP3    H147365   4.209   1.208   1.585 -1.2348  0.0871  0.7977
 8650TIP3    H247366   4.226   1.211   1.736  1.0713  1.0407  0.5517
 8651TIP3   OH247367   3.724   3.713  17.137 -0.5643  0.5939 -0.3387
 8651TIP3    H147368   3.703   3.722  17.044  2.5627  1.7835 -1.0735
 8651TIP3    H247369   3.696   3.796  17.177 -1.0410  0.4730 -0.4274
 8652TIP3   OH247370   1.013   3.063   5.356 -0.0499  0.1520  0.3195
 8652TIP3    H147371   1.095   3.033   5.319 -0.3851 -1.2989  0.7054
 8652TIP3    H247372   1.026   3.157   5.372  0.7847  0.3957 -1.5685
 8653TIP3   OH247373   3.995   3.612   1.299  0.0588  0.1083 -0.2624
 8653TIP3    H147374   3.921   3.596   1.241  0.5737 -1.9441 -0.4254
 8653TIP3    H247375   4.013   3.705   1.290 -2.2362  0.5843 -0.5047
 8654TIP3   OH247376   4.433   1.150   6.153  0.4345 -0.7733 -0.3566
 8654TIP3    H147377   4.394   1.148   6.066 -1.6682 -1.6353  0.5317
 8654TIP3    H247378   4.451   1.243   6.169 -3.0594  0.0215 -0.1764
 8655TIP3   OH247379   5.139   3.449   2.474  0.1874  0.0857  0.5097
 8655TIP3    H147380   5.177   3.373   2.430 -1.4167 -0.3393 -0.2032
 8655TIP3    H247381   5.137   3.517   2.406  0.5305  0.4056  0.8148
 8656TIP3   OH247382   0.486   1.514   2.730  0.2177  0.0664  0.3397
 8656TIP3    H147383   0.514   1.604   2.747 -0.9669  0.0744  2.6093
 8656TIP3    H247384   0.460   1.514   2.638  0.0171  2.0981  0.3541
 8657TIP3   OH247385   5.938   5.340   3.624 -0.6573 -0.1173  0.6589
 8657TIP3    H147386   5.874   5.410   3.636 -2.3556 -0.6361 -3.7348
 8657TIP3    H247387   5.886   5.260   3.626  0.2033 -0.7354 -0.7062
 8658TIP3   OH247388   0.770   3.130  10.937 -0.2424  0.1728 -0.3419
 8658TIP3    H147389   0.858   3.096  10.919 -0.6754 -0.1946 -1.9425
 8658TIP3    H247390   0.728   3.134  10.851 -1.1867  2.0768  0.1490
 8659TIP3   OH247391   4.507   4.517   4.079 -0.3075 -0.1857 -0.0036
 8659TIP3    H147392   4.486   4.575   4.005  1.3298 -0.6559 -0.8723
 8659TIP3    H247393   4.498   4.573   4.156  1.7188  1.4547 -0.8516
 8660TIP3   OH247394   4.302   0.713   3.653 -0.2103  0.3885 -0.0131
 8660TIP3    H147395   4.210   0.706   3.678 -0.0991  1.9426  0.9355
 8660TIP3    H247396   4.349   0.721   3.736  0.7847 -0.2660 -0.4953
 8661TIP3   OH247397   1.873   4.374  15.822 -0.0561 -0.1483  0.1222
 8661TIP3    H147398   1.801   4.332  15.775  1.9221 -1.4731 -1.9573
 8661TIP3    H247399   1.863   4.344  15.912 -1.4488 -1.2100 -0.3340
 8662TIP3   OH247400   3.212   5.786   4.100  0.1498  0.0889 -0.2188
 8662TIP3    H147401   3.292   5.796   4.048  0.0093  0.3529 -0.3888
 8662TIP3    H247402   3.153   5.736   4.044  0.9832 -2.1369  0.7774
 8663TIP3   OH247403   6.040   5.629   0.636 -0.4621 -0.3799  0.1258
 8663TIP3    H147404   6.055   5.720   0.663 -0.9844 -0.4084  0.5397
 8663TIP3    H247405   6.010   5.635   0.546 -0.4640 -0.1402  0.1420
 8664TIP3   OH247406   6.395   0.913   4.443  0.0849 -0.2937 -0.0951
 8664TIP3    H147407   6.359   0.826   4.460 -0.7565  0.1051  0.2049
 8664TIP3    H247408   6.403   0.918   4.348  1.6213 -1.2760 -0.0453
 8665TIP3   OH247409   2.120   6.350  12.778  0.2177 -0.8320 -0.2571
 8665TIP3    H147410   2.100   6.345  12.684  1.1416 -1.5361 -0.4306
 8665TIP3    H247411   2.196   6.408  12.783 -0.2427 -0.2387  0.1432
 8666TIP3   OH247412   0.078   1.031   4.873 -0.5493 -0.5566 -0.2332
 8666TIP3    H147413   0.158   1.022   4.924 -1.4245  1.3436  1.6630
 8666TIP3    H247414   0.106   1.030   4.782  1.7179  0.5527  0.3854
 8667TIP3   OH247415   4.136   1.843  11.186  0.2080  0.3439 -0.2631
 8667TIP3    H147416   4.046   1.863  11.160 -0.1966  2.3401  2.2808
 8667TIP3    H247417   4.127   1.785  11.262  1.1327 -0.4629 -0.7503
 8668TIP3   OH247418   6.799   2.810  13.638  0.2003  0.0632 -0.1645
 8668TIP3    H147419   6.742   2.846  13.570  0.1842  0.1640 -0.0963
 8668TIP3    H247420   6.800   2.876  13.707  1.2968  0.5832 -0.6436
 8669TIP3   OH247421   1.584   2.241   3.946 -0.1437  0.4578  0.0844
 8669TIP3    H147422   1.639   2.167   3.973  0.0165  0.9591  1.1982
 8669TIP3    H247423   1.547   2.274   4.028 -3.5818 -0.9444 -0.7529
 8670TIP3   OH247424   6.591   5.343   4.938  0.0384 -0.4933  0.8570
 8670TIP3    H147425   6.510   5.346   4.991  0.5159 -2.3967  1.7533
 8670TIP3    H247426   6.578   5.270   4.878  1.2998 -1.1749  1.3864
 8671TIP3   OH247427   6.424   4.201   0.515 -0.0999  0.2987  0.3862
 8671TIP3    H147428   6.361   4.263   0.550 -1.1964 -0.5004 -0.0900
 8671TIP3    H247429   6.502   4.212   0.568 -1.2524  0.0528  2.2153
 8672TIP3   OH247430   4.388   4.478  15.901 -0.7705  0.1335 -0.0645
 8672TIP3    H147431   4.440   4.425  15.962 -1.8000 -0.5914  0.2335
 8672TIP3    H247432   4.300   4.439  15.907 -0.8900  0.0427 -2.0396
 8673TIP3   OH247433   3.707   5.042  12.232  0.3487  0.8921  0.2810
 8673TIP3    H147434   3.796   5.010  12.250  0.5788  1.4937  0.2318
 8673TIP3    H247435   3.688   5.101  12.304  0.5800  1.9239 -0.4775
 8674TIP3   OH247436   6.058   0.461   4.887 -0.9159  0.2665 -0.5996
 8674TIP3    H147437   6.057   0.524   4.959  0.2885  1.3467 -1.4821
 8674TIP3    H247438   6.148   0.429   4.883 -0.2954  1.9964 -3.0431
 8675TIP3   OH247439   3.660   4.562  12.267 -0.3058  0.4420 -0.2475
 8675TIP3    H147440   3.691   4.556  12.176 -2.3535 -0.1102 -0.9763
 8675TIP3    H247441   3.588   4.625  12.263 -1.8065 -1.1512  0.5293
 8676TIP3   OH247442   2.083   1.268   0.974  0.1473 -0.1747 -0.0384
 8676TIP3    H147443   2.139   1.339   0.943 -0.6464  0.3507 -0.2847
 8676TIP3    H247444   2.034   1.241   0.897  0.6141 -1.1662 -0.0060
 8677TIP3   OH247445   1.132   5.620  16.062 -0.1658 -0.2231 -0.2250
 8677TIP3    H147446   1.127   5.535  16.019  2.3206 -1.2536  1.2889
 8677TIP3    H247447   1.075   5.612  16.138 -1.6884  0.3108 -1.2705
 8678TIP3   OH247448   0.177   6.706   4.168 -0.3295  0.5007 -0.2869
 8678TIP3    H147449   0.186   6.611   4.161 -0.7216  0.4679 -0.3130
 8678TIP3    H247450   0.137   6.720   4.254  0.6650  0.6939  0.1608
 8679TIP3   OH247451   1.829   5.231  11.995  0.1506 -0.3254  0.2025
 8679TIP3    H147452   1.855   5.322  11.981 -0.8111  0.1469  1.3544
 8679TIP3    H247453   1.887   5.199  12.063 -0.6213 -0.0266  1.0206
 8680TIP3   OH247454   0.005   6.501  16.894 -0.0332  0.4152 -0.8548
 8680TIP3    H147455  -0.019   6.589  16.863 -2.1332  0.8241  1.6087
 8680TIP3    H247456  -0.067   6.445  16.864 -0.0262  0.0646 -0.2332
 8681TIP3   OH247457   3.921   1.362   0.873  0.0336 -0.4425  0.2528
 8681TIP3    H147458   3.989   1.350   0.940  0.2229 -1.1637 -0.0587
 8681TIP3    H247459   3.845   1.314   0.906 -0.5050  0.7781  0.8367
 8682TIP3   OH247460   6.272   5.130  16.571  0.0597  0.2474 -0.5800
 8682TIP3    H147461   6.214   5.198  16.606 -0.6467  0.1420 -1.5005
 8682TIP3    H247462   6.310   5.089  16.648 -0.5870  0.7649  0.0293
 8683TIP3   OH247463   4.811   0.850  12.874  0.2754 -0.2019  0.2091
 8683TIP3    H147464   4.889   0.879  12.922 -0.7864 -0.4208  2.1688
 8683TIP3    H247465   4.787   0.924  12.819 -1.3162  2.1400  3.7084
 8684TIP3   OH247466   1.994   2.146   2.543  0.1435 -0.4568 -0.1062
 8684TIP3    H147467   1.997   2.053   2.565  1.7815 -0.5038 -0.3803
 8684TIP3    H247468   1.901   2.166   2.534 -0.3143 -1.6980  1.4497
 8685TIP3   OH247469   4.373   2.435   2.330  0.3280 -0.2115  0.8578
 8685TIP3    H147470   4.324   2.356   2.353 -0.1131  0.1552  1.1853
 8685TIP3    H247471   4.311   2.487   2.279  0.5290  0.0483  0.8785
 8686TIP3   OH247472   3.009   2.968  14.119 -0.5333 -0.0131 -0.4926
 8686TIP3    H147473   2.971   3.021  14.049 -0.8566 -1.8185 -1.7607
 8686TIP3    H247474   2.943   2.900  14.135 -0.4337  0.3081  1.5497
 8687TIP3   OH247475   3.431   0.321  11.355 -0.0486 -0.2139  0.4313
 8687TIP3    H147476   3.391   0.369  11.282  0.2424  0.4930  0.7229
 8687TIP3    H247477   3.402   0.231  11.344 -2.7753  0.4583  1.3337
 8688TIP3   OH247478   1.171   0.786   3.496 -0.0025  0.3689  0.2976
 8688TIP3    H147479   1.210   0.730   3.563  2.2402 -1.5443 -2.3190
 8688TIP3    H247480   1.088   0.744   3.475  2.2728 -3.3496 -2.6758
 8689TIP3   OH247481   3.116   3.101   5.252  0.0212  0.3100 -0.0739
 8689TIP3    H147482   3.140   3.102   5.344  0.5176  0.0356 -0.2011
 8689TIP3    H247483   3.114   3.194   5.227  0.7733  0.3455 -0.0180
 8690TIP3   OH247484   6.430   0.321  15.640 -0.0853  0.2218 -0.1128
 8690TIP3    H147485   6.430   0.247  15.701  0.5572  0.9022  0.7198
 8690TIP3    H247486   6.339   0.326  15.609 -0.4883  0.0261  0.9834
 8691TIP3   OH247487   0.339   6.263   3.643  0.3088  0.2383 -0.3214
 8691TIP3    H147488   0.289   6.338   3.609  0.6887  0.1225 -1.1591
 8691TIP3    H247489   0.419   6.262   3.591 -0.4506 -1.7921 -1.5392
 8692TIP3   OH247490   4.797   5.438   1.007 -0.3980  0.1390  0.1573
 8692TIP3    H147491   4.737   5.493   0.957 -1.1695  0.4375  1.3802
 8692TIP3    H247492   4.799   5.355   0.959 -0.1482  0.8122 -1.0442
 8693TIP3   OH247493   6.638   5.028  12.493 -0.2646  0.0227 -0.1468
 8693TIP3    H147494   6.678   5.002  12.411 -2.5665 -1.6751 -0.8242
 8693TIP3    H247495   6.597   4.948  12.527 -1.5958  1.2516  1.3109
 8694TIP3   OH247496   3.626   3.672   0.471 -0.0144  0.1781  0.1952
 8694TIP3    H147497   3.606   3.579   0.456  0.1121  0.1994 -0.1311
 8694TIP3    H247498   3.571   3.718   0.408  1.3830  0.2108 -1.0660
 8695TIP3   OH247499   4.594   1.348   4.981  0.3023  0.0584 -0.5158
 8695TIP3    H147500   4.687   1.338   5.001  0.2048 -0.9422 -0.5368
 8695TIP3    H247501   4.549   1.289   5.042 -0.5065  2.1787  1.0573
 8696TIP3   OH247502   4.260   5.158  17.081  0.0069  0.2069  0.8419
 8696TIP3    H147503   4.355   5.159  17.070 -0.1097  0.8916 -0.2845
 8696TIP3    H247504   4.228   5.103  17.010 -0.5384  1.5322  0.0173
 8697TIP3   OH247505   0.359   1.150  16.444  0.6356 -0.1534  0.0032
 8697TIP3    H147506   0.320   1.077  16.493 -0.7458 -0.7468 -1.8764
 8697TIP3    H247507   0.309   1.227  16.472  1.9583  0.0941  1.8344
 8698TIP3   OH247508   6.782   4.471  11.621 -0.0710 -0.6059  0.9159
 8698TIP3    H147509   6.703   4.491  11.570 -0.5598 -0.7826  1.5985
 8698TIP3    H247510   6.779   4.530  11.696  0.3537 -0.7368  1.0395
 8699TIP3   OH247511   0.142   5.153   3.443  0.2425  0.0937  0.2622
 8699TIP3    H147512   0.232   5.182   3.457  0.6776 -0.3027 -1.4545
 8699TIP3    H247513   0.119   5.186   3.356 -2.3331  2.6861  1.7344
 8700TIP3   OH247514   6.690   0.334  16.408 -0.1005  0.2350 -0.4087
 8700TIP3    H147515   6.673   0.302  16.320  0.0290 -1.2225  0.0710
 8700TIP3    H247516   6.760   0.279  16.441 -1.8330 -1.0003  1.4878
 8701TIP3   OH247517   6.477   5.956   3.692  0.4119  0.3646 -0.0699
 8701TIP3    H147518   6.478   6.017   3.618  0.0734 -0.1948 -0.5439
 8701TIP3    H247519   6.387   5.925   3.697  0.5671 -0.0532  0.2029
 8702TIP3   OH247520   2.948   3.025  12.206 -0.5693 -0.4672 -0.0602
 8702TIP3    H147521   2.869   3.021  12.152 -0.9993 -1.2688  0.6038
 8702TIP3    H247522   2.918   3.003  12.294  0.1140  0.8460  0.5402
 8703TIP3   OH247523   6.158   4.716  13.743  0.0583 -0.1274 -0.3442
 8703TIP3    H147524   6.208   4.728  13.663  0.8584  1.6999  0.3849
 8703TIP3    H247525   6.087   4.780  13.738  0.3028  0.2283  0.5528
 8704TIP3   OH247526   1.353   2.020  16.985  0.3286  1.0058  0.4596
 8704TIP3    H147527   1.383   1.944  17.035  0.0384 -0.5631 -1.6166
 8704TIP3    H247528   1.387   2.005  16.897 -2.8478  1.3025 -0.9605
 8705TIP3   OH247529   0.456   4.197   3.295  0.8182  0.0754  0.1484
 8705TIP3    H147530   0.517   4.178   3.367  2.0169  1.4345 -0.4581
 8705TIP3    H247531   0.451   4.292   3.293 -1.0275 -0.0030 -0.1105
 8706TIP3   OH247532   3.468   5.322   4.502  0.0458  0.6718 -0.3512
 8706TIP3    H147533   3.480   5.297   4.594 -1.8767 -0.4711 -0.3553
 8706TIP3    H247534   3.550   5.365   4.478  2.8305 -3.6034  0.3687
 8707TIP3   OH247535   1.973   4.032   4.502 -0.3029 -0.0228  0.5459
 8707TIP3    H147536   2.041   4.094   4.476  0.0189  0.0466  1.5338
 8707TIP3    H247537   1.993   4.009   4.592  1.0641 -3.5085 -0.4730
 8708TIP3   OH247538   5.716   4.410   1.233  0.0189  0.4008 -0.3860
 8708TIP3    H147539   5.748   4.497   1.260 -0.8068  0.9961 -1.2839
 8708TIP3    H247540   5.730   4.355   1.311 -0.4140  1.5826  0.5573
 8709TIP3   OH247541   4.205   3.388  12.651 -0.0356 -0.0379  0.1506
 8709TIP3    H147542   4.147   3.427  12.585  1.3179 -0.4310 -1.3630
 8709TIP3    H247543   4.155   3.316  12.689 -1.0227  0.4927 -0.1083
 8710TIP3   OH247544   2.370   3.487   2.729 -0.4248  0.0135 -0.6886
 8710TIP3    H147545   2.306   3.435   2.680  0.9129 -3.2356  0.7181
 8710TIP3    H247546   2.418   3.535   2.662 -1.7447 -0.5414 -2.1129
 8711TIP3   OH247547   5.880   3.054  13.174  0.0217 -0.6436  0.6669
 8711TIP3    H147548   5.898   2.989  13.106 -0.3573 -0.7491  0.6638
 8711TIP3    H247549   5.966   3.081  13.205  0.1849 -0.9960  0.5261
 8712TIP3   OH247550   5.630   5.745   4.500  0.0563 -0.1510 -0.5831
 8712TIP3    H147551   5.658   5.669   4.449  0.5088 -0.5306  0.2072
 8712TIP3    H247552   5.559   5.713   4.555  0.9812 -0.3036  0.5567
 8713TIP3   OH247553   2.026   2.953  10.709 -0.1375  0.4149  0.7009
 8713TIP3    H147554   1.940   2.931  10.746  0.1812  1.6235  2.2546
 8713TIP3    H247555   2.008   3.020  10.644 -0.4845 -0.2362  0.1095
 8714TIP3   OH247556   0.635   2.028   4.891  0.5416  0.4573  0.0562
 8714TIP3    H147557   0.600   2.108   4.930 -0.3769  0.3232 -0.4809
 8714TIP3    H247558   0.575   1.959   4.917  1.1844 -0.0241  0.2961
 8715TIP3   OH247559   2.348   2.573  12.905 -0.1262 -0.2814 -0.2060
 8715TIP3    H147560   2.285   2.587  12.976  2.6934 -0.6255  2.6092
 8715TIP3    H247561   2.379   2.483  12.918  2.0222  0.3654 -0.4581
 8716TIP3   OH247562   0.733   0.465  16.405 -0.2008 -0.2415 -0.4161
 8716TIP3    H147563   0.694   0.406  16.340  0.5869 -0.2474 -0.8909
 8716TIP3    H247564   0.668   0.535  16.415 -2.4108 -2.3977  2.0964
 8717TIP3   OH247565   6.746   3.303   1.804 -0.4744 -0.5960 -0.2392
 8717TIP3    H147566   6.673   3.325   1.861 -0.5273 -0.3598 -0.3987
 8717TIP3    H247567   6.745   3.207   1.799 -0.2409 -0.6364  0.4467
 8718TIP3   OH247568   4.546   4.619   1.641  0.0858 -0.8834  0.0452
 8718TIP3    H147569   4.630   4.577   1.659  0.1527 -1.2193 -0.9984
 8718TIP3    H247570   4.483   4.569   1.694  0.5338 -0.6207  0.8429
 8719TIP3   OH247571   1.364   2.092   2.016 -0.2200 -0.4198  0.7814
 8719TIP3    H147572   1.383   2.182   1.992  0.7641 -0.9607 -0.5897
 8719TIP3    H247573   1.446   2.059   2.052 -0.8451 -0.5069  2.1884
 8720TIP3   OH247574   6.390   4.585   5.608  0.1748 -0.2264  0.1909
 8720TIP3    H147575   6.317   4.569   5.549  0.0915 -0.6403  0.4000
 8720TIP3    H247576   6.409   4.499   5.646  1.0547 -0.2190 -0.1919
 8721TIP3   OH247577   0.074   6.342   1.062  0.8379 -0.3631  0.1435
 8721TIP3    H147578   0.067   6.261   1.011  0.3006 -0.3908  0.2497
 8721TIP3    H247579   0.005   6.334   1.128  1.6398 -0.3980  0.9831
 8722TIP3   OH247580   2.695   4.937  14.997 -0.1585 -0.3839  0.1251
 8722TIP3    H147581   2.699   5.001  14.927  1.1433  1.0861  1.4640
 8722TIP3    H247582   2.688   4.852  14.952  1.6178  0.4089 -1.8194
 8723TIP3   OH247583   6.156   3.653   5.581  0.1788 -0.4882  0.0404
 8723TIP3    H147584   6.231   3.633   5.525 -0.6824 -0.2916 -1.2446
 8723TIP3    H247585   6.081   3.619   5.532 -0.5983 -0.3954  1.1457
 8724TIP3   OH247586   0.285   1.564   0.808  0.8106  0.2439 -0.0726
 8724TIP3    H147587   0.294   1.512   0.728  0.2618 -0.6467  0.4289
 8724TIP3    H247588   0.202   1.610   0.798  1.7248  1.7979 -0.9280
 8725TIP3   OH247589   1.953   4.599   2.134 -0.0128 -0.1950 -0.2263
 8725TIP3    H147590   2.033   4.651   2.137 -1.8945  2.9759  0.8156
 8725TIP3    H247591   1.887   4.659   2.099 -2.0982 -2.4276 -0.3898
 8726TIP3   OH247592   6.131   4.617   1.961 -0.7959 -0.0921  0.5524
 8726TIP3    H147593   6.194   4.556   1.922  0.1032  0.1987  1.4981
 8726TIP3    H247594   6.179   4.659   2.032 -1.9501  0.4354  1.0506
 8727TIP3   OH247595   2.153   6.614  11.132 -0.2409  0.0936 -0.7978
 8727TIP3    H147596   2.067   6.634  11.096 -0.3983  2.7234  0.7573
 8727TIP3    H247597   2.136   6.587  11.222  0.5009 -0.6047 -0.8576
 8728TIP3   OH247598   2.360   5.926   5.527 -0.0712  0.2017 -0.0368
 8728TIP3    H147599   2.353   5.981   5.605 -2.0547  0.6009 -0.4372
 8728TIP3    H247600   2.286   5.865   5.534  1.0931 -1.3169 -0.4526
 8729TIP3   OH247601   2.710   4.249   2.104  0.2050  0.7240 -0.1634
 8729TIP3    H147602   2.782   4.311   2.115  0.3853  0.4405  0.3041
 8729TIP3    H247603   2.694   4.215   2.192 -0.1685  0.4150 -0.3469
 8730TIP3   OH247604   4.329   3.765   3.084  0.6821  0.1027 -0.5389
 8730TIP3    H147605   4.306   3.790   2.995 -1.5353  0.7377  0.1616
 8730TIP3    H247606   4.424   3.755   3.082  0.8138  1.2257 -2.6822
 8731TIP3   OH247607   5.498   6.741  15.509 -0.1508  0.7658 -0.2396
 8731TIP3    H147608   5.436   6.813  15.523  0.3606  1.1219  0.2421
 8731TIP3    H247609   5.567   6.779  15.455  0.6502  0.9517  0.8841
 8732TIP3   OH247610   0.706   0.720   4.424 -0.2770  0.2289 -0.5547
 8732TIP3    H147611   0.781   0.756   4.376 -0.0170 -1.4226 -1.4601
 8732TIP3    H247612   0.649   0.795   4.438  1.2986  1.4389 -0.2908
 8733TIP3   OH247613   3.882   2.023   3.190  0.6752 -0.3714  0.9856
 8733TIP3    H147614   3.957   1.971   3.218  0.4006 -0.3849  1.7278
 8733TIP3    H247615   3.869   2.086   3.261  1.4887  1.2565 -0.2370
 8734TIP3   OH247616   0.865   3.365  14.190 -0.0846  0.1178 -0.2854
 8734TIP3    H147617   0.860   3.409  14.105 -1.4700 -1.0785 -0.8514
 8734TIP3    H247618   0.789   3.396  14.238 -0.5362 -0.8967 -0.3274
 8735TIP3   OH247619   4.369   2.638   5.343  0.0570 -0.0350 -0.6932
 8735TIP3    H147620   4.305   2.575   5.374  0.7679 -1.3665 -1.8252
 8735TIP3    H247621   4.377   2.701   5.414 -0.3040 -1.5064  0.7089
 8736TIP3   OH247622   1.086   3.151  16.821 -0.0966 -0.0003 -0.0161
 8736TIP3    H147623   1.090   3.212  16.894  0.8863 -0.9838  0.7852
 8736TIP3    H247624   1.050   3.202  16.748 -2.8859  0.5413  1.6191
 8737TIP3   OH247625   4.471   2.080   1.515  0.2260 -0.0536  0.3712
 8737TIP3    H147626   4.442   2.160   1.560  1.4183  1.3614 -1.2266
 8737TIP3    H247627   4.398   2.057   1.458 -0.0668 -0.0096  0.7274
 8738TIP3   OH247628   0.958   0.212   5.914 -0.3172 -0.2981 -0.4261
 8738TIP3    H147629   0.969   0.245   6.003 -2.1138  0.6023 -0.4853
 8738TIP3    H247630   1.043   0.222   5.873  0.8833 -1.7829  1.4950
 8739TIP3   OH247631   5.219   0.479  13.640  0.1558  0.6288 -0.1433
 8739TIP3    H147632   5.155   0.549  13.657 -0.3635  0.8477 -2.6103
 8739TIP3    H247633   5.303   0.524  13.641  0.0266  0.8768  0.3112
 8740TIP3   OH247634   6.303   2.213   6.275 -0.0911 -0.2322 -0.4411
 8740TIP3    H147635   6.338   2.217   6.364 -1.2549  1.2228 -0.0102
 8740TIP3    H247636   6.272   2.302   6.257 -1.2510 -0.8487 -1.7254
 8741TIP3   OH247637   3.680   3.960  14.399 -0.5952  0.1651 -0.3174
 8741TIP3    H147638   3.649   3.968  14.489  1.5356 -0.0883  0.4983
 8741TIP3    H247639   3.713   3.870  14.393  1.6280  0.9133 -0.4919
 8742TIP3   OH247640   6.593   1.284  10.977 -0.4539 -0.4630  0.2650
 8742TIP3    H147641   6.685   1.307  10.960  0.3515 -1.4227  2.9060
 8742TIP3    H247642   6.559   1.360  11.025 -0.4069 -0.9855  1.1346
 8743TIP3   OH247643   5.603   3.028  13.689 -0.4108  0.3550  0.3267
 8743TIP3    H147644   5.597   2.933  13.687  0.1067  0.3312 -1.2867
 8743TIP3    H247645   5.548   3.057  13.616  1.9249  1.1060 -1.2559
 8744TIP3   OH247646   5.187   2.271   1.547 -0.2036  0.1265 -0.1719
 8744TIP3    H147647   5.116   2.223   1.591 -0.0539 -0.3545 -0.4495
 8744TIP3    H247648   5.187   2.357   1.589 -2.5383  1.0196 -1.8122
 8745TIP3   OH247649   5.184   6.005   1.632  0.0753 -0.0196  0.4944
 8745TIP3    H147650   5.098   5.986   1.672  0.0671 -1.2035 -0.0548
 8745TIP3    H247651   5.247   5.965   1.692  0.1013 -1.1729 -0.2706
 8746TIP3   OH247652   5.535   4.382   1.887 -0.0062 -0.3198 -0.1312
 8746TIP3    H147653   5.617   4.418   1.855 -0.5699 -0.2555 -1.5896
 8746TIP3    H247654   5.548   4.287   1.886  0.7467 -0.2801  1.6841
 8747TIP3   OH247655   0.968   0.546  16.653  0.0584  0.4516  0.7355
 8747TIP3    H147656   0.999   0.475  16.709 -0.8283 -0.7811 -0.2804
 8747TIP3    H247657   1.044   0.603  16.642  0.9754 -0.6829  1.0605
 8748TIP3   OH247658   5.262   3.029  15.127 -0.1878  0.4380 -0.2214
 8748TIP3    H147659   5.167   3.037  15.126 -0.2225  0.0246 -0.1125
 8748TIP3    H247660   5.290   3.071  15.045 -0.5593 -0.7395 -0.9721
 8749TIP3   OH247661   6.031   3.843   0.719 -0.1653  0.0885  0.7589
 8749TIP3    H147662   6.111   3.875   0.679 -1.4164  1.5607 -0.7207
 8749TIP3    H247663   6.033   3.748   0.707 -0.3603  0.4109 -2.7286
 8750TIP3   OH247664   2.195   4.523   2.539  0.1503 -0.3120 -0.1323
 8750TIP3    H147665   2.281   4.565   2.526 -0.1869  0.0400 -1.2696
 8750TIP3    H247666   2.167   4.497   2.452 -1.2801  0.3001  0.1285
 8751TIP3   OH247667   3.253   5.566   4.628 -0.0038  0.1545  0.1820
 8751TIP3    H147668   3.202   5.501   4.580 -1.5247  1.0675  0.4930
 8751TIP3    H247669   3.294   5.620   4.560  1.5191 -1.2548 -0.0845
 8752TIP3   OH247670   2.676   2.884   4.952 -0.2646  0.2042  0.2926
 8752TIP3    H147671   2.648   2.953   4.893 -0.6325  0.7317  1.0786
 8752TIP3    H247672   2.654   2.803   4.906 -1.2153  0.6060  0.0197
 8753TIP3   OH247673   2.507   2.926   0.731  0.3923 -0.1130 -0.0110
 8753TIP3    H147674   2.520   2.984   0.656 -0.6810  0.5977  0.3273
 8753TIP3    H247675   2.423   2.954   0.768  0.1095 -1.5405  0.4784
 8754TIP3   OH247676   2.941   1.422  15.867  0.5505 -0.0963 -0.6730
 8754TIP3    H147677   3.023   1.398  15.912  1.5337  0.9991 -1.8196
 8754TIP3    H247678   2.911   1.500  15.913 -1.7550 -2.3096  1.9588
 8755TIP3   OH247679   3.894   6.074   3.963  0.1352  0.3771 -0.2061
 8755TIP3    H147680   3.831   6.089   3.892  0.0692  0.0117 -0.2255
 8755TIP3    H247681   3.940   6.158   3.972 -0.7906  0.8507  0.2396
 8756TIP3   OH247682   5.691   1.177   2.035  0.2114  0.3128 -0.4042
 8756TIP3    H147683   5.777   1.218   2.026 -0.2726  0.8815 -3.0498
 8756TIP3    H247684   5.638   1.242   2.081  0.6978  0.7079 -0.4027
 8757TIP3   OH247685   3.075   2.180   0.246 -0.4580  0.0941  0.2090
 8757TIP3    H147686   3.015   2.159   0.174 -0.9237 -0.2923  0.7061
 8757TIP3    H247687   3.039   2.261   0.284 -0.6633 -0.1352  0.5047
 8758TIP3   OH247688   0.975   6.524   4.937 -0.0213  0.4134 -0.2488
 8758TIP3    H147689   1.037   6.492   4.872 -0.1735 -1.6645  0.5521
 8758TIP3    H247690   0.891   6.527   4.891  0.1665  0.5626 -0.5866
 8759TIP3   OH247691   2.602   2.436  14.842 -0.4159 -0.8203 -0.2578
 8759TIP3    H147692   2.600   2.442  14.747 -1.4140 -0.6667 -0.2357
 8759TIP3    H247693   2.559   2.353  14.862  2.0459 -2.1117 -0.0225
 8760TIP3   OH247694   4.926   5.288   1.717  0.0574  0.5601  0.1520
 8760TIP3    H147695   4.993   5.330   1.663  0.1911 -0.0776 -0.1923
 8760TIP3    H247696   4.898   5.213   1.664  0.3299 -0.1889  1.0558
 8761TIP3   OH247697   0.576   1.791   2.769 -0.1820  0.1928 -0.8274
 8761TIP3    H147698   0.632   1.745   2.831 -0.2778  0.5566 -0.4704
 8761TIP3    H247699   0.626   1.869   2.745 -1.0690  1.1835  0.4719
 8762TIP3   OH247700   1.929   4.463  14.381 -0.2943  0.0497 -0.6993
 8762TIP3    H147701   1.951   4.543  14.429  0.6453 -0.4319 -0.3121
 8762TIP3    H247702   1.956   4.392  14.439 -0.0362 -0.5490 -1.5413
 8763TIP3   OH247703   3.600   1.116  16.217  0.4262 -0.1097  0.2755
 8763TIP3    H147704   3.634   1.052  16.280  1.6868 -1.3066 -1.5213
 8763TIP3    H247705   3.669   1.183  16.212  0.4924 -0.2096 -0.1153
 8764TIP3   OH247706   6.358   1.089  14.036 -0.1719  0.1993 -0.3005
 8764TIP3    H147707   6.415   1.033  13.984 -0.4657  0.3464 -0.7936
 8764TIP3    H247708   6.397   1.176  14.029  0.1907  0.0862  0.3239
 8765TIP3   OH247709   1.855   2.324   0.283 -0.2648 -0.4519  1.1247
 8765TIP3    H147710   1.815   2.239   0.266  1.7486 -1.1414 -0.6882
 8765TIP3    H247711   1.916   2.308   0.355  0.9445 -0.8876  0.0450
 8766TIP3   OH247712   1.974   0.935   0.045 -0.2499  0.3303  0.4006
 8766TIP3    H147713   1.979   0.958   0.138 -1.7884 -0.9306  0.8426
 8766TIP3    H247714   1.896   0.980   0.014  0.4723  1.0508 -0.3899
 8767TIP3   OH247715   4.052   2.621   1.677 -0.4726  0.3688  0.1482
 8767TIP3    H147716   4.127   2.649   1.624  0.1333  0.1865  0.8890
 8767TIP3    H247717   3.977   2.632   1.619  0.1263  0.5176 -0.6273
 8768TIP3   OH247718   0.180   5.277  10.947  0.2237  0.0178  0.6563
 8768TIP3    H147719   0.231   5.253  10.870  0.2987 -2.8876  1.4899
 8768TIP3    H247720   0.213   5.364  10.972  1.3460  0.3018 -1.5644
 8769TIP3   OH247721   2.217   1.563   3.194  0.1865  0.3325  0.1146
 8769TIP3    H147722   2.234   1.643   3.244  0.3046  0.7649 -0.6133
 8769TIP3    H247723   2.264   1.575   3.112 -1.9738  0.7013 -1.1459
 8770TIP3   OH247724   1.878   1.618  15.496 -0.1571 -0.3499 -0.2745
 8770TIP3    H147725   1.901   1.621  15.403 -0.0630  0.3240 -0.2360
 8770TIP3    H247726   1.929   1.545  15.531  1.2902  0.5624 -0.3728
 8771TIP3   OH247727   2.189   0.917   5.845 -0.1219 -0.1391 -0.3698
 8771TIP3    H147728   2.271   0.901   5.892 -0.8758 -0.9081  0.7209
 8771TIP3    H247729   2.170   0.834   5.802  0.6980  0.6258 -2.3266
 8772TIP3   OH247730   0.538   5.629   5.326 -0.3907  0.0964 -0.2981
 8772TIP3    H147731   0.575   5.667   5.405 -0.8903  0.9946 -0.4804
 8772TIP3    H247732   0.488   5.554   5.356  0.4086 -0.2870  0.1011
 8773TIP3   OH247733   5.636   1.377   4.056 -0.2116  0.0370  0.2392
 8773TIP3    H147734   5.634   1.428   3.975  0.8300  0.7225  0.6255
 8773TIP3    H247735   5.712   1.319   4.045  0.3654  0.6312  1.0031
 8774TIP3   OH247736   6.539   1.485  11.164 -0.1382  0.5710  0.2862
 8774TIP3    H147737   6.628   1.510  11.142  0.1322 -0.8976 -0.3678
 8774TIP3    H247738   6.510   1.552  11.226  1.1180  1.5265 -0.1287
 8775TIP3   OH247739   1.627   0.900  14.052  0.2237 -0.1013 -0.2213
 8775TIP3    H147740   1.669   0.971  14.101  0.0321 -0.5948  0.6835
 8775TIP3    H247741   1.669   0.902  13.966 -0.9406  2.1848 -0.8185
 8776TIP3   OH247742   5.846   2.604   0.507 -0.0942 -0.1341  0.1111
 8776TIP3    H147743   5.755   2.604   0.537 -0.4543  0.1841 -0.9545
 8776TIP3    H247744   5.898   2.618   0.587 -0.9941  0.0388  0.6708
 8777TIP3   OH247745   2.001   4.031   3.793  0.3804 -0.1345  0.3585
 8777TIP3    H147746   1.925   3.983   3.761  2.0241 -2.3877 -0.4970
 8777TIP3    H247747   2.016   4.099   3.727 -0.6390  0.0600  0.3227
 8778TIP3   OH247748   1.514   3.608   3.958  0.4042  0.4411  0.1731
 8778TIP3    H147749   1.527   3.702   3.971 -2.5916  0.6150  3.3742
 8778TIP3    H247750   1.574   3.566   4.019  3.3028 -0.0348 -2.7230
 8779TIP3   OH247751   2.847   5.678  13.963 -0.0717  0.2636  0.1049
 8779TIP3    H147752   2.770   5.702  14.014 -0.5760  0.1943 -0.6023
 8779TIP3    H247753   2.911   5.746  13.983 -0.9734  1.3996 -0.7383
 8780TIP3   OH247754   4.052   2.202  15.499  0.3839 -0.1515  0.1275
 8780TIP3    H147755   3.963   2.211  15.533  0.6639 -0.5273  0.9865
 8780TIP3    H247756   4.108   2.212  15.576  1.0702 -0.3121 -0.3418
 8781TIP3   OH247757   6.741   1.411  15.659  0.8760 -0.3224 -0.3020
 8781TIP3    H147758   6.787   1.444  15.582  0.6599 -2.5566 -1.4523
 8781TIP3    H247759   6.664   1.467  15.668  0.6087 -0.3800 -2.0554
 8782TIP3   OH247760   3.403   6.114  12.750 -0.6551 -0.0345  0.0653
 8782TIP3    H147761   3.315   6.093  12.783 -0.2259 -1.3137  0.4522
 8782TIP3    H247762   3.461   6.057  12.800  0.3818  0.6663 -0.3257
 8783TIP3   OH247763   5.022   0.623   5.213  0.4064  0.2441  0.7278
 8783TIP3    H147764   5.008   0.598   5.305  0.5157  0.3645  0.7778
 8783TIP3    H247765   4.953   0.686   5.195 -1.1114 -1.5173  0.0132
 8784TIP3   OH247766   5.492   1.119   3.947  0.0923  0.1015 -0.3844
 8784TIP3    H147767   5.479   1.187   3.882 -0.5266 -0.1612 -0.5438
 8784TIP3    H247768   5.538   1.162   4.019  0.5380  0.4543 -0.8834
 8785TIP3   OH247769   6.471   5.528   1.566 -0.2141  0.0760 -0.3261
 8785TIP3    H147770   6.502   5.583   1.494  1.4494  0.4310  0.6111
 8785TIP3    H247771   6.530   5.549   1.639 -0.9702 -1.3062  0.7240
 8786TIP3   OH247772   5.431   3.649  10.583 -0.5227 -0.3816 -0.2972
 8786TIP3    H147773   5.483   3.622  10.507 -0.6419 -0.8394 -0.2224
 8786TIP3    H247774   5.342   3.661  10.548 -0.4889 -0.1700 -0.3119
 8787TIP3   OH247775   1.038   1.089  15.369  0.3786 -0.2531 -0.6956
 8787TIP3    H147776   0.948   1.117  15.352 -0.7949 -2.3963  1.2901
 8787TIP3    H247777   1.067   1.144  15.442  0.0037 -0.6694 -0.2207
 8788TIP3   OH247778   6.429   2.637   5.455 -0.0055 -0.6383 -0.5258
 8788TIP3    H147779   6.395   2.693   5.384  0.3967 -0.6954 -0.7648
 8788TIP3    H247780   6.492   2.693   5.501  0.1495 -0.7835 -0.5608
 8789TIP3   OH247781   2.516   3.502   4.994  0.2976  0.9214  0.0611
 8789TIP3    H147782   2.583   3.543   5.049 -0.6794 -0.4940  2.4657
 8789TIP3    H247783   2.435   3.511   5.044 -0.4819 -1.1963 -0.7056
 8790TIP3   OH247784   4.030   2.657  11.483 -0.0666 -0.5390  0.0103
 8790TIP3    H147785   4.070   2.663  11.569 -1.0091 -0.1329  0.4343
 8790TIP3    H247786   3.959   2.594  11.494  0.0232 -0.7407 -0.5509
 8791TIP3   OH247787   2.832   5.211   0.699 -0.1735  0.2231  0.0822
 8791TIP3    H147788   2.737   5.203   0.701 -0.2842  1.1906 -0.4694
 8791TIP3    H247789   2.859   5.207   0.790 -1.0135  2.5962  0.5215
 8792TIP3   OH247790   0.924   6.281  14.588 -0.0012  0.1735 -0.0801
 8792TIP3    H147791   0.926   6.222  14.663 -1.5708 -0.3019 -0.3728
 8792TIP3    H247792   0.988   6.349  14.609 -0.5438  0.1651  1.7777
 8793TIP3   OH247793   4.502   3.367   1.732 -0.0309 -0.2738 -0.0240
 8793TIP3    H147794   4.551   3.356   1.650 -1.5484  0.4424 -1.0750
 8793TIP3    H247795   4.468   3.279   1.751  1.9462 -0.8840  0.9695
 8794TIP3   OH247796   4.721   2.362  16.766  0.2910  0.3324 -0.0439
 8794TIP3    H147797   4.803   2.337  16.723 -0.4897 -1.4414 -0.5959
 8794TIP3    H247798   4.721   2.314  16.849 -1.7321 -2.6576 -1.6028
 8795TIP3   OH247799   2.137   3.292   3.507  0.2974 -0.2999  0.2437
 8795TIP3    H147800   2.060   3.259   3.553  0.6025 -0.5144  0.6071
 8795TIP3    H247801   2.109   3.376   3.471  0.4962  0.6910  2.2185
 8796TIP3   OH247802   2.858   3.075   3.905  0.0776 -0.8214  0.2522
 8796TIP3    H147803   2.887   3.010   3.842 -2.2767 -0.1039 -1.7124
 8796TIP3    H247804   2.891   3.158   3.871 -1.2888 -0.4165 -0.1259
 8797TIP3   OH247805   6.745   5.954   0.676  0.3564 -0.2153  0.0441
 8797TIP3    H147806   6.831   5.926   0.706 -0.1409 -0.8128  0.9582
 8797TIP3    H247807   6.696   5.873   0.663 -0.4018  0.1336  0.6030
 8798TIP3   OH247808   0.934   3.660   4.580 -0.4095  0.2742  0.1652
 8798TIP3    H147809   0.960   3.672   4.489 -0.4106 -0.0880  0.1143
 8798TIP3    H247810   0.970   3.575   4.604  1.6360  1.3705  1.2267
 8799TIP3   OH247811   6.577   5.738  16.767  0.7521 -0.2032  0.5066
 8799TIP3    H147812   6.513   5.809  16.762  0.0384 -0.8815 -0.2319
 8799TIP3    H247813   6.600   5.720  16.676  0.6429 -1.1687  0.6604
 8800TIP3   OH247814   2.017   4.084  15.496 -0.1418 -0.1185  0.4118
 8800TIP3    H147815   2.096   4.135  15.480 -0.1815 -0.1413  0.1319
 8800TIP3    H247816   2.026   4.007  15.440 -1.1849  0.7524 -1.0230
 8801TIP3   OH247817   4.078   2.523  12.299  0.4600 -0.2212  0.3086
 8801TIP3    H147818   3.997   2.567  12.272 -0.2593 -0.2880  2.2248
 8801TIP3    H247819   4.054   2.431  12.306  0.3692 -0.1032  1.9178
 8802TIP3   OH247820   1.439   3.991  15.236 -0.1309  0.2331 -0.4037
 8802TIP3    H147821   1.480   3.927  15.179 -0.5181  0.9885 -1.5634
 8802TIP3    H247822   1.431   3.946  15.320  0.6730 -0.8166 -0.8603
 8803TIP3   OH247823   3.798   0.138  12.456 -0.3519 -0.4147  0.0491
 8803TIP3    H147824   3.857   0.183  12.396  2.1406 -2.0962  1.0452
 8803TIP3    H247825   3.764   0.207  12.513  2.5380  0.4577  0.9023
 8804TIP3   OH247826   6.181   0.603   6.316 -0.0962  0.0057  0.8292
 8804TIP3    H147827   6.198   0.509   6.327 -0.3885 -0.0644  0.6933
 8804TIP3    H247828   6.112   0.607   6.250  0.7021  0.3674  0.0055
 8805TIP3   OH247829   6.691   3.024   5.927  0.1042 -0.0241  0.6040
 8805TIP3    H147830   6.731   2.937   5.923  0.8365  0.3419 -0.3069
 8805TIP3    H247831   6.661   3.032   6.017  3.1897  0.1430  1.7414
 8806TIP3   OH247832   4.077   3.527   1.713  0.4358  0.0000  0.2027
 8806TIP3    H147833   4.129   3.494   1.640 -0.9621  1.7142 -1.6583
 8806TIP3    H247834   4.123   3.606   1.742  0.7319 -0.4169  0.9052
 8807TIP3   OH247835   0.021   1.045  16.833  0.4591  0.2501 -0.2365
 8807TIP3    H147836  -0.011   1.131  16.809  1.9662  1.1210  0.6806
 8807TIP3    H247837  -0.050   1.005  16.883  0.8996  2.3264  2.2314
 8808TIP3   OH247838   5.344   0.686  11.433  0.1318 -0.7921 -0.0164
 8808TIP3    H147839   5.433   0.654  11.445 -0.3111 -1.9572  0.2944
 8808TIP3    H247840   5.295   0.652  11.508 -0.3968  0.5893  0.3054
 8809TIP3   OH247841   1.334   2.651  15.670 -0.6554 -0.1162  0.0421
 8809TIP3    H147842   1.254   2.703  15.663 -0.8699 -0.2052  1.4802
 8809TIP3    H247843   1.403   2.715  15.687 -0.7631 -0.1945  0.8274
 8810TIP3   OH247844   1.114   4.561   3.281 -0.1849 -0.1397  0.0174
 8810TIP3    H147845   1.131   4.651   3.308 -0.2416 -0.5108  1.3274
 8810TIP3    H247846   1.025   4.563   3.245 -1.0241 -0.0593  1.9901
 8811TIP3   OH247847   1.363   2.155  13.014  0.0793  0.1320 -0.1764
 8811TIP3    H147848   1.424   2.082  13.002  0.1319 -0.1985  1.8180
 8811TIP3    H247849   1.364   2.172  13.108 -2.1454  0.7976 -0.2176
 8812TIP3   OH247850   1.220   4.301   3.338  0.1226 -0.4875 -0.3206
 8812TIP3    H147851   1.174   4.369   3.289  2.1536  0.8065 -0.5175
 8812TIP3    H247852   1.176   4.299   3.423 -0.6983  0.2343 -0.7097
 8813TIP3   OH247853   0.398   2.441   2.717 -0.1763 -0.3758  0.1712
 8813TIP3    H147854   0.493   2.436   2.709 -0.2855 -0.1346 -1.6685
 8813TIP3    H247855   0.378   2.534   2.712 -0.4728 -0.3260  1.6514
 8814TIP3   OH247856   4.944   5.982  15.211 -0.1841 -0.1799  0.5414
 8814TIP3    H147857   4.951   5.959  15.304 -0.7944 -0.8148  0.4428
 8814TIP3    H247858   5.016   5.935  15.170 -0.6135 -0.8542  0.5366
 8815TIP3   OH247859   0.059   6.700   5.315  0.4023  0.1531 -0.2160
 8815TIP3    H147860   0.092   6.610   5.317  1.2303  0.4718  0.5475
 8815TIP3    H247861   0.017   6.712   5.400  0.8607  0.6989 -0.0639
 8816TIP3   OH247862   6.473   3.533   5.034  0.3818 -0.3233  0.0052
 8816TIP3    H147863   6.530   3.490   5.098 -0.7113  0.6177  1.6881
 8816TIP3    H247864   6.533   3.571   4.970  1.4896 -1.7641  0.1299
 8817TIP3   OH247865   3.919   3.601   2.347 -0.1705 -0.1016  0.1614
 8817TIP3    H147866   3.942   3.523   2.296  1.4695  0.0689  0.5640
 8817TIP3    H247867   3.903   3.668   2.281 -0.1739 -0.4225 -0.1705
 8818TIP3   OH247868   3.702   2.695  16.737  0.0388 -0.2166  0.0643
 8818TIP3    H147869   3.704   2.619  16.679  1.1138 -0.8179  0.8591
 8818TIP3    H247870   3.725   2.769  16.681  0.6436 -0.7249 -0.3609
 8819TIP3   OH247871   2.663   2.933  13.138  0.1163 -0.3181  0.5409
 8819TIP3    H147872   2.665   3.020  13.098 -3.1596 -0.2045  0.3233
 8819TIP3    H247873   2.713   2.942  13.219  1.4062  1.2180 -0.3776
 8820TIP3   OH247874   6.231   5.826  11.773  0.1262 -0.5960  0.5823
 8820TIP3    H147875   6.214   5.777  11.693  0.8084  0.3877 -0.1906
 8820TIP3    H247876   6.304   5.884  11.751 -0.2472  0.3260  1.6480
 8821TIP3   OH247877   5.642   5.428  12.289  0.5687  0.2499 -0.0767
 8821TIP3    H147878   5.614   5.357  12.347 -1.2719  0.9651 -0.0186
 8821TIP3    H247879   5.685   5.383  12.216  0.2961 -0.8666  0.4190
 8822TIP3   OH247880   3.064   6.061  17.132 -0.0131  0.2600  0.1498
 8822TIP3    H147881   3.051   5.967  17.145 -1.0073  0.5238  1.2120
 8822TIP3    H247882   2.995   6.088  17.072 -0.0232  0.3975  0.2214
 8823TIP3   OH247883   6.045   4.133  15.044 -0.0695  0.7515  0.2498
 8823TIP3    H147884   6.024   4.065  15.108 -0.0623 -0.3334 -0.8605
 8823TIP3    H247885   5.979   4.123  14.976  0.8166  0.8681 -0.6460
 8824TIP3   OH247886   6.672   3.621   5.205  0.4879 -0.6489 -0.6083
 8824TIP3    H147887   6.667   3.572   5.287  0.3601 -1.4714 -1.0931
 8824TIP3    H247888   6.630   3.704   5.224  0.4436 -0.8357  0.1532
 8825TIP3   OH247889   1.671   6.547   1.377 -0.5804 -0.0638  0.0312
 8825TIP3    H147890   1.640   6.611   1.313 -0.8342  0.3714  0.5812
 8825TIP3    H247891   1.599   6.484   1.384 -0.5622 -0.0995 -0.0888
 8826TIP3   OH247892   3.940   1.918  11.625 -0.2963 -0.0563  0.0956
 8826TIP3    H147893   3.881   1.935  11.698  0.1122 -0.0830  0.4350
 8826TIP3    H247894   3.885   1.876  11.559 -0.3020 -1.6635  1.0705
 8827TIP3   OH247895   6.420   0.929  13.106  0.2585  0.1436  0.1187
 8827TIP3    H147896   6.407   0.836  13.125 -2.4430  0.7002  1.4940
 8827TIP3    H247897   6.420   0.934  13.010 -0.8802 -1.1320  0.0247
 8828TIP3   OH247898   2.668   0.108   4.336 -0.1044 -0.5402 -0.1005
 8828TIP3    H147899   2.588   0.083   4.381 -0.8551 -0.1502 -1.1859
 8828TIP3    H247900   2.642   0.123   4.246  0.9401  0.9204 -0.2011
 8829TIP3   OH247901   0.081   4.651  16.522  0.5602  0.4089 -0.0148
 8829TIP3    H147902   0.076   4.677  16.430 -1.8364  3.7148  0.8763
 8829TIP3    H247903   0.134   4.718  16.563  0.1171 -0.0108  1.2970
 8830TIP3   OH247904   4.797   6.133   4.353  0.3353  0.2223  0.4403
 8830TIP3    H147905   4.709   6.170   4.353 -0.1053 -0.7960  1.2454
 8830TIP3    H247906   4.812   6.108   4.261  0.1174  1.1227  0.1478
 8831TIP3   OH247907   2.193   3.270  14.043 -0.9424  0.0398 -0.0293
 8831TIP3    H147908   2.202   3.360  14.010  0.0862  0.3477  1.0228
 8831TIP3    H247909   2.107   3.242  14.012 -1.5090  1.5740  0.0463
 8832TIP3   OH247910   5.002   4.857  13.464 -0.1943  0.5234  0.0500
 8832TIP3    H147911   5.021   4.868  13.371  0.1255 -0.0870  0.0365
 8832TIP3    H247912   4.973   4.943  13.493  2.4133  1.4820  0.0361
 8833TIP3   OH247913   3.006   4.282  12.224  0.3032  0.0094  0.3919
 8833TIP3    H147914   3.101   4.292  12.226  0.4052  0.0899 -1.8595
 8833TIP3    H247915   2.973   4.368  12.197 -0.4467  0.0779  1.4727
 8834TIP3   OH247916   2.581   6.445  16.207  0.4365 -0.0189 -0.2705
 8834TIP3    H147917   2.588   6.437  16.111 -0.2507 -1.2113 -0.2445
 8834TIP3    H247918   2.640   6.378  16.240  0.3107  0.0687  0.1322
 8835TIP3   OH247919   2.494   4.868  16.857 -0.1154  0.0229 -0.2624
 8835TIP3    H147920   2.451   4.867  16.771 -1.6557  0.7897  0.4725
 8835TIP3    H247921   2.579   4.826  16.841 -0.7773 -0.7847 -1.9352
 8836TIP3   OH247922   1.705   0.595   4.140 -0.5523  0.6943  0.1271
 8836TIP3    H147923   1.746   0.579   4.225  1.9864 -0.1141 -1.1434
 8836TIP3    H247924   1.739   0.681   4.113  0.5511 -0.0711 -1.0300
 8837TIP3   OH247925   1.292   5.854  14.357  0.1768 -0.0968  0.3518
 8837TIP3    H147926   1.284   5.851  14.262 -0.3158  0.5795  0.3644
 8837TIP3    H247927   1.359   5.921  14.373 -1.0268  1.1180  0.5136
 8838TIP3   OH247928   4.246   0.029  12.317  0.0935  0.2804  0.8210
 8838TIP3    H147929   4.217   0.073  12.397  2.8238  2.2404  0.8726
 8838TIP3    H247930   4.242   0.097  12.250 -1.2901 -1.0935 -0.5624
 8839TIP3   OH247931   1.871   3.599   6.468  0.2481  0.6670  0.2980
 8839TIP3    H147932   1.776   3.602   6.458  0.3629  0.1018 -1.2778
 8839TIP3    H247933   1.904   3.607   6.379  1.6336 -0.5409  0.6736
 8840TIP3   OH247934   3.166   5.501  12.795  0.0673 -0.3123  0.0739
 8840TIP3    H147935   3.191   5.479  12.885 -0.8621 -1.3981  0.0833
 8840TIP3    H247936   3.245   5.541  12.758 -0.1105  2.0336  1.9442
 8841TIP3   OH247937   5.727   4.343  14.663 -0.0516 -0.8091 -0.4888
 8841TIP3    H147938   5.730   4.351  14.567  1.4861 -0.1496 -0.4137
 8841TIP3    H247939   5.775   4.419  14.695 -1.0550 -0.7086  0.8429
 8842TIP3   OH247940   6.534   2.005  13.008 -0.3090  0.5430 -0.3016
 8842TIP3    H147941   6.443   1.993  12.982  0.1631  0.9394 -2.2664
 8842TIP3    H247942   6.564   1.918  13.033 -0.6684  0.0281 -1.6060
 8843TIP3   OH247943   4.605   3.728   3.133 -0.8151 -0.2590  0.5380
 8843TIP3    H147944   4.617   3.664   3.063 -0.2944  0.0028  0.3815
 8843TIP3    H247945   4.625   3.812   3.092  1.6596 -0.2967  1.5221
 8844TIP3   OH247946   5.043   5.949  10.605 -0.6253  0.6094  0.0683
 8844TIP3    H147947   5.121   5.911  10.566 -0.6807  0.2159  0.3302
 8844TIP3    H247948   4.979   5.879  10.603 -1.2844  1.2130 -1.0105
 8845TIP3   OH247949   0.851   4.580   3.237 -0.0018 -0.1853 -0.5075
 8845TIP3    H147950   0.852   4.565   3.143 -2.0513  1.5215 -0.8705
 8845TIP3    H247951   0.759   4.594   3.259  0.4227 -0.4663  1.7475
 8846TIP3   OH247952   6.483   1.866  15.724  0.3918 -0.1247  0.6504
 8846TIP3    H147953   6.544   1.938  15.705  0.1109  0.4841  1.9277
 8846TIP3    H247954   6.526   1.817  15.795 -0.5313  0.2516  1.4948
 8847TIP3   OH247955   3.995   1.581  15.675 -0.0541  0.1408 -0.1982
 8847TIP3    H147956   3.915   1.547  15.634  0.6253  0.7260 -2.1083
 8847TIP3    H247957   3.984   1.561  15.768 -2.3017 -0.0227 -0.4302
 8848TIP3   OH247958   1.377   4.826  11.684 -0.0134  0.6526 -0.9406
 8848TIP3    H147959   1.428   4.747  11.704  2.6303  2.4568  0.0480
 8848TIP3    H247960   1.415   4.858  11.602  0.3723  1.9370 -0.2840
 8849TIP3   OH247961   1.812   0.590   4.885  0.0266 -0.6582 -0.8127
 8849TIP3    H147962   1.744   0.523   4.899 -1.1034  0.1939 -1.9665
 8849TIP3    H247963   1.873   0.550   4.824 -0.3721 -0.8192 -1.1104
 8850TIP3   OH247964   3.719   3.139  16.847 -0.4793  0.3896  0.0014
 8850TIP3    H147965   3.649   3.097  16.797 -0.0372 -0.3125 -0.0369
 8850TIP3    H247966   3.735   3.222  16.801 -0.5075  0.0374 -0.6527
 8851TIP3   OH247967   2.284   1.511  11.580  0.1838  0.3147 -0.3774
 8851TIP3    H147968   2.311   1.548  11.664  3.0546 -0.1215 -0.9986
 8851TIP3    H247969   2.245   1.426  11.603  2.4666 -0.5802  0.5105
 8852TIP3   OH247970   6.023   4.294   6.193  0.0626  0.7540  0.6525
 8852TIP3    H147971   5.941   4.344   6.197 -0.8615 -0.7414  2.8491
 8852TIP3    H247972   6.062   4.305   6.280  0.9767 -0.4938  0.4381
 8853TIP3   OH247973   4.062   0.087   1.060 -0.0827  0.0176 -0.0817
 8853TIP3    H147974   4.042   0.173   1.096 -1.5038 -1.0078  1.7181
 8853TIP3    H247975   3.978   0.054   1.029  0.4542 -0.7329 -0.7773
 8854TIP3   OH247976   5.374   0.058   4.103  0.4489 -0.0234 -0.4191
 8854TIP3    H147977   5.364   0.077   4.196  1.6995  2.5840 -0.7330
 8854TIP3    H247978   5.295   0.093   4.062  0.9792  1.0268 -0.5711
 8855TIP3   OH247979   3.452   0.339   3.163  0.3206 -0.0594  0.4535
 8855TIP3    H147980   3.394   0.398   3.211  3.4715  1.2248  3.1104
 8855TIP3    H247981   3.517   0.397   3.123 -0.2486 -1.3933 -2.7369
 8856TIP3   OH247982   3.664   6.112  13.135 -0.1398  0.0963 -0.3873
 8856TIP3    H147983   3.654   6.056  13.211  0.0456  1.1875  0.4681
 8856TIP3    H247984   3.582   6.161  13.130 -0.5777 -0.7042 -1.5320
 8857TIP3   OH247985   1.638   3.986   2.335 -0.1028 -0.0942 -0.1742
 8857TIP3    H147986   1.693   3.995   2.256  0.5461  0.0661  0.2862
 8857TIP3    H247987   1.701   3.978   2.407 -0.6328 -2.7754  0.0986
 8858TIP3   OH247988   5.600   2.578  15.369 -0.2681 -0.3963  0.1752
 8858TIP3    H147989   5.631   2.596  15.458  0.9668 -0.6481 -0.1793
 8858TIP3    H247990   5.585   2.664  15.331 -1.3138 -0.2920  0.7813
 8859TIP3   OH247991   1.601   0.118   1.964  0.1381  0.2692  0.6522
 8859TIP3    H147992   1.686   0.075   1.968 -0.5260 -1.2588 -0.5193
 8859TIP3    H247993   1.620   0.207   1.933  1.4556  0.5907  2.2743
 8860TIP3   OH247994   5.198   1.028  11.156  0.4016 -0.0161  0.5477
 8860TIP3    H147995   5.149   0.968  11.212  0.6229  0.2981  1.0844
 8860TIP3    H247996   5.193   0.989  11.068 -0.2613 -0.3144  0.7168
 8861TIP3   OH247997   5.591   0.344  12.830  0.0366 -0.5121 -0.0833
 8861TIP3    H147998   5.675   0.315  12.794  1.5943  0.3267  2.5968
 8861TIP3    H247999   5.532   0.345  12.755  2.2747 -1.6151 -1.9868
 8862TIP3   OH248000   4.245   5.779  16.218 -0.1856  0.1694 -0.2132
 8862TIP3    H148001   4.310   5.769  16.149 -1.0218  0.4679 -1.0523
 8862TIP3    H248002   4.192   5.854  16.192 -1.1128 -0.3037  0.2627
 8863TIP3   OH248003   6.680   0.098  13.519  0.6217 -0.3712  0.2259
 8863TIP3    H148004   6.732   0.069  13.443 -1.6144  0.2949 -1.6632
 8863TIP3    H248005   6.742   0.150  13.571  2.8253 -2.6419  0.0887
 8864TIP3   OH248006   1.475   3.260   2.718 -0.1355 -0.1580  0.4298
 8864TIP3    H148007   1.530   3.310   2.779  0.0804 -0.8287  0.7910
 8864TIP3    H248008   1.416   3.325   2.681 -0.7469  0.1515  1.8890
 8865TIP3   OH248009   3.563   1.080  13.677  0.6153 -0.0961  0.4079
 8865TIP3    H148010   3.563   1.151  13.741 -0.7031 -0.2846  0.6393
 8865TIP3    H248011   3.493   1.022  13.706  1.1310 -1.0683 -0.2521
 8866TIP3   OH248012   1.246   1.019  16.890  0.4190 -0.3004 -0.0344
 8866TIP3    H148013   1.300   0.978  16.823  0.5754  0.3090 -0.2814
 8866TIP3    H248014   1.225   1.105  16.855  3.5387  1.5694  2.1848
 8867TIP3   OH248015   1.897   0.659   6.398 -1.0002  0.7322  0.2015
 8867TIP3    H148016   1.937   0.712   6.467 -1.5107  2.9627 -1.1161
 8867TIP3    H248017   1.970   0.611   6.360 -0.2510  1.5500  0.5527
 8868TIP3   OH248018   4.385   2.686   0.857  0.3704  0.1432  0.0402
 8868TIP3    H148019   4.419   2.680   0.768 -1.1570 -0.4495 -0.5240
 8868TIP3    H248020   4.446   2.634   0.910  0.7866 -0.2396 -0.8036
 8869TIP3   OH248021   3.151   5.106  15.099  0.7801  0.3046 -0.0052
 8869TIP3    H148022   3.221   5.078  15.039  2.5083  1.3868  1.3874
 8869TIP3    H248023   3.112   5.025  15.130  1.7122 -0.3533 -0.5109
 8870TIP3   OH248024   5.607   2.617   3.122  0.4843  0.0811 -0.5062
 8870TIP3    H148025   5.542   2.557   3.084  1.6519 -1.4942 -0.1029
 8870TIP3    H248026   5.656   2.649   3.046 -0.2174  0.6642 -0.7344
 8871TIP3   OH248027   3.440   5.034  13.614  0.9088  0.7620  0.2239
 8871TIP3    H148028   3.378   5.059  13.682  1.0635  1.0707  0.2547
 8871TIP3    H248029   3.478   5.117  13.585  0.2076  0.7238 -0.8604
 8872TIP3   OH248030   5.174   0.213   3.997  0.3932  0.8222 -0.5131
 8872TIP3    H148031   5.235   0.287   4.005  0.5008  1.0015 -2.5751
 8872TIP3    H248032   5.111   0.240   3.930 -1.0116 -0.0262  0.4092
 8873TIP3   OH248033   1.938   0.171  15.704  0.4052 -0.4350  0.4074
 8873TIP3    H148034   1.930   0.166  15.800 -0.2513 -1.0217  0.3261
 8873TIP3    H248035   1.848   0.164  15.673  0.7514 -1.8188 -0.3292
 8874TIP3   OH248036   3.474   6.014   4.900  0.5185 -0.3321  0.5171
 8874TIP3    H148037   3.426   5.964   4.966 -1.4932 -1.0107 -1.3099
 8874TIP3    H248038   3.556   5.967   4.889  0.8908 -0.2094  2.4634
 8875TIP3   OH248039   5.445   1.868   2.343  0.4430 -0.8751  0.0701
 8875TIP3    H148040   5.538   1.876   2.319  0.5693  0.9850  0.9813
 8875TIP3    H248041   5.421   1.956   2.372 -1.5223 -1.4244  0.2064
 8876TIP3   OH248042   6.767   1.322  15.935  0.0451 -0.6828 -0.3027
 8876TIP3    H148043   6.777   1.227  15.931  0.4897 -0.6199 -0.7671
 8876TIP3    H248044   6.787   1.352  15.846 -1.1799 -0.2543 -0.4565
 8877TIP3   OH248045   1.261   1.498   6.343 -0.4091 -0.1112 -0.3893
 8877TIP3    H148046   1.205   1.429   6.376 -0.7971 -0.2381 -1.2890
 8877TIP3    H248047   1.229   1.578   6.386 -1.0897 -0.2301 -0.6574
 8878TIP3   OH248048   1.815   1.771  14.335  0.1408 -0.0196  0.5842
 8878TIP3    H148049   1.882   1.716  14.294 -0.2420  0.4673 -0.7485
 8878TIP3    H248050   1.857   1.805  14.414  1.3267 -0.0633 -0.0070
 8879TIP3   OH248051   0.105   2.295   4.940  0.6542 -0.0946 -0.1580
 8879TIP3    H148052   0.183   2.330   4.983  0.2015  2.4075 -1.1956
 8879TIP3    H248053   0.108   2.201   4.958  2.6210  0.2572  1.8174
 8880TIP3   OH248054   0.591   3.129  14.252 -0.1001 -0.4297 -0.2118
 8880TIP3    H148055   0.524   3.068  14.222 -0.6357  0.6889 -1.3753
 8880TIP3    H248056   0.544   3.211  14.269  0.6787 -0.1699  0.8334
 8881TIP3   OH248057   4.481   1.175   1.277 -0.1215  0.3506 -0.1431
 8881TIP3    H148058   4.458   1.222   1.357  1.1601  0.3538  0.2321
 8881TIP3    H248059   4.546   1.231   1.234  1.0729 -0.8488  0.0753
 8882TIP3   OH248060   1.899   3.436   4.561  0.2273  0.1631  0.4271
 8882TIP3    H148061   1.828   3.410   4.503  0.5335 -0.8032  0.4633
 8882TIP3    H248062   1.865   3.419   4.649  0.2045  0.4745  0.4778
 8883TIP3   OH248063   3.327   4.902  12.351  0.1739 -0.0404  0.1856
 8883TIP3    H148064   3.343   4.936  12.263 -0.2852 -2.1840 -0.7870
 8883TIP3    H248065   3.249   4.948  12.382  0.4412  0.8514 -0.4252
 8884TIP3   OH248066   6.491   6.077   5.744 -0.8369  0.0767  0.0640
 8884TIP3    H148067   6.586   6.073   5.751 -0.7637  1.3926  0.2229
 8884TIP3    H248068   6.459   6.019   5.812 -0.1287  0.9697  1.1941
 8885TIP3   OH248069   3.282   0.878   3.543 -0.1803  0.0755  0.7446
 8885TIP3    H148070   3.190   0.858   3.562 -0.6900  2.0109  0.4925
 8885TIP3    H248071   3.280   0.927   3.461  0.8953  1.4823  1.5106
 8886TIP3   OH248072   3.914   1.688   0.960  0.0081 -0.0023  0.0302
 8886TIP3    H148073   3.843   1.659   1.017  0.5777 -0.1869  0.6666
 8886TIP3    H248074   3.910   1.783   0.963  0.7887  0.0288  1.4069
 8887TIP3   OH248075   1.183   6.643   4.590  0.1586  0.1456 -0.0302
 8887TIP3    H148076   1.213   6.618   4.678 -2.2014  2.1721  1.4940
 8887TIP3    H248077   1.196   6.738   4.586 -0.1167  0.1453 -1.7725
 8888TIP3   OH248078   6.723   3.692   5.887  0.7050  0.6820 -0.2792
 8888TIP3    H148079   6.795   3.663   5.943 -0.6190  0.3808  1.3724
 8888TIP3    H248080   6.706   3.782   5.914 -0.8862  0.0700  0.9027
 8889TIP3   OH248081   3.793   0.450  12.444  0.5334  0.3915 -0.5936
 8889TIP3    H148082   3.819   0.429  12.355 -0.5938 -0.9866 -0.6574
 8889TIP3    H248083   3.711   0.498  12.435  0.7852  0.8733 -0.3232
 8890TIP3   OH248084   2.780   1.937  13.853 -0.3445 -0.1803 -0.1235
 8890TIP3    H148085   2.695   1.981  13.847  0.6913  1.9552 -0.1563
 8890TIP3    H248086   2.827   1.965  13.774  0.7737 -0.4010  0.4352
 8891TIP3   OH248087   0.328   3.977  12.689 -0.1600  0.1249  0.4791
 8891TIP3    H148088   0.299   4.050  12.744 -1.8507  1.5172 -2.0243
 8891TIP3    H248089   0.262   3.909  12.702  0.1428 -0.0502  1.1037
 8892TIP3   OH248090   2.894   3.745   0.155  0.7414  0.5804 -0.6898
 8892TIP3    H148091   2.988   3.734   0.146  0.5253 -0.7299 -1.5979
 8892TIP3    H248092   2.858   3.656   0.156 -0.4822  1.0511 -0.3365
 8893TIP3   OH248093   1.815   1.142   5.517 -0.0222  0.6423 -0.5594
 8893TIP3    H148094   1.869   1.217   5.539  1.5918 -0.7437  0.4672
 8893TIP3    H248095   1.727   1.167   5.545  0.4994  2.0684 -0.1025
 8894TIP3   OH248096   4.665   2.652  15.148 -0.3810 -0.1798 -0.0072
 8894TIP3    H148097   4.749   2.670  15.190 -0.7162  0.3270  0.4516
 8894TIP3    H248098   4.615   2.602  15.213 -0.5265 -0.2594 -0.1788
 8895TIP3   OH248099   3.015   0.221   3.159 -0.5435 -0.0098  0.5655
 8895TIP3    H148100   3.061   0.298   3.191  0.3367 -0.8490  1.4134
 8895TIP3    H248101   2.937   0.214   3.215 -1.3659  1.0265 -0.4211
 8896TIP3   OH248102   6.640   0.760  11.973 -0.3778 -0.2133  0.3379
 8896TIP3    H148103   6.571   0.698  11.995 -0.0631 -0.8455 -0.3842
 8896TIP3    H248104   6.685   0.720  11.898  0.1717  0.6346  0.1973
 8897TIP3   OH248105   0.103   1.283  15.188  0.0545  0.6249 -0.1820
 8897TIP3    H148106   0.010   1.300  15.171 -0.4885 -0.3055  1.6251
 8897TIP3    H248107   0.112   1.188  15.182  0.6417  0.6095  0.7664
 8898TIP3   OH248108   4.488   1.001   1.731 -0.1583 -0.1843 -0.3455
 8898TIP3    H148109   4.410   1.052   1.706 -2.1199 -3.1796 -0.8893
 8898TIP3    H248110   4.471   0.975   1.822  1.0865  0.5265  0.1162
 8899TIP3   OH248111   4.907   1.325  14.082  0.0746 -0.1028  0.2832
 8899TIP3    H148112   4.830   1.373  14.113  0.7742  1.4433 -0.2263
 8899TIP3    H248113   4.935   1.373  14.004  2.3291  0.2331  1.1998
 8900TIP3   OH248114   2.474   1.906  12.180 -0.0055 -0.2657 -0.2363
 8900TIP3    H148115   2.555   1.899  12.230 -0.6520 -1.1887  0.7098
 8900TIP3    H248116   2.461   2.001  12.170 -0.8244  0.0848  3.0354
 8901TIP3   OH248117   3.403   2.263   0.404 -0.1311 -0.2121 -0.2230
 8901TIP3    H148118   3.322   2.220   0.376 -0.4637  1.6040 -2.3039
 8901TIP3    H248119   3.465   2.245   0.333 -0.2846  2.5640 -1.1886
 8902TIP3   OH248120   2.339   4.602  16.228  0.2957 -0.3074  0.2632
 8902TIP3    H148121   2.322   4.630  16.318 -0.0295 -0.5372  0.2735
 8902TIP3    H248122   2.311   4.511  16.226  1.1026 -0.5608  0.1577
 8903TIP3   OH248123   4.553   1.597   2.155 -0.2655 -0.8385 -0.6434
 8903TIP3    H148124   4.470   1.626   2.193  0.2260 -3.3269  2.8695
 8903TIP3    H248125   4.530   1.526   2.096 -0.7130 -1.1172 -0.1403
 8904TIP3   OH248126   2.950   6.259  15.763  0.0672  0.0573  0.3936
 8904TIP3    H148127   2.902   6.182  15.732  0.0150 -0.1652  1.0172
 8904TIP3    H248128   3.014   6.224  15.825 -0.0237  0.5281  0.7546
 8905TIP3   OH248129   6.398   4.742  16.051 -0.1726  0.2927 -0.2193
 8905TIP3    H148130   6.329   4.677  16.067 -1.1140  1.6451  1.6010
 8905TIP3    H248131   6.350   4.819  16.021  1.0392 -0.1766 -3.8069
 8906TIP3   OH248132   3.231   0.114  12.889 -0.0890 -0.0634  0.4101
 8906TIP3    H148133   3.310   0.060  12.886  1.4083  1.7390  3.1788
 8906TIP3    H248134   3.244   0.180  12.820  0.8075  0.1372  0.7527
 8907TIP3   OH248135   6.384   2.744  12.306 -0.6103  0.3315 -0.1450
 8907TIP3    H148136   6.405   2.795  12.228 -1.0949  0.8734  0.0724
 8907TIP3    H248137   6.291   2.759  12.321 -0.4588  0.4830  0.7115
 8908TIP3   OH248138   5.029   3.835  14.006 -0.4474  0.1149  0.0137
 8908TIP3    H148139   5.029   3.901  13.937  1.1310 -0.1077 -0.2442
 8908TIP3    H248140   5.090   3.768  13.975 -1.9946 -1.4903  0.2811
 8909TIP3   OH248141   2.700   4.567   0.023  0.0726  0.0317  0.3107
 8909TIP3    H148142   2.679   4.556   0.116 -1.3720 -2.6962 -0.2361
 8909TIP3    H248143   2.761   4.641   0.021  1.3429 -0.7595  3.5713
 8910TIP3   OH248144   3.861   0.788  12.312 -0.1525  0.2684 -0.1128
 8910TIP3    H148145   3.820   0.781  12.399  1.6285  1.8802  0.9259
 8910TIP3    H248146   3.878   0.697  12.287  0.3286 -0.2006  1.7567
 8911TIP3   OH248147   3.331   3.019   0.068  0.1328 -0.3246  0.1396
 8911TIP3    H148148   3.276   3.064   0.003  1.2980 -1.7952 -1.9918
 8911TIP3    H248149   3.412   3.069   0.068 -0.5647  0.9302  2.1439
 8912TIP3   OH248150   1.657   5.530  15.020  0.6711 -0.3921 -0.3560
 8912TIP3    H148151   1.616   5.454  15.061 -2.2646  0.5612 -1.2537
 8912TIP3    H248152   1.619   5.605  15.065  0.4261  0.5796 -2.0879
 8913TIP3   OH248153   1.194   1.103   4.721 -0.2697  0.1673 -0.2433
 8913TIP3    H148154   1.273   1.109   4.774 -0.6837  0.1996  0.3759
 8913TIP3    H248155   1.223   1.063   4.639  0.4555  0.5332 -0.1675
 8914TIP3   OH248156   1.320   6.154  15.616 -0.2162 -0.1089 -0.6337
 8914TIP3    H148157   1.401   6.172  15.663 -1.9627  1.3436  2.0588
 8914TIP3    H248158   1.297   6.065  15.640  0.9022 -0.8448 -2.0815
 8915TIP3   OH248159   4.615   6.085  14.449 -0.3064 -0.0633  0.4104
 8915TIP3    H148160   4.609   6.161  14.391  2.3436 -0.5551 -0.7040
 8915TIP3    H248161   4.574   6.112  14.530 -0.1564  2.2698 -0.2274
 8916TIP3   OH248162   0.925   3.536  12.216  0.2003 -0.6434  0.4055
 8916TIP3    H148163   0.830   3.524  12.216  0.4048 -2.5117  0.9054
 8916TIP3    H248164   0.958   3.463  12.165  1.3663  0.3003 -0.2276
 8917TIP3   OH248165   3.693   3.039   1.299 -0.5134 -0.1788 -0.3574
 8917TIP3    H148166   3.778   2.996   1.298 -0.9578 -1.0764 -1.1493
 8917TIP3    H248167   3.664   3.033   1.389 -0.9570 -2.3834 -0.5917
 8918TIP3   OH248168   3.951   1.925   1.826  0.0886 -0.0708  0.1814
 8918TIP3    H148169   3.898   1.987   1.778  0.1635  0.4081  0.7023
 8918TIP3    H248170   3.969   1.854   1.764  0.2624  0.5785 -0.5115
 8919TIP3   OH248171   4.294   4.719  14.551 -0.3288  0.3328  0.1204
 8919TIP3    H148172   4.341   4.801  14.536  0.3349 -0.0620 -0.0209
 8919TIP3    H248173   4.293   4.709  14.646  1.5258 -0.5550  0.0998
 8920TIP3   OH248174   5.899   0.754   0.983 -0.1086 -0.0757 -0.0939
 8920TIP3    H148175   5.859   0.668   0.999 -0.2580  0.0898  0.4315
 8920TIP3    H248176   5.992   0.741   1.001 -0.3419  0.2386  1.5115
 8921TIP3   OH248177   4.104   0.135  14.352 -0.6006 -0.0649  0.6247
 8921TIP3    H148178   4.082   0.170  14.266  3.0284 -0.1235 -0.4987
 8921TIP3    H248179   4.100   0.040  14.340 -0.5660 -0.0717  0.6701
 8922TIP3   OH248180   2.843   3.189  13.095  0.0636  0.2220  0.3038
 8922TIP3    H148181   2.765   3.237  13.070 -0.4941 -0.8288 -0.0636
 8922TIP3    H248182   2.866   3.137  13.018  1.4720  0.9401  0.2105
 8923TIP3   OH248183   1.289   1.921   3.521  0.2563  0.0169  0.3017
 8923TIP3    H148184   1.226   1.859   3.559 -0.7202  1.0087  0.3373
 8923TIP3    H248185   1.308   1.982   3.592 -2.5705  2.6691 -1.0163
 8924TIP3   OH248186   3.967   6.649  15.566  0.4330 -0.8810  0.3863
 8924TIP3    H148187   3.897   6.605  15.615  0.8854  0.8915  2.7706
 8924TIP3    H248188   3.921   6.700  15.499 -0.2346 -2.8884 -0.7862
 8925TIP3   OH248189   6.363   2.209   0.747 -0.2241 -0.3993 -0.2802
 8925TIP3    H148190   6.307   2.191   0.671 -0.0262  0.4512 -0.6319
 8925TIP3    H248191   6.362   2.127   0.796 -0.9617 -0.7257 -0.8077
 8926TIP3   OH248192   3.573   5.303  13.802 -0.0233  0.2311  0.0921
 8926TIP3    H148193   3.521   5.336  13.729 -2.8472 -2.7618  0.5391
 8926TIP3    H248194   3.647   5.259  13.760 -1.2619 -0.8863 -1.0430
 8927TIP3   OH248195   4.846   6.710  12.352 -0.1892  0.2658  0.2366
 8927TIP3    H148196   4.773   6.767  12.327 -0.2734  0.0152 -0.0919
 8927TIP3    H248197   4.806   6.624  12.363 -0.1663  0.3745  1.3086
 8928TIP3   OH248198   6.590   4.503   0.979 -0.3168 -0.1403 -0.4632
 8928TIP3    H148199   6.534   4.447   1.033 -0.7652  1.4944  0.8252
 8928TIP3    H248200   6.677   4.496   1.021 -0.2184 -0.3637 -0.6990
 8929TIP3   OH248201   0.242   0.691   1.657  0.4988  0.1557 -0.0940
 8929TIP3    H148202   0.330   0.729   1.666  1.6339 -2.5462  1.4599
 8929TIP3    H248203   0.258   0.600   1.630 -1.7753 -0.5692  0.7513
 8930TIP3   OH248204   4.114   2.090   5.009  0.6576  0.6771 -0.0499
 8930TIP3    H148205   4.143   2.179   4.990  3.5676  0.0509  1.0118
 8930TIP3    H248206   4.101   2.089   5.104 -1.5642  0.4940 -0.3016
 8931TIP3   OH248207   3.637   1.549  11.652  0.3391  0.0718 -0.6872
 8931TIP3    H148208   3.695   1.474  11.658 -1.2314 -1.1869 -0.5759
 8931TIP3    H248209   3.669   1.599  11.577 -0.7922 -2.7282 -3.2223
 8932TIP3   OH248210   5.103   4.692  17.138  0.0399  0.7825  0.2230
 8932TIP3    H148211   5.028   4.737  17.178 -0.3723 -1.6239  2.5096
 8932TIP3    H248212   5.064   4.618  17.092  0.9191 -0.7805  1.8356
 8933TIP3   OH248213   6.374   2.595   3.508  0.2121  0.9061  0.0195
 8933TIP3    H148214   6.427   2.572   3.584  1.1911  1.4439 -0.4797
 8933TIP3    H248215   6.395   2.687   3.490 -0.9767  1.1639 -0.1327
 8934TIP3   OH248216   0.758   0.005   1.338  0.0530  0.2851  0.0650
 8934TIP3    H148217   0.742  -0.017   1.246 -1.7049  1.2626  0.0936
 8934TIP3    H248218   0.711  -0.062   1.387 -2.3017  1.9043  0.1717
 8935TIP3   OH248219   3.436   6.495  16.974  0.1538 -0.0507  0.1409
 8935TIP3    H148220   3.360   6.442  16.997 -0.9784  0.7048 -1.6518
 8935TIP3    H248221   3.449   6.480  16.880  1.6122  0.6042  0.2084
 8936TIP3   OH248222   1.962   4.438  13.242 -0.3157 -0.1284  0.4722
 8936TIP3    H148223   1.959   4.463  13.334 -0.5434  1.9071 -0.0227
 8936TIP3    H248224   1.879   4.393  13.227 -1.1516  1.1826  0.8880
 8937TIP3   OH248225   0.808   3.531   1.692  0.1684  0.0948 -0.1965
 8937TIP3    H148226   0.876   3.599   1.701 -0.2557  0.6778 -1.2595
 8937TIP3    H248227   0.729   3.579   1.669 -0.6725 -0.5660  1.1593
 8938TIP3   OH248228   4.161   3.781   0.936 -0.0620 -0.0453  0.1286
 8938TIP3    H148229   4.092   3.717   0.921 -0.2486 -0.0582  0.9917
 8938TIP3    H248230   4.215   3.778   0.856  0.1107 -1.4835  0.2682
 8939TIP3   OH248231   6.237   4.437   3.141 -0.2827  0.2886 -0.8795
 8939TIP3    H148232   6.155   4.394   3.117 -0.3647  1.8083 -3.6655
 8939TIP3    H248233   6.292   4.366   3.175 -2.6325 -0.7773  1.0131
 8940TIP3   OH248234   0.731   4.903  14.249  0.3769  0.4860  0.4478
 8940TIP3    H148235   0.799   4.841  14.221 -2.1228 -1.5739 -1.5920
 8940TIP3    H248236   0.725   4.966  14.176  1.7794  2.2804  1.7907
 8941TIP3   OH248237   6.510   1.663  15.436 -0.2723  0.2943  0.0776
 8941TIP3    H148238   6.546   1.585  15.394 -2.2553 -0.6464  0.0355
 8941TIP3    H248239   6.498   1.638  15.527  1.8159  1.5682  0.7773
 8942TIP3   OH248240   2.224   2.081   0.824 -0.6668 -0.3623  0.3152
 8942TIP3    H148241   2.263   2.168   0.821  0.3167 -0.7879  0.0678
 8942TIP3    H248242   2.295   2.025   0.856 -0.7102 -1.3557 -1.2259
 8943TIP3   OH248243   3.996   4.949   0.044  0.1079 -0.1970 -0.0409
 8943TIP3    H148244   4.041   5.024   0.082  0.5733 -0.7017  0.4240
 8943TIP3    H248245   4.022   4.875   0.098 -1.7644 -0.4284  0.6198
 8944TIP3   OH248246   6.364   0.649   0.752  1.0996  0.0408 -0.2150
 8944TIP3    H148247   6.362   0.615   0.841 -0.0571 -0.3693 -0.3830
 8944TIP3    H248248   6.273   0.673   0.733  0.9141 -1.7918 -1.9905
 8945TIP3   OH248249   0.201   3.483   1.069 -0.3979  0.3785 -0.0774
 8945TIP3    H148250   0.249   3.446   0.995  0.5082  1.9967 -0.3410
 8945TIP3    H248251   0.167   3.566   1.038 -1.1350  0.4745  0.9246
 8946TIP3   OH248252   0.114   6.268   1.866 -0.1178 -0.0371  0.4165
 8946TIP3    H148253   0.039   6.311   1.909 -1.3308 -1.7089  0.0656
 8946TIP3    H248254   0.133   6.324   1.791  1.3756  2.3809  2.4256
 8947TIP3   OH248255   5.579   4.222   3.836 -0.1684  0.1283 -0.9052
 8947TIP3    H148256   5.608   4.283   3.768 -2.4523 -0.1785 -2.2541
 8947TIP3    H248257   5.627   4.141   3.818  1.3620  0.8473 -0.3307
 8948TIP3   OH248258   5.878   1.032   3.853  0.3135 -0.0415 -0.3588
 8948TIP3    H148259   5.893   1.120   3.887  0.9644  0.2995 -1.4699
 8948TIP3    H248260   5.795   1.005   3.892  0.0338  1.1251 -0.1124
 8949TIP3   OH248261   0.438   6.013  16.672  0.4365  0.5660  0.1502
 8949TIP3    H148262   0.398   5.935  16.633  1.2668  0.0611  0.2895
 8949TIP3    H248263   0.372   6.082  16.662  0.9612  0.7502 -3.1139
 8950TIP3   OH248264   3.115   2.316  14.992 -0.2891 -0.4559  0.0654
 8950TIP3    H148265   3.175   2.390  14.995 -0.9585  0.3319 -2.8884
 8950TIP3    H248266   3.028   2.355  14.987 -1.0156 -1.5639  2.4011
 8951TIP3   OH248267   3.457   2.224   3.788  0.3613 -0.4063  0.9495
 8951TIP3    H148268   3.505   2.239   3.706 -0.6531  0.0068  0.4097
 8951TIP3    H248269   3.524   2.196   3.850  1.3503  0.4526  0.3058
 8952TIP3   OH248270   6.330   2.717  15.129  0.2254  1.0354  0.2767
 8952TIP3    H148271   6.391   2.697  15.200 -0.8760 -0.0015  0.9637
 8952TIP3    H248272   6.346   2.649  15.063 -1.0194 -0.0252  1.0186
 8953TIP3   OH248273   2.225   3.121  15.079 -0.1372  0.2435 -0.7552
 8953TIP3    H148274   2.211   3.171  14.998  0.7487  0.9759 -0.4692
 8953TIP3    H248275   2.279   3.047  15.052 -0.3686  0.1419 -0.9453
 8954TIP3   OH248276   3.794   2.411   3.618 -0.7539 -0.1603 -0.6595
 8954TIP3    H148277   3.780   2.444   3.707  0.5087 -1.2550 -0.0207
 8954TIP3    H248278   3.888   2.422   3.603 -1.0555  0.6419 -2.1450
 8955TIP3   OH248279   3.409   0.527  15.978  0.2561  0.8679  0.2724
 8955TIP3    H148280   3.326   0.568  15.954 -1.4120 -1.9885  0.5771
 8955TIP3    H248281   3.463   0.532  15.899 -0.9124  1.1989 -0.5259
 8956TIP3   OH248282   0.728   6.262  14.385  0.1661 -0.4653 -0.1073
 8956TIP3    H148283   0.805   6.249  14.441  0.2681  0.2857 -0.0733
 8956TIP3    H248284   0.680   6.334  14.425 -1.3463 -1.8513  0.6996
 8957TIP3   OH248285   2.655   4.917   2.895  0.1853 -0.3989  0.1658
 8957TIP3    H148286   2.585   4.855   2.918  1.2929 -2.1718 -1.0356
 8957TIP3    H248287   2.715   4.914   2.969 -1.2484  1.6317  1.5112
 8958TIP3   OH248288   6.434   4.240   5.162  0.4419  0.0683 -0.4205
 8958TIP3    H148289   6.343   4.230   5.132 -0.5495  1.1043  1.9660
 8958TIP3    H248290   6.467   4.314   5.112 -0.6713  0.8541 -0.0371
 8959TIP3   OH248291   1.321   4.066   1.451  0.0099  0.6292 -0.2425
 8959TIP3    H148292   1.246   4.121   1.430  0.3341  0.9872 -0.4728
 8959TIP3    H248293   1.283   3.987   1.490 -0.5054  0.6393 -0.7222
 8960TIP3   OH248294   3.383   5.299   2.948  0.2942  0.1154  0.4488
 8960TIP3    H148295   3.457   5.292   3.009  0.9602 -2.4074 -0.5231
 8960TIP3    H248296   3.422   5.333   2.868  0.5017 -1.4152 -0.1309
 8961TIP3   OH248297   0.287   1.356   5.223 -0.0909 -0.2289 -0.3278
 8961TIP3    H148298   0.204   1.332   5.266 -0.3014  0.7360 -0.1863
 8961TIP3    H248299   0.286   1.451   5.220 -0.0835 -0.2681 -2.5071
 8962TIP3   OH248300   1.003   4.374   4.519 -0.2390 -0.2754 -0.5935
 8962TIP3    H148301   1.023   4.451   4.573 -1.2165  0.5498 -1.3618
 8962TIP3    H248302   1.001   4.301   4.580  0.6646  0.3161  0.1649
 8963TIP3   OH248303   4.517   5.009  14.733 -0.0415  0.1075  0.5193
 8963TIP3    H148304   4.507   5.095  14.691  0.2804 -0.5987 -1.0781
 8963TIP3    H248305   4.437   4.998  14.783 -0.3832  1.0531  0.2169
 8964TIP3   OH248306   5.292   4.157   2.082 -0.5678  0.2540 -0.0752
 8964TIP3    H148307   5.218   4.217   2.085 -0.5099  0.4598 -1.6917
 8964TIP3    H248308   5.286   4.117   1.995  1.0117  0.0025 -0.0906
 8965TIP3   OH248309   5.070   4.093  12.953 -0.1842 -0.0842  0.2788
 8965TIP3    H148310   4.975   4.103  12.956 -0.1740  1.8225 -2.4279
 8965TIP3    H248311   5.088   4.061  12.864  1.7211 -0.2743  0.6908
 8966TIP3   OH248312   4.083   1.027   3.749  0.0130  0.6518  0.6404
 8966TIP3    H148313   3.994   1.039   3.718 -0.4411 -1.4082  0.9909
 8966TIP3    H248314   4.075   0.972   3.827  1.6487 -0.8205 -0.1509
 8967TIP3   OH248315   2.859   5.365   5.509 -0.3761  0.2176  0.0098
 8967TIP3    H148316   2.864   5.284   5.458  0.7878  0.7316 -0.7293
 8967TIP3    H248317   2.949   5.382   5.536 -0.8532  0.4064  1.5591
 8968TIP3   OH248318   2.367   6.257  12.580  0.2026 -0.3621 -0.2500
 8968TIP3    H148319   2.357   6.179  12.526 -0.6262 -0.3462 -0.1357
 8968TIP3    H248320   2.384   6.223  12.668 -1.1167 -0.4413 -0.0137
 8969TIP3   OH248321   3.076   1.374  15.424 -0.1892 -0.1441  0.5192
 8969TIP3    H148322   3.061   1.337  15.511 -1.3596  1.9758  1.2983
 8969TIP3    H248323   2.990   1.378  15.384  0.0271  0.8398  0.1154
 8970TIP3   OH248324   6.071   1.800  16.903  0.3166 -0.6036  0.2623
 8970TIP3    H148325   6.084   1.706  16.900  1.2658 -0.4985  0.8389
 8970TIP3    H248326   6.142   1.836  16.850 -0.1022 -0.2095 -0.0481
 8971TIP3   OH248327   2.364   5.702  12.824  0.1738 -0.7157 -0.4834
 8971TIP3    H148328   2.296   5.769  12.827  2.0569  1.3034  2.8662
 8971TIP3    H248329   2.322   5.623  12.858 -0.7485  0.2608  0.7326
 8972TIP3   OH248330   6.563   1.889   5.266  0.2046  0.4890  0.7649
 8972TIP3    H148331   6.518   1.922   5.343 -0.4862 -0.2758  0.6976
 8972TIP3    H248332   6.610   1.965   5.231 -1.3571  1.4140  0.6116
 8973TIP3   OH248333   4.178   2.189  12.255 -0.1240  0.0608 -0.4091
 8973TIP3    H148334   4.218   2.268  12.218  0.0222  0.0513 -0.2732
 8973TIP3    H248335   4.160   2.133  12.179 -1.7632  0.9084 -0.6832
 8974TIP3   OH248336   3.421   1.109   2.384 -0.4442  0.4313  0.5691
 8974TIP3    H148337   3.344   1.126   2.438 -1.2236  0.6688 -0.5792
 8974TIP3    H248338   3.386   1.092   2.297  0.7822  0.0670  0.1194
 8975TIP3   OH248339   1.506   3.197  14.550 -0.2651 -0.5906 -0.0778
 8975TIP3    H148340   1.458   3.169  14.472  1.9143 -0.6999 -1.4645
 8975TIP3    H248341   1.593   3.158  14.541  1.8437  3.5256 -0.3311
 8976TIP3   OH248342   1.017   3.726   1.088 -0.0911  0.2333  0.1101
 8976TIP3    H148343   1.003   3.663   1.159  0.3740 -0.4277 -0.3689
 8976TIP3    H248344   1.098   3.697   1.045 -0.4148  0.5505 -0.7495
 8977TIP3   OH248345   2.280   2.240   1.730  0.4863  0.2070  0.4138
 8977TIP3    H148346   2.245   2.188   1.803 -0.1521 -1.8537 -1.2623
 8977TIP3    H248347   2.222   2.219   1.657  0.9129  2.4705 -0.6395
 8978TIP3   OH248348   4.842   2.474  12.195  0.0015 -0.2341 -0.0546
 8978TIP3    H148349   4.818   2.519  12.276 -2.1266  0.5535 -1.0286
 8978TIP3    H248350   4.887   2.395  12.223 -0.5637  0.0887  1.8945
 8979TIP3   OH248351   0.503   0.406   5.734 -0.8057  0.2844 -0.1338
 8979TIP3    H148352   0.410   0.405   5.710 -0.5074  0.9675 -1.4041
 8979TIP3    H248353   0.550   0.399   5.650  0.2994  3.0504  0.1545
 8980TIP3   OH248354   2.878   3.979   3.374  0.1138 -0.5069 -0.8341
 8980TIP3    H148355   2.817   3.934   3.316  0.5686 -1.5431 -0.5270
 8980TIP3    H248356   2.964   3.945   3.350  0.4871  0.2730 -0.6494
 8981TIP3   OH248357   4.157   6.135  15.430 -0.3784  0.2854 -0.0551
 8981TIP3    H148358   4.137   6.139  15.336 -3.2440 -1.6942  0.3622
 8981TIP3    H248359   4.099   6.200  15.470  0.0281  0.3411  0.4511
 8982TIP3   OH248360   0.757   5.681   2.181 -0.2802 -0.0201 -0.4141
 8982TIP3    H148361   0.844   5.662   2.146 -0.6643 -0.9097 -0.9418
 8982TIP3    H248362   0.746   5.619   2.253 -0.1284  0.7141  0.2551
 8983TIP3   OH248363   6.175   1.272  13.939 -0.0179 -0.2432 -0.0495
 8983TIP3    H148364   6.225   1.199  13.974  2.0150  1.1294  0.0548
 8983TIP3    H248365   6.160   1.329  14.014 -0.2212  0.1923 -0.4161
 8984TIP3   OH248366   5.494   5.015  12.533  0.4230  0.4924 -0.7572
 8984TIP3    H148367   5.418   4.992  12.586  0.0238  1.5199 -0.8608
 8984TIP3    H248368   5.552   4.939  12.540 -0.0759  0.1867  0.2983
 8985TIP3   OH248369   0.358   4.200   2.775 -0.1072 -0.1927  0.5058
 8985TIP3    H148370   0.326   4.110   2.765 -0.9183  0.3147 -2.5000
 8985TIP3    H248371   0.323   4.228   2.860 -3.7206 -1.2804 -0.4353
 8986TIP3   OH248372   0.750   6.731  14.373  0.1497  0.4112  0.5491
 8986TIP3    H148373   0.740   6.826  14.371 -1.0183  0.3475  1.7240
 8986TIP3    H248374   0.841   6.715  14.349  0.3315  1.8205  0.2456
 8987TIP3   OH248375   2.809   1.091   0.203  0.3815  0.0123 -0.0644
 8987TIP3    H148376   2.876   1.079   0.270  1.4901  0.7742 -0.9936
 8987TIP3    H248377   2.858   1.104   0.122 -0.8701  1.1508 -0.6795
 8988TIP3   OH248378   5.005   5.375  15.330  0.5074  0.1585 -0.2713
 8988TIP3    H148379   5.077   5.426  15.295  0.0272  1.5280  0.6206
 8988TIP3    H248380   4.939   5.375  15.261  0.8895 -0.0936 -0.6397
 8989TIP3   OH248381   0.379   3.948  11.207  0.2166  0.4572 -0.9811
 8989TIP3    H148382   0.425   3.966  11.289 -0.2843 -0.6141 -0.4334
 8989TIP3    H248383   0.411   4.014  11.146  0.9961  0.9493 -0.0694
 8990TIP3   OH248384   5.316   1.477  11.350  0.2907  0.1228  0.2655
 8990TIP3    H148385   5.339   1.521  11.432  1.0994 -0.1713  0.2068
 8990TIP3    H248386   5.312   1.384  11.373  0.7728  0.0150 -0.0823
 8991TIP3   OH248387   1.382   0.048   5.768 -0.6015  0.5878 -0.5448
 8991TIP3    H148388   1.410   0.002   5.689 -0.5731  1.1752 -0.8747
 8991TIP3    H248389   1.358  -0.023   5.829 -1.8702  0.1526 -1.5135
 8992TIP3   OH248390   6.414   4.623  14.309 -0.3145  0.2214  0.1794
 8992TIP3    H148391   6.335   4.575  14.333  0.1970 -0.5706  0.3234
 8992TIP3    H248392   6.484   4.581  14.360  0.2659  0.6340 -0.2574
 8993TIP3   OH248393   5.966   6.728  11.828  0.6069  0.0845 -0.2560
 8993TIP3    H148394   5.918   6.678  11.894  0.2576  0.8937  0.1181
 8993TIP3    H248395   6.008   6.799  11.877  1.0334  0.2005 -0.7846
 8994TIP3   OH248396   0.744   0.606  12.557 -0.0266 -0.3151  0.3503
 8994TIP3    H148397   0.694   0.666  12.612  0.5612  0.7128 -0.1997
 8994TIP3    H248398   0.681   0.576  12.491 -0.0009  0.8276 -0.2302
 8995TIP3   OH248399   0.352   5.881   1.343 -0.2468  0.7731  0.6992
 8995TIP3    H148400   0.295   5.812   1.376 -0.1918  0.5359  0.3023
 8995TIP3    H248401   0.293   5.951   1.316 -0.3168  0.7625  0.8255
 8996TIP3   OH248402   4.477   1.747   6.629 -0.1344  0.6190  0.0422
 8996TIP3    H148403   4.437   1.765   6.544 -0.7526  0.3765  0.2735
 8996TIP3    H248404   4.425   1.799   6.691 -1.0673 -0.8362  0.5372
 8997TIP3   OH248405   5.321   1.184  11.450 -0.6356  0.0372 -0.7175
 8997TIP3    H148406   5.400   1.132  11.463  0.0977  1.5502  1.4632
 8997TIP3    H248407   5.249   1.123  11.468 -0.0376 -1.2666 -2.4055
 8998TIP3   OH248408   3.390   3.122   4.558  0.0856 -0.6079  0.2890
 8998TIP3    H148409   3.434   3.037   4.561 -0.4142 -0.8523  2.1052
 8998TIP3    H248410   3.298   3.102   4.543  0.3461 -0.1554 -2.4201
 8999TIP3   OH248411   0.286   1.468  15.324 -0.6542  0.1489  0.6013
 8999TIP3    H148412   0.254   1.379  15.337 -0.2379  0.0389  0.8976
 8999TIP3    H248413   0.253   1.493  15.238 -0.3998 -0.4539  0.3226
 9000TIP3   OH248414   6.790   5.338  12.281 -0.4370  0.6069 -0.3015
 9000TIP3    H148415   6.814   5.417  12.232 -0.2935  1.0614  0.4976
 9000TIP3    H248416   6.712   5.364  12.330  0.4490  0.7043  1.0850
 9001TIP3   OH248417   6.080   2.925   4.425 -0.4039  0.1271 -0.2302
 9001TIP3    H148418   6.088   3.018   4.445  0.8299 -0.4090  2.1612
 9001TIP3    H248419   6.001   2.897   4.473 -1.4134  0.1142 -1.8350
 9002TIP3   OH248420   2.910   0.065  16.197  0.1889 -0.7385 -0.1331
 9002TIP3    H148421   2.894   0.125  16.125  1.8273 -1.2869 -1.0092
 9002TIP3    H248422   2.829   0.015  16.206 -0.2361 -0.2560 -1.2022
 9003TIP3   OH248423   1.158   1.902   5.641 -0.1573 -0.0765 -0.1367
 9003TIP3    H148424   1.180   1.900   5.734  2.1416  2.5446 -0.5011
 9003TIP3    H248425   1.065   1.877   5.638 -0.4776  0.3908  2.9048
 9004TIP3   OH248426   0.417   2.512   4.319 -0.0653 -0.5527  0.1706
 9004TIP3    H148427   0.334   2.533   4.362 -0.7432  1.0889 -1.7314
 9004TIP3    H248428   0.460   2.596   4.308  0.7940 -1.1060 -0.8922
 9005TIP3   OH248429   4.463   5.727   4.530 -0.5669  0.2543  0.1481
 9005TIP3    H148430   4.543   5.757   4.572 -0.8293 -1.3962  2.0228
 9005TIP3    H248431   4.395   5.740   4.596 -1.1040 -1.9957  0.1282
 9006TIP3   OH248432   1.181   6.583   1.416  0.1697  0.2443  0.2747
 9006TIP3    H148433   1.196   6.590   1.510 -0.1281  0.5549  0.2989
 9006TIP3    H248434   1.246   6.519   1.387 -1.1499 -1.5383  1.0481
 9007TIP3   OH248435   0.450   2.610   5.661  0.1836 -0.0772 -0.3588
 9007TIP3    H148436   0.475   2.674   5.728 -0.4113 -1.4722  1.2651
 9007TIP3    H248437   0.533   2.583   5.622  0.6038  0.3267  0.2335
 9008TIP3   OH248438   1.649   4.790   4.943  0.3517  0.2205 -0.0298
 9008TIP3    H148439   1.584   4.805   5.012  1.7633  1.0882  1.1609
 9008TIP3    H248440   1.733   4.813   4.983  1.1894  1.1833 -2.1604
 9009TIP3   OH248441   0.651   2.205  14.649  0.0461  0.2111  0.1989
 9009TIP3    H148442   0.642   2.227  14.741  2.3250  1.1849  0.2435
 9009TIP3    H248443   0.563   2.215  14.613 -0.3324  2.7666  1.6542
 9010TIP3   OH248444   5.896   5.024  16.190  0.2040  0.1548 -0.3388
 9010TIP3    H148445   5.969   5.084  16.207 -1.0680  1.2434  1.7073
 9010TIP3    H248446   5.901   4.960  16.262 -0.6485  0.0500 -0.3660
 9011TIP3   OH248447   4.719   3.903  14.399  0.1709 -0.1733  0.6388
 9011TIP3    H148448   4.762   3.988  14.396 -0.2520  0.0459  0.6946
 9011TIP3    H248449   4.698   3.883  14.308 -1.3955  0.6548  0.7749
 9012TIP3   OH248450   1.782   1.142   5.940  0.1481  0.2899 -0.5122
 9012TIP3    H148451   1.695   1.102   5.932  0.3761 -0.0587 -1.4711
 9012TIP3    H248452   1.785   1.205   5.868  1.8255 -1.9351 -2.5765
 9013TIP3   OH248453   3.114   1.308  10.461 -0.7998  0.2006  0.0473
 9013TIP3    H148454   3.139   1.373  10.396 -0.4537  0.1790  0.1554
 9013TIP3    H248455   3.062   1.356  10.526  0.8929  0.7498  1.0451
 9014TIP3   OH248456   0.087   4.088  10.341 -0.5872 -0.6913  0.0826
 9014TIP3    H148457   0.083   4.006  10.291  1.5543  0.1445 -1.6043
 9014TIP3    H248458  -0.003   4.103  10.369 -1.7749 -1.6609 -2.8521
 9015TIP3   OH248459   4.384   4.619   0.945  0.8622  0.2184 -0.1711
 9015TIP3    H148460   4.379   4.651   0.855 -1.8880  1.0683  0.2023
 9015TIP3    H248461   4.350   4.530   0.941  0.3252  0.4114  0.0875
 9016TIP3   OH248462   2.099   3.245  11.664 -0.0276  0.5890 -0.3116
 9016TIP3    H148463   2.008   3.272  11.667  0.7577  3.3710  1.3741
 9016TIP3    H248464   2.146   3.322  11.633  2.0295  0.1522  1.4864
 9017TIP3   OH248465   1.535   4.710   3.843 -0.1358  0.2878  0.0876
 9017TIP3    H148466   1.563   4.700   3.753 -1.7419 -1.6713 -0.2642
 9017TIP3    H248467   1.475   4.637   3.858 -1.0141  1.3664  2.3030
 9018TIP3   OH248468   6.406   3.101  13.130  0.1330 -0.0200 -0.2726
 9018TIP3    H148469   6.434   3.016  13.096  0.9572  0.2751 -0.3666
 9018TIP3    H248470   6.425   3.162  13.058  1.1938  0.4996  0.4244
 9019TIP3   OH248471   4.242   2.300   4.885 -0.0773 -0.1890  0.0631
 9019TIP3    H148472   4.208   2.385   4.915 -3.1437 -1.4733  0.6668
 9019TIP3    H248473   4.259   2.314   4.792 -1.4955  0.8955 -0.0887
 9020TIP3   OH248474   5.470   4.612   0.591 -0.6908  0.2434 -0.4144
 9020TIP3    H148475   5.555   4.588   0.554 -1.1167 -0.1660 -1.1419
 9020TIP3    H248476   5.488   4.626   0.684 -0.1998 -1.8244 -0.1518
 9021TIP3   OH248477   3.054   2.671   4.408 -0.0878  0.1492 -0.2056
 9021TIP3    H148478   3.016   2.623   4.482  1.6217 -1.2066 -0.1737
 9021TIP3    H248479   3.143   2.639   4.401  0.4399  1.7807 -1.5745
 9022TIP3   OH248480   0.666   4.931  14.805 -0.6658  0.3602 -0.1062
 9022TIP3    H148481   0.581   4.911  14.768 -1.0763  1.0719  0.4202
 9022TIP3    H248482   0.724   4.943  14.730 -0.4970 -2.1833 -0.4661
 9023TIP3   OH248483   2.303   3.349   0.165  0.2069 -0.4808  0.0006
 9023TIP3    H148484   2.324   3.442   0.172  0.8580 -0.5688 -0.7276
 9023TIP3    H248485   2.329   3.313   0.250  0.3104 -0.0756  0.1461
 9024TIP3   OH248486   1.038   6.419  14.313 -0.9700 -0.0423 -0.1378
 9024TIP3    H148487   1.064   6.379  14.396  2.8055  0.3409 -0.9311
 9024TIP3    H248488   1.048   6.513  14.327  0.4318  0.0005 -1.1426
 9025TIP3   OH248489   0.274   1.046   2.313 -0.1044 -0.4285  0.0598
 9025TIP3    H148490   0.263   1.015   2.223  0.7205 -0.8511  0.0905
 9025TIP3    H248491   0.237   1.135   2.312  1.4045  0.2415 -1.1447
 9026TIP3   OH248492   0.428   0.041   6.148  0.5580 -0.4564  0.2244
 9026TIP3    H148493   0.411   0.096   6.224 -0.9479 -0.8193  0.1796
 9026TIP3    H248494   0.378  -0.039   6.165 -0.2173 -0.3366 -1.3741
 9027TIP3   OH248495   1.413   5.808   0.703  0.1856  0.3786  0.0963
 9027TIP3    H148496   1.488   5.777   0.754  0.6293 -0.3495 -0.9716
 9027TIP3    H248497   1.443   5.889   0.662 -0.5261  1.5594  1.7996
 9028TIP3   OH248498   5.115   3.403   4.287 -0.5163  0.3431 -0.0602
 9028TIP3    H148499   5.162   3.483   4.311 -0.2927  0.0814  0.4076
 9028TIP3    H248500   5.115   3.351   4.368 -0.8718 -0.0225 -0.2926
 9029TIP3   OH248501   0.270   4.755  14.360  0.1828  0.2254  0.0870
 9029TIP3    H148502   0.233   4.675  14.323  1.7346 -0.8428  0.7293
 9029TIP3    H248503   0.208   4.780  14.429 -0.5684 -0.1405 -0.4441
 9030TIP3   OH248504   3.556   0.600   0.353 -0.2392  0.7349 -0.0047
 9030TIP3    H148505   3.602   0.558   0.426  1.0927  0.4544 -0.9852
 9030TIP3    H248506   3.624   0.624   0.291 -1.3677  0.6517 -1.3373
 9031TIP3   OH248507   1.813   2.730   1.544 -0.0902  0.2248  0.2456
 9031TIP3    H148508   1.854   2.722   1.630 -1.7735 -0.5366  1.0219
 9031TIP3    H248509   1.857   2.664   1.490  0.9960  0.7257  0.4938
 9032TIP3   OH248510   3.741   2.430   3.138  0.5012 -0.3249 -0.4226
 9032TIP3    H148511   3.725   2.465   3.226 -1.9300 -0.2678 -0.8148
 9032TIP3    H248512   3.744   2.507   3.081  1.1615 -0.4216 -0.5335
 9033TIP3   OH248513   3.375   5.318  13.601  0.0846 -0.4078  0.0694
 9033TIP3    H148514   3.409   5.375  13.531  0.4950  0.0370  0.6262
 9033TIP3    H248515   3.289   5.356  13.622  0.1334 -0.3082  0.0871
 9034TIP3   OH248516   2.035   4.162  14.296  0.1033 -0.1097 -0.0480
 9034TIP3    H148517   2.072   4.247  14.276 -0.0009  0.3484  1.5874
 9034TIP3    H248518   2.107   4.111  14.332  0.3998 -1.0749 -1.8689
 9035TIP3   OH248519   4.107   1.317  13.576 -0.5473  0.4071 -0.5019
 9035TIP3    H148520   4.014   1.338  13.578 -0.3222  1.4278 -0.0273
 9035TIP3    H248521   4.149   1.391  13.621  0.5570  0.3175 -1.3528
 9036TIP3   OH248522   2.666   1.770  12.860  0.1587 -0.4055 -0.4086
 9036TIP3    H148523   2.584   1.773  12.910 -0.3353  1.0628 -1.2507
 9036TIP3    H248524   2.707   1.854  12.876  1.4379 -1.0578 -0.1531
 9037TIP3   OH248525   6.654   1.604   1.080  0.3749 -0.0404  0.5030
 9037TIP3    H148526   6.607   1.602   1.163  0.7572 -1.5386  0.7108
 9037TIP3    H248527   6.746   1.592   1.104  0.8094  2.0423  0.0388
 9038TIP3   OH248528   2.999   6.196   4.142  0.2071 -0.2150  0.0884
 9038TIP3    H148529   2.922   6.227   4.189  0.5574  1.6084 -0.4796
 9038TIP3    H248530   3.072   6.210   4.202  0.1422 -1.9566  0.6348
 9039TIP3   OH248531   2.604   2.229  12.677 -0.0769 -0.5427 -0.1797
 9039TIP3    H148532   2.602   2.219  12.582 -1.6852  0.7374 -0.3347
 9039TIP3    H248533   2.662   2.304  12.692 -0.0273 -0.5817 -0.1781
 9040TIP3   OH248534   5.764   0.981   2.528  0.4768  0.0534  0.1252
 9040TIP3    H148535   5.778   1.075   2.531 -0.5503  0.1962  1.1703
 9040TIP3    H248536   5.723   0.965   2.443 -1.2905  0.8765  0.7774
 9041TIP3   OH248537   4.001   1.510   4.364  0.1298  0.3585 -0.0895
 9041TIP3    H148538   4.071   1.448   4.382  0.7459  0.7264 -1.1129
 9041TIP3    H248539   4.040   1.596   4.382 -0.5905  0.4867  0.9423
 9042TIP3   OH248540   5.334   1.097   0.772  0.9602  0.5238 -0.0036
 9042TIP3    H148541   5.315   1.126   0.862 -1.1315  0.2550 -0.2987
 9042TIP3    H248542   5.429   1.097   0.767  1.1588  0.2731  2.3048
 9043TIP3   OH248543   2.929   4.551  12.758  0.3077  0.5650  0.0458
 9043TIP3    H148544   2.958   4.641  12.742  0.9153  0.6532  1.4712
 9043TIP3    H248545   2.972   4.500  12.689 -1.8795  1.5939 -2.2715
 9044TIP3   OH248546   1.252   2.406  12.292 -0.2529 -0.7045  0.2034
 9044TIP3    H148547   1.196   2.464  12.240 -0.3025 -1.3460 -0.4813
 9044TIP3    H248548   1.285   2.343  12.229  1.8600  0.0873  0.4260
 9045TIP3   OH248549   4.744   4.370   1.062  0.7266 -0.4314 -0.7618
 9045TIP3    H148550   4.708   4.400   0.979 -0.5227 -2.1788 -0.9086
 9045TIP3    H248551   4.682   4.303   1.093  1.1744  0.1278  1.5645
 9046TIP3   OH248552   5.014   5.667  14.926 -0.3849 -0.2461 -0.1826
 9046TIP3    H148553   5.072   5.716  14.984  0.0431 -0.6042 -0.3017
 9046TIP3    H248554   4.963   5.734  14.881 -2.6867  0.0210  2.5357
 9047TIP3   OH248555   5.863   2.855  14.476 -0.7120 -0.2803  0.0534
 9047TIP3    H148556   5.943   2.854  14.530  0.5991  1.0719 -1.7585
 9047TIP3    H248557   5.801   2.908  14.526  0.1265  0.1219  0.6972
 9048TIP3   OH248558   6.026   0.758  12.292  0.2499  0.0006 -0.0952
 9048TIP3    H148559   5.940   0.789  12.319  0.4422 -0.9192  1.7249
 9048TIP3    H248560   6.034   0.671  12.331  1.5286 -0.4574 -1.2743
 9049TIP3   OH248561   1.772   3.107   3.843 -0.4239 -0.4115  0.2781
 9049TIP3    H148562   1.757   3.031   3.900 -1.7720 -0.3700  0.0077
 9049TIP3    H248563   1.718   3.090   3.766 -0.1188  0.4536 -0.1376
 9050TIP3   OH248564   6.245   2.206   4.094 -0.2666 -0.0425 -0.3542
 9050TIP3    H148565   6.242   2.226   4.187  2.0464 -1.7163  0.1846
 9050TIP3    H248566   6.176   2.141   4.080  0.8970 -1.6092  0.7849
 9051TIP3   OH248567   5.520   0.404   1.123  0.0417 -0.0810 -0.6067
 9051TIP3    H148568   5.549   0.354   1.200 -0.0248 -0.8987 -1.0987
 9051TIP3    H248569   5.433   0.436   1.146 -0.4319 -1.2410 -0.7419
 9052TIP3   OH248570   5.755   5.546   3.875  0.2869 -0.1180 -0.4822
 9052TIP3    H148571   5.687   5.561   3.941  0.1071  0.1361 -0.7231
 9052TIP3    H248572   5.826   5.503   3.923  1.6314  3.1117  0.6715
 9053TIP3   OH248573   2.905   2.433   5.748  0.4347  0.0225 -0.6897
 9053TIP3    H148574   2.927   2.498   5.681  0.3334 -1.4087 -2.1686
 9053TIP3    H248575   2.988   2.388   5.765  0.3349 -0.0143 -0.2969
 9054TIP3   OH248576   5.221   4.535   4.868  0.2156  0.0806  0.0159
 9054TIP3    H148577   5.149   4.563   4.924  1.3077  0.7645  1.1334
 9054TIP3    H248578   5.295   4.589   4.896  1.6352 -1.8675  0.1679
 9055TIP3   OH248579   2.729   5.164  13.705  0.1366 -0.2529  0.2462
 9055TIP3    H148580   2.804   5.220  13.686 -0.7441  0.2010 -2.3259
 9055TIP3    H248581   2.720   5.109  13.627 -0.6541 -2.1210  1.5948
 9056TIP3   OH248582   6.065   1.601   3.273 -0.1494  0.0558  0.1199
 9056TIP3    H148583   6.113   1.669   3.320  0.9525 -0.2243 -0.5718
 9056TIP3    H248584   6.098   1.606   3.183 -1.8966  0.2907 -0.5390
 9057TIP3   OH248585   6.469   4.632  17.089 -0.2163 -0.3933  0.2099
 9057TIP3    H148586   6.540   4.643  17.026 -0.2593  0.4492  0.2946
 9057TIP3    H248587   6.390   4.624  17.036  0.0248 -2.2152  0.0815
 9058TIP3   OH248588   6.079   5.976   4.812 -0.2562 -0.5942  0.2327
 9058TIP3    H148589   6.016   6.001   4.744  0.4117  1.0955  0.2110
 9058TIP3    H248590   6.031   5.913   4.866 -2.2394  1.1428  0.6301
 9059TIP3   OH248591   5.271   1.431  15.710 -0.2061 -0.4374 -0.2889
 9059TIP3    H148592   5.242   1.379  15.785 -2.0990  2.3318  1.0582
 9059TIP3    H248593   5.340   1.487  15.746  1.3964 -1.4909 -1.5760
 9060TIP3   OH248594   4.310   4.360   1.205  0.1495  0.1057  0.3834
 9060TIP3    H148595   4.314   4.454   1.222 -1.0220  0.2372 -0.0114
 9060TIP3    H248596   4.250   4.351   1.131  0.4941 -0.9315  0.2093
 9061TIP3   OH248597   5.566   3.393   1.238  0.3207 -0.4133 -0.0054
 9061TIP3    H148598   5.526   3.470   1.278 -0.4209 -1.1726  0.7432
 9061TIP3    H248599   5.493   3.344   1.200  0.4586 -1.9370  1.5834
 9062TIP3   OH248600   5.225   3.600   3.341  0.2026 -0.6415  0.1797
 9062TIP3    H148601   5.137   3.614   3.305 -0.2903 -2.6184  0.5167
 9062TIP3    H248602   5.236   3.505   3.342  1.9110 -0.4718  1.1973
 9063TIP3   OH248603   4.349   5.272   0.777 -0.7633  0.4267 -0.2567
 9063TIP3    H148604   4.355   5.200   0.714  0.0824  2.1828 -2.2964
 9063TIP3    H248605   4.407   5.246   0.848 -1.6237 -1.5436 -0.2046
 9064TIP3   OH248606   3.591   6.443  11.392 -0.5057 -0.1013  0.2819
 9064TIP3    H148607   3.580   6.348  11.394 -0.0480 -0.1465  0.7558
 9064TIP3    H248608   3.647   6.463  11.467 -0.8535  0.5767  0.3755
 9065TIP3   OH248609   4.161   3.632  16.762  0.0134  0.3084 -0.3585
 9065TIP3    H148610   4.065   3.641  16.760 -0.0813  2.1762  3.3833
 9065TIP3    H248611   4.194   3.718  16.734  0.3833  0.8745  1.6424
 9066TIP3   OH248612   0.501   2.261   1.661  0.8173  0.4551  0.1083
 9066TIP3    H148613   0.546   2.326   1.716  0.6125  1.4755 -0.8902
 9066TIP3    H248614   0.415   2.299   1.646  0.7899  0.0694 -0.7195
 9067TIP3   OH248615   2.619   2.638  16.798  0.1897  0.1628 -0.5617
 9067TIP3    H148616   2.628   2.723  16.842  1.5187 -0.8676  1.3090
 9067TIP3    H248617   2.568   2.585  16.859  0.6515 -0.8140 -1.0140
 9068TIP3   OH248618   0.563   0.252   5.097  0.2990  0.1767  0.3819
 9068TIP3    H148619   0.496   0.254   5.029  1.0377  1.8582 -0.3485
 9068TIP3    H248620   0.617   0.176   5.075 -0.6935 -0.5370  0.3387
 9069TIP3   OH248621   2.777   2.764  15.978 -0.2123 -0.3700 -0.1959
 9069TIP3    H148622   2.824   2.828  15.925 -1.5139  0.8116 -0.0032
 9069TIP3    H248623   2.739   2.703  15.915 -2.1761  1.3146 -0.7766
 9070TIP3   OH248624   3.368   2.327   5.846 -0.1964 -0.2627  0.3371
 9070TIP3    H148625   3.288   2.278   5.864  0.8124 -1.8540  0.7054
 9070TIP3    H248626   3.432   2.260   5.822  0.4210  1.1591 -2.2985
 9071TIP3   OH248627   4.207   6.479  10.634  0.8129 -0.4601 -0.1356
 9071TIP3    H148628   4.170   6.406  10.684  2.6016 -2.8105 -2.0185
 9071TIP3    H248629   4.134   6.510  10.580 -0.3477  0.1588  1.7055
 9072TIP3   OH248630   5.829   2.129  10.432 -0.2050  0.0030  0.1674
 9072TIP3    H148631   5.841   2.177  10.513 -0.6020 -0.0361  0.2525
 9072TIP3    H248632   5.876   2.046  10.445  0.3447  0.2975  0.0791
 9073TIP3   OH248633   5.172   0.655   1.600  0.1131 -0.5774  0.0107
 9073TIP3    H148634   5.129   0.586   1.652  0.2904 -0.1181  0.7820
 9073TIP3    H248635   5.106   0.680   1.535 -0.1618 -1.0779  0.0889
 9074TIP3   OH248636   6.385   4.085  11.833 -0.2444 -0.3132 -0.0171
 9074TIP3    H148637   6.334   4.040  11.765  4.0573 -1.2015 -3.0572
 9074TIP3    H248638   6.417   4.015  11.890  0.3971 -0.2295 -0.2668
 9075TIP3   OH248639   6.061   2.608   4.521  0.1545  0.0315  0.8476
 9075TIP3    H148640   5.997   2.670   4.554 -0.7664 -0.2051 -0.4476
 9075TIP3    H248641   6.137   2.661   4.498  0.1492  0.4045  1.6550
 9076TIP3   OH248642   2.356   6.745   3.256 -0.0831  0.3398 -0.0618
 9076TIP3    H148643   2.432   6.721   3.309 -0.9271  0.3477  1.1832
 9076TIP3    H248644   2.351   6.677   3.189 -0.5362 -1.1602  1.4504
 9077TIP3   OH248645   6.038   3.286  12.230 -0.5129 -0.6383  0.1998
 9077TIP3    H148646   5.960   3.341  12.225 -0.8678 -1.2507 -2.5215
 9077TIP3    H248647   6.003   3.197  12.235 -0.0462 -0.9265 -1.2245
 9078TIP3   OH248648   1.765   5.817  11.148  0.1623  0.2155  0.9125
 9078TIP3    H148649   1.802   5.766  11.220  0.1437  0.6121  1.2054
 9078TIP3    H248650   1.751   5.904  11.185  1.3098  0.7800  0.0979
 9079TIP3   OH248651   4.883   2.653  12.435  0.3547  0.0276 -0.1645
 9079TIP3    H148652   4.844   2.740  12.430 -1.1074 -0.6278 -0.8532
 9079TIP3    H248653   4.972   2.668  12.466 -0.4679  1.5849  1.6574
 9080TIP3   OH248654   5.610   3.638   2.368  0.4669 -0.0217  0.5434
 9080TIP3    H148655   5.541   3.676   2.422  1.5017  0.1364  1.8067
 9080TIP3    H248656   5.662   3.713   2.339  0.2964 -0.1643 -0.1593
 9081TIP3   OH248657   4.364   0.363   1.728 -0.3044 -0.0276  0.3600
 9081TIP3    H148658   4.292   0.425   1.728  0.1736  0.6766 -2.4993
 9081TIP3    H248659   4.322   0.278   1.741 -1.9094  0.2240 -2.3754
 9082TIP3   OH248660   0.260   1.651   5.153 -0.3339  1.1274  0.4636
 9082TIP3    H148661   0.300   1.737   5.166  0.0219  1.2834 -1.4902
 9082TIP3    H248662   0.300   1.617   5.074 -1.0657 -0.5132  0.7509
 9083TIP3   OH248663   4.669   0.119   5.264 -0.1923  0.4863 -0.2759
 9083TIP3    H148664   4.660   0.071   5.182  2.9316 -1.4618  0.3768
 9083TIP3    H248665   4.659   0.211   5.238 -1.4400 -0.1670 -2.4126
 9084TIP3   OH248666   0.186   1.314   4.977  0.5809 -0.5206  1.0398
 9084TIP3    H148667   0.094   1.289   4.985  0.1747  0.7351  0.5104
 9084TIP3    H248668   0.223   1.302   5.064 -0.2055 -0.5517  1.3701
 9085TIP3   OH248669   4.439   1.131  16.837 -0.0261  0.2672  0.0853
 9085TIP3    H148670   4.493   1.092  16.769 -1.0202 -0.2942 -0.4189
 9085TIP3    H248671   4.499   1.147  16.910  0.6094 -1.3887 -0.0258
 9086TIP3   OH248672   0.095   1.179  15.552  0.1504 -0.7273 -0.2221
 9086TIP3    H148673   0.137   1.101  15.514 -0.2459  0.0473 -2.4240
 9086TIP3    H248674   0.036   1.209  15.483  0.9119  2.0011  0.2161
 9087TIP3   OH248675   1.755   5.702  14.697  0.6223 -0.0944 -0.5292
 9087TIP3    H148676   1.704   5.739  14.625 -0.4491  0.7762  0.6296
 9087TIP3    H248677   1.781   5.616  14.666 -0.6804 -0.1483 -1.5830
 9088TIP3   OH248678   2.397   5.632  14.323  0.2351 -0.6884  0.8506
 9088TIP3    H148679   2.434   5.591  14.401  0.6701 -0.3850  0.8033
 9088TIP3    H248680   2.310   5.593  14.315 -0.2061  0.0001  2.0452
 9089TIP3   OH248681   5.721   4.386  12.330  0.2317  0.3100  0.7371
 9089TIP3    H148682   5.663   4.460  12.349  0.9334  0.2101  3.8184
 9089TIP3    H248683   5.808   4.418  12.351  1.3913  0.2353 -3.1464
 9090TIP3   OH248684   4.140   5.212   4.777  0.1000 -0.4445  0.5278
 9090TIP3    H148685   4.198   5.253   4.840 -1.4071  1.4760  0.7752
 9090TIP3    H248686   4.189   5.212   4.694  0.7370  0.3562  0.9021
 9091TIP3   OH248687   1.081   3.863   2.387 -0.7370 -0.2099  0.4537
 9091TIP3    H148688   1.158   3.862   2.445 -0.2956 -1.0589 -0.1267
 9091TIP3    H248689   1.098   3.934   2.326 -0.4335 -0.3584  0.3621
 9092TIP3   OH248690   6.357   5.669   4.215 -0.0815 -0.1877  0.1195
 9092TIP3    H148691   6.422   5.651   4.148  0.2900 -2.0107  0.9278
 9092TIP3    H248692   6.372   5.603   4.283 -3.1951 -1.1955  0.0153
 9093TIP3   OH248693   4.657   2.615  10.743  0.2849 -0.1688  0.4213
 9093TIP3    H148694   4.668   2.609  10.648  0.8203 -3.1036  0.5528
 9093TIP3    H248695   4.724   2.555  10.778 -2.7225 -2.6778  2.3891
 9094TIP3   OH248696   2.766   3.048  14.804  0.0313 -0.0187 -0.3924
 9094TIP3    H148697   2.753   2.966  14.851 -0.7742  0.3110 -0.0186
 9094TIP3    H248698   2.852   3.039  14.763  0.3755 -0.6625  0.4356
 9095TIP3   OH248699   2.034   5.397   4.824 -0.1117 -0.1598  0.5506
 9095TIP3    H148700   1.965   5.406   4.758 -0.4864 -0.4389  0.8973
 9095TIP3    H248701   2.082   5.318   4.798 -0.2573 -0.2675  0.6051
 9096TIP3   OH248702   1.973   3.915   2.249 -0.9127  0.6721 -0.3059
 9096TIP3    H148703   1.884   3.940   2.223 -2.4857 -0.9508  2.9932
 9096TIP3    H248704   1.983   3.825   2.217 -1.5168 -0.0698  1.4892
 9097TIP3   OH248705   1.280   1.697   0.462 -0.2231 -0.2654 -0.0870
 9097TIP3    H148706   1.256   1.780   0.421 -1.9269  0.9196  2.9822
 9097TIP3    H248707   1.366   1.714   0.500 -0.7136  0.2657  0.8252
 9098TIP3   OH248708   2.168   5.685   1.598 -0.1592 -0.3098 -0.0575
 9098TIP3    H148709   2.212   5.601   1.587 -1.7479 -1.4350  1.5165
 9098TIP3    H248710   2.193   5.714   1.686  0.8298  1.2136 -0.7875
 9099TIP3   OH248711   2.277   0.081  15.312  0.1189  0.3503 -0.8452
 9099TIP3    H148712   2.232   0.013  15.261 -0.8131  0.3000  0.0131
 9099TIP3    H248713   2.278   0.048  15.401 -2.0823  2.2391 -0.0305
 9100TIP3   OH248714   4.951   3.703   2.991 -0.2877 -0.0261 -0.2865
 9100TIP3    H148715   4.969   3.795   2.974 -1.7473  0.0845 -1.5205
 9100TIP3    H248716   4.870   3.685   2.943 -0.5327 -1.7267  0.6600
 9101TIP3   OH248717   2.395   6.521  15.848 -0.4317  0.1478  0.4087
 9101TIP3    H148718   2.342   6.442  15.837 -1.1712  0.8833 -1.7703
 9101TIP3    H248719   2.336   6.593  15.828  1.3418  0.9951 -2.3097
 9102TIP3   OH248720   1.564   2.127  14.319 -0.0328 -0.1363  0.7403
 9102TIP3    H148721   1.522   2.076  14.251 -1.0246  0.0010  1.2386
 9102TIP3    H248722   1.566   2.070  14.395  2.9917 -1.0831  0.0809
 9103TIP3   OH248723   3.043   5.320   3.897 -0.1535 -1.0344  0.2201
 9103TIP3    H148724   2.983   5.283   3.961  0.4317  0.0700  1.4584
 9103TIP3    H248725   3.002   5.403   3.871 -0.1357 -1.2290 -0.4392
 9104TIP3   OH248726   5.853   4.761  12.026 -0.0764 -0.2517 -0.2651
 9104TIP3    H148727   5.849   4.838  11.969 -1.9663  0.1054  0.2668
 9104TIP3    H248728   5.946   4.744  12.037  0.3860  1.6013 -0.8790
 9105TIP3   OH248729   0.960   4.661  15.269  0.7672  0.0590 -0.5788
 9105TIP3    H148730   1.006   4.745  15.281  0.3137  0.5161 -1.8078
 9105TIP3    H248731   0.885   4.666  15.328  0.9375  0.3680 -0.3848
 9106TIP3   OH248732   2.062   6.102  11.671  0.0669 -0.2188 -0.1335
 9106TIP3    H148733   2.069   6.160  11.596  1.5861 -0.0679  0.0966
 9106TIP3    H248734   2.152   6.093  11.704 -0.3200 -1.5992  0.6606
 9107TIP3   OH248735   0.393   1.091   6.518  0.0586 -0.0591  0.1474
 9107TIP3    H148736   0.443   1.173   6.515  1.0789 -0.6833 -0.7022
 9107TIP3    H248737   0.323   1.104   6.454 -0.3043  0.4601  0.6396
 9108TIP3   OH248738   1.661   0.221  15.206  0.0271 -0.1304 -0.0357
 9108TIP3    H148739   1.590   0.162  15.231 -0.6869 -0.4695 -2.5472
 9108TIP3    H248740   1.618   0.289  15.154  1.2191  1.1244  0.5504
 9109TIP3   OH248741   5.948   5.997  14.565 -0.2757 -0.0242  0.1020
 9109TIP3    H148742   5.874   6.027  14.513 -0.2604 -0.8037 -0.3837
 9109TIP3    H248743   5.994   6.077  14.590 -0.6018  0.3931 -0.6106
 9110TIP3   OH248744   2.227   4.818   4.695 -0.1448 -0.5034  0.2271
 9110TIP3    H148745   2.235   4.779   4.782 -0.8164  1.1788  1.0938
 9110TIP3    H248746   2.133   4.814   4.676 -0.1160 -0.0870 -0.0214
 9111TIP3   OH248747   2.273   0.604   5.372 -0.0570 -0.2090  0.0616
 9111TIP3    H148748   2.325   0.643   5.302 -0.9227 -0.2287 -0.6043
 9111TIP3    H248749   2.320   0.627   5.452  0.5718  0.4030 -0.4692
 9112TIP3   OH248750   1.873   0.323   5.046  0.4130 -0.5205 -0.2218
 9112TIP3    H148751   1.932   0.390   5.081 -1.5262  0.7349  0.8409
 9112TIP3    H248752   1.916   0.292   4.967  1.4610  1.9069 -0.6920
 9113TIP3   OH248753   0.170   3.883  11.795  0.0299  0.1718 -0.1094
 9113TIP3    H148754   0.261   3.885  11.823 -0.4886  1.5435  1.6917
 9113TIP3    H248755   0.141   3.794  11.812  0.7034  0.0611  0.4772
 9114TIP3   OH248756   0.623   0.772  11.141  0.2377 -0.2005 -0.2041
 9114TIP3    H148757   0.595   0.862  11.160  2.1687  0.3483  0.3444
 9114TIP3    H248758   0.688   0.782  11.071 -1.2479 -1.4450 -1.8291
 9115TIP3   OH248759   5.581   0.953   2.295 -0.5048 -0.0754  0.7154
 9115TIP3    H148760   5.552   0.870   2.256 -1.7005  1.1910 -1.2633
 9115TIP3    H248761   5.618   1.002   2.222 -1.5386  1.8649  1.4230
 9116TIP3   OH248762   4.644   5.038   0.099 -0.0150  0.0505  0.6109
 9116TIP3    H148763   4.627   5.073   0.011 -0.0473  0.7221  0.8797
 9116TIP3    H248764   4.567   4.983   0.117 -0.6066  0.8982  0.7128
 9117TIP3   OH248765   4.392   5.317   1.693 -0.0714 -0.1876  0.4160
 9117TIP3    H148766   4.455   5.254   1.660  1.3849  1.7692 -0.7401
 9117TIP3    H248767   4.334   5.335   1.619  1.2540  1.8290 -0.2386
 9118TIP3   OH248768   2.948   2.648   0.755 -0.5896 -0.3510 -0.2140
 9118TIP3    H148769   2.935   2.731   0.709 -0.5020 -0.2709 -0.0955
 9118TIP3    H248770   3.016   2.667   0.820 -1.0007 -0.3533  0.2236
 9119TIP3   OH248771   4.591   1.738  11.474 -0.3515 -0.2478 -0.0599
 9119TIP3    H148772   4.670   1.713  11.425  1.7416  2.1944  1.7604
 9119TIP3    H248773   4.621   1.744  11.564 -2.0276  2.8450  0.4146
 9120TIP3   OH248774   4.042   5.571   5.620  0.5197 -0.1693  0.4184
 9120TIP3    H148775   4.044   5.661   5.588  2.2607  0.8161  2.9825
 9120TIP3    H248776   3.950   5.548   5.621 -0.2027  2.4052  1.7063
 9121TIP3   OH248777   4.400   4.994   6.058  0.3982  0.0322 -0.2070
 9121TIP3    H148778   4.359   4.971   6.142  0.9814  1.8604  0.6200
 9121TIP3    H248779   4.334   4.969   5.992 -0.2361 -1.0608  0.8051
 9122TIP3   OH248780   6.664   6.691  13.256 -0.0544 -0.0592  0.0873
 9122TIP3    H148781   6.703   6.606  13.278  0.8579  0.6975  1.5492
 9122TIP3    H248782   6.739   6.746  13.235 -0.2116  1.5166  3.2240
 9123TIP3   OH248783   1.518   5.223   1.041 -0.3435 -0.4350 -0.2673
 9123TIP3    H148784   1.497   5.304   0.995 -0.7163  0.0418  0.6981
 9123TIP3    H248785   1.444   5.165   1.023 -1.1612  0.2289  0.7967
 9124TIP3   OH248786   2.553   3.460   1.565  0.2176  0.5385 -0.2169
 9124TIP3    H148787   2.461   3.446   1.542 -0.7130  1.3825  2.5813
 9124TIP3    H248788   2.576   3.385   1.619  0.0513  1.9740  1.9358
 9125TIP3   OH248789   2.689   0.620  12.870  0.8125 -0.8677  0.0684
 9125TIP3    H148790   2.759   0.616  12.804  0.6512 -1.2702 -0.0831
 9125TIP3    H248791   2.680   0.530  12.901  1.6042 -0.5008  1.4105
 9126TIP3   OH248792   1.359   2.918   1.409 -0.0051 -0.1380 -0.1511
 9126TIP3    H148793   1.433   2.860   1.392 -1.6634 -2.3676 -0.2471
 9126TIP3    H248794   1.355   2.924   1.504  0.5374  0.3610 -0.1521
 9127TIP3   OH248795   2.025   6.540  15.445  0.5663 -0.5992  0.1951
 9127TIP3    H148796   2.007   6.618  15.392  0.3896 -1.8055 -1.5884
 9127TIP3    H248797   2.116   6.519  15.425 -0.2405 -2.5887 -1.8098
 9128TIP3   OH248798   3.212   2.644   3.693 -0.1135 -0.1112  0.0910
 9128TIP3    H148799   3.188   2.710   3.758  2.4887  1.1627 -0.1034
 9128TIP3    H248800   3.225   2.564   3.744  1.9067  0.8675  1.2462
 9129TIP3   OH248801   4.291   0.949   4.882  0.0137  0.2532  0.4443
 9129TIP3    H148802   4.300   0.964   4.788 -1.7913  2.4058  0.5421
 9129TIP3    H248803   4.300   1.035   4.921  0.6889 -0.6091  2.2919
 9130TIP3   OH248804   1.157   2.871  11.655  0.0128 -0.1871 -0.0409
 9130TIP3    H148805   1.238   2.825  11.634  0.0265 -0.4100  0.4856
 9130TIP3    H248806   1.174   2.962  11.631 -0.3824 -0.6065 -2.0908
 9131TIP3   OH248807   1.966   4.202  11.311  0.3449 -0.0320 -0.2182
 9131TIP3    H148808   1.967   4.241  11.398 -1.3261  1.2247 -0.7013
 9131TIP3    H248809   1.873   4.188  11.292  0.7528 -1.8128 -1.1672
 9132TIP3   OH248810   6.634   5.840  15.697 -0.4543  0.3624 -0.1052
 9132TIP3    H148811   6.594   5.907  15.753  0.1568  0.9186 -0.3175
 9132TIP3    H248812   6.682   5.889  15.631  1.2561 -0.2577  0.6213
 9133TIP3   OH248813   1.586   0.399   4.790  0.1937  1.2024  0.4070
 9133TIP3    H148814   1.520   0.467   4.801  1.1664  2.1204  0.7477
 9133TIP3    H248815   1.562   0.332   4.854 -1.2046  0.8433 -0.4497
 9134TIP3   OH248816   6.189   4.578  13.311 -0.1077  0.0938  0.0492
 9134TIP3    H148817   6.108   4.593  13.263 -0.3108  2.1195  0.9164
 9134TIP3    H248818   6.256   4.622  13.260  0.0808  0.2475  0.4275
 9135TIP3   OH248819   0.416   2.986   2.923 -0.3367  0.2880  0.5164
 9135TIP3    H148820   0.447   2.896   2.910 -0.2355  0.3229  0.5197
 9135TIP3    H248821   0.370   3.007   2.842  0.3149  0.5152  0.2048
 9136TIP3   OH248822   6.011   3.090   4.088  0.0393 -0.2679 -0.4035
 9136TIP3    H148823   5.951   3.117   4.157 -2.2439 -1.2519 -1.8886
 9136TIP3    H248824   5.974   3.126   4.007  2.7332  1.0334 -1.2191
 9137TIP3   OH248825   3.639   0.010  15.999 -0.0325 -0.3545  0.3633
 9137TIP3    H148826   3.660   0.046  15.913 -1.9051  1.2646  0.5257
 9137TIP3    H248827   3.668   0.077  16.061  0.6306 -1.1876  0.9823
 9138TIP3   OH248828   3.626   1.789   0.963 -0.2046  0.2185  0.2833
 9138TIP3    H148829   3.541   1.747   0.951 -1.0803  1.9587  0.1079
 9138TIP3    H248830   3.654   1.814   0.875  1.5668 -2.2065  0.0417
 9139TIP3   OH248831   0.888   4.150  12.135 -0.1201  0.4305  0.2080
 9139TIP3    H148832   0.893   4.242  12.107 -0.4697  0.7179  1.0515
 9139TIP3    H248833   0.898   4.100  12.055  1.7271  1.1677 -0.0857
 9140TIP3   OH248834   1.701   1.025  11.661  0.1329  0.3511 -0.2740
 9140TIP3    H148835   1.722   1.069  11.579  0.6887 -0.5233 -0.6198
 9140TIP3    H248836   1.606   1.038  11.671  0.1576  0.9748 -0.7407
 9141TIP3   OH248837   5.645   6.003   4.394 -0.0417  0.4984 -0.5814
 9141TIP3    H148838   5.652   6.054   4.475 -2.2137  2.2310 -1.3935
 9141TIP3    H248839   5.651   5.912   4.423  0.7736  1.0973  1.3095
 9142TIP3   OH248840   6.047   3.887  13.918 -0.0879 -0.2684  0.4219
 9142TIP3    H148841   5.991   3.903  13.994  1.7606 -1.2115  2.0593
 9142TIP3    H248842   6.076   3.974  13.891 -1.1553  0.1149  0.4585
 9143TIP3   OH248843   3.425   2.037   5.916 -0.1829 -0.0679  0.0694
 9143TIP3    H148844   3.500   2.065   5.969  0.7282 -2.0421 -0.0895
 9143TIP3    H248845   3.362   2.003   5.980  0.8638 -2.3321 -0.0207
 9144TIP3   OH248846   0.101   1.760  15.750 -0.3298  0.3487 -0.4056
 9144TIP3    H148847   0.157   1.731  15.678 -0.5108  0.7592 -0.7170
 9144TIP3    H248848   0.161   1.795  15.815 -0.1922  0.3563 -0.5366
 9145TIP3   OH248849   1.139   4.152  16.378 -0.5238  0.1575  0.1426
 9145TIP3    H148850   1.197   4.221  16.410  0.8831 -1.5547  1.5113
 9145TIP3    H248851   1.190   4.108  16.309 -0.6790 -0.5304  0.4489
 9146TIP3   OH248852   1.157   3.901  14.296  0.0685 -0.1799 -0.0037
 9146TIP3    H148853   1.190   3.874  14.381  0.5702  0.7180  0.0988
 9146TIP3    H248854   1.201   3.843  14.234 -0.3975 -0.9228  0.3523
 9147TIP3   OH248855   1.503   2.800   0.450 -0.0357  0.5342  0.7836
 9147TIP3    H148856   1.495   2.780   0.543 -0.3899 -0.6044  0.5311
 9147TIP3    H248857   1.585   2.850   0.443  1.4827 -1.6941  1.3837
 9148TIP3   OH248858   1.412   5.719  17.076  0.4554 -0.7693 -0.8214
 9148TIP3    H148859   1.462   5.797  17.053 -1.5138  0.7856 -0.1248
 9148TIP3    H248860   1.426   5.708  17.170 -0.9640  0.0759 -0.4851
 9149TIP3   OH248861   4.287   2.058  16.815  0.7614 -0.2614 -0.1241
 9149TIP3    H148862   4.366   2.103  16.784  1.0849  0.2733  1.4023
 9149TIP3    H248863   4.218   2.124  16.810  1.2695  0.5562  2.2704
 9150TIP3   OH248864   2.747   3.243  11.211 -0.1826  0.7773 -0.1679
 9150TIP3    H148865   2.733   3.241  11.116 -1.5795  2.6496 -0.0563
 9150TIP3    H248866   2.749   3.151  11.237  2.5859  0.0976 -2.2670
 9151TIP3   OH248867   2.015   3.232  12.351  0.4741  0.2542  0.1807
 9151TIP3    H148868   1.920   3.218  12.354  0.5973 -0.6470  0.3858
 9151TIP3    H248869   2.045   3.211  12.440  0.7375  1.6643  0.4496
 9152TIP3   OH248870   6.744   5.429   0.212  0.4695  0.1832 -0.0091
 9152TIP3    H148871   6.649   5.422   0.219  0.5763 -1.7777  0.1589
 9152TIP3    H248872   6.777   5.364   0.274  1.8785 -0.6458 -1.5615
 9153TIP3   OH248873   2.422   5.230  11.991  0.1379  0.7717  0.4913
 9153TIP3    H148874   2.410   5.142  12.027 -1.6832 -0.2199 -2.2391
 9153TIP3    H248875   2.359   5.285  12.039 -3.0441 -0.7430 -1.5725
 9154TIP3   OH248876   5.630   6.148   0.205 -0.6254 -0.1320 -0.1833
 9154TIP3    H148877   5.634   6.222   0.145 -1.2075 -0.3792 -0.5354
 9154TIP3    H248878   5.537   6.125   0.208 -0.6889  0.2207  1.2313
 9155TIP3   OH248879   0.409   5.061   3.802 -0.0948  0.3314  0.3293
 9155TIP3    H148880   0.395   5.023   3.888  0.6391  0.8140  0.6779
 9155TIP3    H248881   0.356   5.008   3.742 -1.7034  0.8435  1.2542
 9156TIP3   OH248882   0.183   3.979  11.522 -0.3481  0.2149  0.4624
 9156TIP3    H148883   0.270   4.019  11.525 -0.0083 -0.4542 -0.1028
 9156TIP3    H248884   0.169   3.945  11.610  0.0584  0.1326  0.4984
 9157TIP3   OH248885   4.948   4.855   4.167 -0.5207  0.6416 -0.8825
 9157TIP3    H148886   4.883   4.926   4.170 -2.1526 -0.7877  0.8718
 9157TIP3    H248887   4.916   4.796   4.098 -0.5126  0.4380 -0.7129
 9158TIP3   OH248888   2.278   3.041   2.372 -0.3311  0.0622 -0.4713
 9158TIP3    H148889   2.333   3.110   2.410 -0.2033  0.4969 -1.4318
 9158TIP3    H248890   2.202   3.087   2.338  0.2507 -0.1122 -2.0833
 9159TIP3   OH248891   1.414   2.347   1.534 -0.2836 -0.3205  0.6147
 9159TIP3    H148892   1.415   2.255   1.563  0.2729 -0.1883  1.0355
 9159TIP3    H248893   1.324   2.376   1.548  0.1355 -0.0121  3.0143
 9160TIP3   OH248894   0.087   1.308   5.559  0.0070  0.8187  0.1382
 9160TIP3    H148895   0.129   1.385   5.597  0.7165  0.3750  0.2555
 9160TIP3    H248896   0.011   1.344   5.513  0.2841  1.5844  0.2535
 9161TIP3   OH248897   4.254   2.070   1.702 -0.3752 -0.3554 -0.3783
 9161TIP3    H148898   4.186   2.126   1.739 -1.3026 -0.9015 -1.1966
 9161TIP3    H248899   4.213   2.030   1.625  0.6513 -1.2334 -0.4953
 9162TIP3   OH248900   0.642   5.474   1.406  0.0882  0.4997 -0.3768
 9162TIP3    H148901   0.587   5.419   1.350  0.2606 -1.1627  0.9679
 9162TIP3    H248902   0.633   5.562   1.370 -0.8007 -0.2733 -2.1958
 9163TIP3   OH248903   4.772   4.647   5.567  0.2823  0.1266 -0.1053
 9163TIP3    H148904   4.796   4.676   5.655  0.1859  0.7195 -0.2694
 9163TIP3    H248905   4.776   4.551   5.571  1.3550  0.1724  0.2335
 9164TIP3   OH248906   1.531   5.509  16.656  0.2224  0.4528 -0.8730
 9164TIP3    H148907   1.521   5.447  16.728 -1.7692  0.6545 -0.9326
 9164TIP3    H248908   1.519   5.456  16.576  1.9625  0.3147 -1.0773
 9165TIP3   OH248909   2.304   1.426  14.660  0.1804  0.5036  0.2488
 9165TIP3    H148910   2.329   1.492  14.595 -0.8761 -0.1557 -0.8679
 9165TIP3    H248911   2.257   1.476  14.727  2.0296  1.3292  1.0026
 9166TIP3   OH248912   0.667   4.160  11.015 -0.1931  0.5118 -0.0646
 9166TIP3    H148913   0.655   4.069  11.043  0.2589  0.2894 -0.5897
 9166TIP3    H248914   0.633   4.163  10.925 -0.1078  0.8396 -0.0892
 9167TIP3   OH248915   4.598   3.325  11.995 -0.2639  0.2673  0.4245
 9167TIP3    H148916   4.652   3.255  12.032  0.8019  1.1612  0.6184
 9167TIP3    H248917   4.615   3.322  11.901 -1.6692 -0.9159  0.1790
 9168TIP3   OH248918   5.935   2.285   0.241 -0.1133 -0.3878  0.4619
 9168TIP3    H148919   5.901   2.371   0.216  0.6471 -0.2283 -0.0428
 9168TIP3    H248920   5.981   2.299   0.323  0.0717 -0.2980  0.3431
 9169TIP3   OH248921   5.419   6.165   2.282 -0.2753  0.1743 -0.1503
 9169TIP3    H148922   5.438   6.258   2.285 -0.3822  0.3164 -2.1189
 9169TIP3    H248923   5.478   6.131   2.214 -0.7277 -1.0438  0.0360
 9170TIP3   OH248924   0.455   6.672   5.247 -0.0062 -0.3528  0.6754
 9170TIP3    H148925   0.529   6.610   5.245  0.7190  0.4995  0.4528
 9170TIP3    H248926   0.410   6.651   5.329  0.1552 -1.2504  0.5524
 9171TIP3   OH248927   2.706   6.680  16.236 -0.2166  0.1503  0.6906
 9171TIP3    H148928   2.755   6.650  16.313 -0.8406  1.1238  1.5025
 9171TIP3    H248929   2.659   6.603  16.205  1.2025 -0.6132  0.3663
 9172TIP3   OH248930   6.391   4.623   4.876 -0.1955 -0.0399 -0.6119
 9172TIP3    H148931   6.357   4.706   4.910 -0.2186 -0.7903  1.3726
 9172TIP3    H248932   6.314   4.565   4.873  0.6089 -1.7660  3.9606
 9173TIP3   OH248933   2.278   4.839  12.868 -0.2236  0.1420 -0.1280
 9173TIP3    H148934   2.190   4.836  12.906 -0.5532 -0.5651 -0.9169
 9173TIP3    H248935   2.316   4.754  12.890  0.3907  0.5656  0.4849
 9174TIP3   OH248936   1.596   3.754  13.354 -0.1274  0.0197  0.0635
 9174TIP3    H148937   1.527   3.779  13.415 -0.4365  1.5912 -0.8646
 9174TIP3    H248938   1.675   3.793  13.390 -0.3699  1.2518 -0.6668
 9175TIP3   OH248939   0.933   4.679   3.495  1.0305 -0.3130  0.5520
 9175TIP3    H148940   0.875   4.680   3.418  0.9179  0.0706  0.6428
 9175TIP3    H248941   1.016   4.713   3.462  1.2878 -1.0982  0.3612
 9176TIP3   OH248942   2.514   1.585   2.341 -0.0500 -0.0242 -0.1535
 9176TIP3    H148943   2.598   1.627   2.356  0.3351 -1.1377  1.0177
 9176TIP3    H248944   2.489   1.611   2.252  1.3742  0.5859 -0.3932
 9177TIP3   OH248945   1.088   6.609  11.306 -0.8278  0.2847 -0.2103
 9177TIP3    H148946   1.055   6.520  11.322  1.4387 -1.2358 -3.1116
 9177TIP3    H248947   1.072   6.624  11.213 -0.6205  2.7622  0.0906
 9178TIP3   OH248948   3.319   3.705   0.407 -0.1314  0.2084  0.2491
 9178TIP3    H148949   3.361   3.619   0.421 -0.8915 -0.3122 -0.6125
 9178TIP3    H248950   3.391   3.763   0.382  0.1158 -0.6685 -1.1702
 9179TIP3   OH248951   0.280   5.710   0.326  0.6015  0.4050 -0.0388
 9179TIP3    H148952   0.339   5.653   0.374  0.6775 -0.3312 -0.9703
 9179TIP3    H248953   0.290   5.796   0.368  0.3129 -0.2947  1.5299
 9180TIP3   OH248954   2.664   0.397  13.823  0.0394 -0.1571  0.7615
 9180TIP3    H148955   2.698   0.440  13.901  0.8633 -1.8255  1.3678
 9180TIP3    H248956   2.741   0.360  13.779 -0.5663 -0.5015 -0.0507
 9181TIP3   OH248957   6.615   5.756  16.493 -0.1756  0.4794  0.1431
 9181TIP3    H148958   6.576   5.709  16.419 -0.7539 -0.4466  1.0118
 9181TIP3    H248959   6.623   5.846  16.462 -0.5223  0.1351 -1.0069
 9182TIP3   OH248960   1.607   6.008  11.609  0.3241  0.5597 -0.0835
 9182TIP3    H148961   1.667   6.083  11.606 -0.2991  1.0836  0.2445
 9182TIP3    H248962   1.520   6.047  11.610 -0.0210 -0.1833 -0.1378
 9183TIP3   OH248963   2.894   5.271   2.699 -0.2667 -0.4984 -0.6187
 9183TIP3    H148964   2.976   5.220   2.703  1.0671  1.6418  1.5516
 9183TIP3    H248965   2.892   5.320   2.780 -2.6277  1.2377 -1.6212
 9184TIP3   OH248966   2.141   0.839   1.232  0.0332  0.9354 -0.0020
 9184TIP3    H148967   2.182   0.925   1.237  0.8143  0.5939 -0.4267
 9184TIP3    H248968   2.159   0.799   1.317 -0.0849  1.0815  0.0923
 9185TIP3   OH248969   2.507   2.858   2.594 -0.0491 -0.7493  0.0218
 9185TIP3    H148970   2.569   2.822   2.657  0.1634 -1.2610 -0.4732
 9185TIP3    H248971   2.425   2.863   2.642  0.3243 -0.2608  0.6202
 9186TIP3   OH248972   2.795   1.351   1.200  0.0071  0.1593 -0.2743
 9186TIP3    H148973   2.772   1.437   1.164 -0.1141  0.9351  1.5455
 9186TIP3    H248974   2.867   1.320   1.145  0.2948  1.5845 -0.7359
 9187TIP3   OH248975   2.721   0.773  13.740  0.5556 -0.0630 -0.2673
 9187TIP3    H148976   2.753   0.845  13.686 -0.4766  1.5660  1.1851
 9187TIP3    H248977   2.640   0.746  13.697 -1.6189  2.8816  1.5903
 9188TIP3   OH248978   5.578   5.684  11.700 -0.0496  0.7815  0.4434
 9188TIP3    H148979   5.505   5.625  11.680  0.8164  0.3450 -1.7088
 9188TIP3    H248980   5.610   5.654  11.785 -1.8278  0.4499  1.0327
 9189TIP3   OH248981   2.878   1.593   1.037  0.0415 -0.3191 -0.3008
 9189TIP3    H148982   2.872   1.689   1.036 -0.8504 -0.1945  2.9659
 9189TIP3    H248983   2.971   1.575   1.025  0.2665  0.9831 -0.7070
 9190TIP3   OH248984   2.600   2.516   4.353 -0.2077  0.0445 -0.0486
 9190TIP3    H148985   2.518   2.564   4.353 -0.1595  0.1269 -0.2120
 9190TIP3    H248986   2.608   2.482   4.264 -0.8764 -1.3531  0.3774
 9191TIP3   OH248987   0.081   4.450   2.920 -0.5110  0.4759 -0.1168
 9191TIP3    H148988   0.103   4.467   2.828 -0.6890 -0.8706 -0.4408
 9191TIP3    H248989   0.153   4.488   2.970  0.6948 -0.6153 -0.9487
 9192TIP3   OH248990   4.653   3.340  12.413 -0.6863  0.3139 -0.0146
 9192TIP3    H148991   4.673   3.309  12.501  0.7396 -0.4084 -0.5600
 9192TIP3    H248992   4.614   3.264  12.370  1.4808 -0.3663 -0.9145
 9193TIP3   OH248993   3.291   1.690  12.719  0.1179  0.1310 -0.5603
 9193TIP3    H148994   3.288   1.634  12.796  1.5643  1.6231  0.6573
 9193TIP3    H248995   3.252   1.773  12.749  1.8338  1.1503 -1.0096
 9194TIP3   OH248996   1.681   0.388   2.692 -0.8418 -0.0478 -0.2641
 9194TIP3    H148997   1.696   0.367   2.600  1.8685  0.9326 -0.1172
 9194TIP3    H248998   1.766   0.375   2.734 -1.5224  1.4701  1.7200
 9195TIP3   OH248999   3.081   3.396   0.036 -0.6994 -0.6459 -0.0198
 9195TIP3    H149000   3.075   3.488   0.011 -0.7453 -0.7689 -0.4751
 9195TIP3    H249001   3.173   3.383   0.059 -0.4295 -0.7673 -1.1020
 9196TIP3   OH249002   3.771   1.779  11.937  0.4451 -0.0640  0.1649
 9196TIP3    H149003   3.847   1.752  11.886 -1.0901 -1.1966 -1.6686
 9196TIP3    H249004   3.758   1.708  12.000  1.0260  0.2391  0.6287
 9197TIP3   OH249005   0.661   1.011  15.302 -0.0718  0.9170 -0.3707
 9197TIP3    H149006   0.727   1.080  15.310  0.5102  0.4040 -0.7562
 9197TIP3    H249007   0.655   0.973  15.389  0.8925  0.2784 -0.5747
 9198TIP3   OH249008   0.442   4.804  16.852 -0.0333  0.2316 -0.2672
 9198TIP3    H149009   0.423   4.891  16.889 -1.8292  0.1315 -0.8528
 9198TIP3    H249010   0.396   4.743  16.909  1.3294 -0.3858  0.2173
 9199TIP3   OH249011   6.657   1.056   5.220 -0.2322  0.0041 -0.3794
 9199TIP3    H149012   6.724   0.991   5.198 -0.3600 -0.1661 -0.2710
 9199TIP3    H249013   6.656   1.116   5.145 -1.4732 -1.2312 -1.4210
 9200TIP3   OH249014   2.987   1.808  10.794  0.6273  0.3671 -0.4105
 9200TIP3    H149015   2.932   1.883  10.815  1.1286  0.4193  0.7493
 9200TIP3    H249016   2.981   1.751  10.870  1.7335  0.1176 -0.4893
 9201TIP3   OH249017   3.732   6.056   3.719 -0.2420 -0.2067  0.1475
 9201TIP3    H149018   3.700   6.070   3.630  1.1454  0.7742 -0.2335
 9201TIP3    H249019   3.788   5.979   3.712  1.4977  1.0282 -0.3260
 9202TIP3   OH249020   5.096   5.623   5.487 -0.2834  0.5200  0.2018
 9202TIP3    H149021   5.064   5.533   5.493  2.3322 -0.5213 -0.2669
 9202TIP3    H249022   5.040   5.672   5.547 -3.2172 -0.9309 -1.1231
 9203TIP3   OH249023   0.738   4.914   3.367  0.3763 -0.4797  0.1131
 9203TIP3    H149024   0.746   5.009   3.365  0.4507 -0.4811  0.4139
 9203TIP3    H249025   0.827   4.882   3.357  0.6888 -0.4991  2.5287
 9204TIP3   OH249026   0.434   6.259  14.652 -0.2498 -0.5800 -1.0283
 9204TIP3    H149027   0.449   6.204  14.575  1.6351 -0.3816 -0.8521
 9204TIP3    H249028   0.367   6.213  14.702 -0.4979 -1.4237 -2.1065
 9205TIP3   OH249029   6.209   0.214   5.081 -0.1335 -0.8666 -0.2863
 9205TIP3    H149030   6.305   0.213   5.085 -0.0840  1.1838  0.1832
 9205TIP3    H249031   6.183   0.287   5.137 -1.9184 -0.6783 -1.2636
 9206TIP3   OH249032   4.676   4.162  16.506  0.4698 -0.0742  0.1613
 9206TIP3    H149033   4.750   4.200  16.553 -0.2991  0.6644  0.8046
 9206TIP3    H249034   4.669   4.073  16.540  0.9880 -0.1123  0.1742
 9207TIP3   OH249035   0.966   3.604   4.059 -0.0976  0.0047 -0.4294
 9207TIP3    H149036   0.898   3.536   4.066 -0.8391  0.8763  1.5404
 9207TIP3    H249037   0.918   3.686   4.060  0.9441  0.6752  1.7513
 9208TIP3   OH249038   0.398   4.522  14.504 -0.2070 -0.3488 -0.0411
 9208TIP3    H149039   0.421   4.456  14.438 -1.8179 -0.7337 -0.2499
 9208TIP3    H249040   0.390   4.603  14.454 -1.0347 -0.5624 -0.2617
 9209TIP3   OH249041   4.650   0.358   4.954  0.3732 -0.2016 -0.0229
 9209TIP3    H149042   4.567   0.384   4.913 -0.0497 -0.1999  0.8120
 9209TIP3    H249043   4.711   0.348   4.880 -0.4126 -0.3917 -0.6632
 9210TIP3   OH249044   1.330   3.542  13.745  0.3092  0.3286  0.0353
 9210TIP3    H149045   1.307   3.452  13.768 -0.9218  0.4882 -0.4831
 9210TIP3    H249046   1.398   3.566  13.808 -1.8616  0.2711  2.5748
 9211TIP3   OH249047   4.041   2.459  15.003  0.0577 -0.5496 -0.5204
 9211TIP3    H149048   4.085   2.440  15.086  0.6984 -2.0851 -1.1818
 9211TIP3    H249049   4.053   2.553  14.991  0.3335 -0.3837  0.9078
 9212TIP3   OH249050   4.655   3.932  13.388 -0.1849  0.0627 -0.6909
 9212TIP3    H149051   4.700   3.874  13.449 -0.9126  0.6741  0.4661
 9212TIP3    H249052   4.638   4.012  13.438 -2.6055 -0.1634 -1.0001
 9213TIP3   OH249053   1.178   2.516   1.677 -0.2504  0.5757 -0.1632
 9213TIP3    H149054   1.103   2.492   1.622  0.3824  2.0655 -1.7928
 9213TIP3    H249055   1.140   2.566   1.750 -1.0554 -0.9293  0.4751
 9214TIP3   OH249056   1.422   2.420  14.311 -0.2229  0.3298  0.1727
 9214TIP3    H149057   1.347   2.417  14.252  0.4469 -0.5998 -0.6620
 9214TIP3    H249058   1.471   2.340  14.293  1.9577  1.7400 -0.6388
 9215TIP3   OH249059   0.950   4.182   5.153  0.3637  0.0447 -0.3047
 9215TIP3    H149060   1.011   4.112   5.175  1.0992  1.3658  2.3005
 9215TIP3    H249061   0.884   4.179   5.223 -1.3556  0.0602 -1.8459
 9216TIP3   OH249062   0.152   1.359  13.651  0.4943 -0.1909  0.6930
 9216TIP3    H149063   0.214   1.327  13.716  1.9386 -0.7500 -0.8917
 9216TIP3    H249064   0.186   1.328  13.567 -1.6991 -0.1341 -0.2964
 9217TIP3   OH249065   0.766   4.257   1.499  0.1336 -0.0264 -0.0299
 9217TIP3    H149066   0.787   4.164   1.509  0.1005  0.1471  2.0846
 9217TIP3    H249067   0.679   4.267   1.537 -0.7353  0.5629 -2.0389
 9218TIP3   OH249068   2.926   5.920   3.092 -1.0950  0.3512  0.0009
 9218TIP3    H149069   2.936   5.860   3.018 -2.0984  2.3593 -1.8729
 9218TIP3    H249070   2.956   6.005   3.059 -3.1062  1.6698  1.3219
 9219TIP3   OH249071   0.767   3.848  15.651  0.3973  0.9957  0.4568
 9219TIP3    H149072   0.727   3.892  15.575 -0.0293  2.4991  1.5019
 9219TIP3    H249073   0.692   3.819  15.703  0.6873 -0.4969  0.0691
 9220TIP3   OH249074   3.270   1.872   3.207  0.2603 -0.1389  0.4686
 9220TIP3    H149075   3.365   1.866   3.218  0.3930 -1.4038 -0.9759
 9220TIP3    H249076   3.256   1.872   3.112 -1.2361 -1.7239  0.6252
 9221TIP3   OH249077   6.171   6.756   5.330  0.6245  0.1927  0.3799
 9221TIP3    H149078   6.243   6.704   5.365  0.4124 -1.5805 -1.5872
 9221TIP3    H249079   6.205   6.792   5.248  0.1699  1.7786  0.8458
 9222TIP3   OH249080   2.541   3.883  14.929 -0.0650 -0.4152 -0.5658
 9222TIP3    H149081   2.446   3.882  14.936 -0.0313  1.4541  1.0805
 9222TIP3    H249082   2.571   3.824  14.998 -0.0207 -1.0156 -1.0938
 9223TIP3   OH249083   5.819   6.793  16.888 -0.1898  0.0121  0.2397
 9223TIP3    H149084   5.823   6.702  16.859  0.0638  0.2489 -0.4882
 9223TIP3    H249085   5.870   6.794  16.969  1.2545 -0.1628 -0.6406
 9224TIP3   OH249086   1.846   5.340   1.795 -0.5559 -0.1078 -0.0746
 9224TIP3    H149087   1.894   5.375   1.720  0.2464  0.4107  0.6724
 9224TIP3    H249088   1.908   5.282   1.839 -0.7059  0.3381  0.7337
 9225TIP3   OH249089   4.067   0.024  13.958 -0.2477  0.5318  0.4455
 9225TIP3    H149090   4.148  -0.023  13.938  0.4717  2.0938 -0.5227
 9225TIP3    H249091   4.007   0.001  13.887 -0.3073  0.1865  0.6043
 9226TIP3   OH249092   4.258   0.766  14.657 -0.6614 -0.1310  0.6842
 9226TIP3    H149093   4.284   0.833  14.720  2.3218 -0.1875 -0.3424
 9226TIP3    H249094   4.286   0.684  14.696  0.8575 -0.2018 -0.4816
 9227TIP3   OH249095   5.099   3.998   2.591 -0.6973  0.4726 -0.3341
 9227TIP3    H149096   5.177   4.035   2.632 -0.9658 -0.5230  1.1759
 9227TIP3    H249097   5.109   4.017   2.498  0.3830  2.0550  0.0622
 9228TIP3   OH249098   3.871   3.269  13.558 -0.1066 -0.3529  0.1670
 9228TIP3    H149099   3.850   3.361  13.544  2.1236  0.2362  0.2447
 9228TIP3    H249100   3.967   3.267  13.563 -0.1440 -2.4888  1.4592
 9229TIP3   OH249101   1.985   5.964   1.068 -0.3345 -0.4795 -0.2833
 9229TIP3    H149102   1.935   5.917   1.134 -0.7271 -0.2727 -0.4293
 9229TIP3    H249103   1.974   6.056   1.091  0.4919 -0.4556  0.0471
 9230TIP3   OH249104   1.314   3.473   2.679  0.3654  0.3564 -0.2926
 9230TIP3    H149105   1.328   3.535   2.751  1.5999 -0.1330 -0.0840
 9230TIP3    H249106   1.235   3.504   2.636 -0.0183  1.0644  0.8617
 9231TIP3   OH249107   2.850   2.838  11.552 -0.1001 -0.1395 -0.1366
 9231TIP3    H149108   2.936   2.877  11.538  0.1706 -0.5801  0.2710
 9231TIP3    H249109   2.835   2.785  11.473  1.3084 -2.3970  0.9963
 9232TIP3   OH249110   5.994   2.152  16.967 -0.0609  0.1638 -0.1531
 9232TIP3    H149111   5.999   2.105  17.050  0.7031  1.2066  0.4202
 9232TIP3    H249112   5.945   2.232  16.988 -0.2963  0.2024 -0.8283
 9233TIP3   OH249113   2.069   1.743   0.282 -0.1295  0.4673 -0.1727
 9233TIP3    H149114   2.018   1.758   0.203  1.6429 -0.3939 -1.5527
 9233TIP3    H249115   2.131   1.674   0.258 -0.4091 -0.8050  2.3826
 9234TIP3   OH249116   1.678   0.512  13.369  0.1771  0.4877 -0.2200
 9234TIP3    H149117   1.590   0.521  13.333  0.2864  0.7084 -0.4313
 9234TIP3    H249118   1.724   0.456  13.306  0.3596  0.8494 -0.4141
 9235TIP3   OH249119   4.139   4.315  12.918  0.5613 -0.1418  0.1405
 9235TIP3    H149120   4.111   4.313  12.826 -0.2544  1.5731  0.3050
 9235TIP3    H249121   4.234   4.305  12.915  0.4118 -1.5956 -0.7652
 9236TIP3   OH249122   5.203   2.447  15.253 -0.0864 -0.1557  0.4018
 9236TIP3    H149123   5.171   2.490  15.174 -0.2162 -0.8096  0.0979
 9236TIP3    H249124   5.146   2.479  15.323  1.8323  2.8070  0.8279
 9237TIP3   OH249125   5.621   4.278   0.389 -0.0290  0.5175  0.0325
 9237TIP3    H149126   5.640   4.224   0.466  0.9840  1.3330  0.3795
 9237TIP3    H249127   5.686   4.348   0.392 -0.6056  1.1295 -1.0255
 9238TIP3   OH249128   6.359   6.326  14.566  0.2371 -0.3281 -0.2290
 9238TIP3    H149129   6.375   6.262  14.636  4.3185  1.0313  0.3444
 9238TIP3    H249130   6.363   6.411  14.610 -0.8127  0.4759 -1.6283
 9239TIP3   OH249131   1.352   2.030   0.632  0.3669  0.0157 -0.8103
 9239TIP3    H149132   1.423   2.011   0.693  0.8254  0.0547 -1.3206
 9239TIP3    H249133   1.297   2.093   0.678  1.2544  0.8182 -0.8184
 9240TIP3   OH249134   4.305   3.965  11.572 -0.4442  0.9854 -0.0580
 9240TIP3    H149135   4.361   3.970  11.649 -1.0300  2.7752  0.3170
 9240TIP3    H249136   4.365   3.957  11.498  0.1188 -0.9047  0.5591
 9241TIP3   OH249137   4.902   2.588  13.188 -0.1700 -0.6826 -1.0129
 9241TIP3    H149138   4.974   2.626  13.239  0.9689 -3.3207 -0.5066
 9241TIP3    H249139   4.904   2.634  13.105  1.8617 -0.4185 -0.8596
 9242TIP3   OH249140   4.718   3.013  15.828  0.6437 -0.1881  0.0099
 9242TIP3    H149141   4.658   2.998  15.901  3.2578 -1.6110  2.0311
 9242TIP3    H249142   4.723   2.929  15.783  3.4777 -1.1763  1.8946
 9243TIP3   OH249143   4.633   3.430   5.061 -0.3024  0.0928  0.0724
 9243TIP3    H149144   4.724   3.444   5.035 -0.4943 -0.1056 -0.7573
 9243TIP3    H249145   4.582   3.472   4.991 -0.8485 -0.3449  0.2041
 9244TIP3   OH249146   5.365   1.893  13.517  0.3340 -0.0766 -0.1857
 9244TIP3    H149147   5.388   1.973  13.471 -1.9333  1.5057  1.2504
 9244TIP3    H249148   5.435   1.880  13.581  0.0418  1.6090  0.5233
 9245TIP3   OH249149   3.290   2.665  13.906 -0.1175 -0.4076 -0.2149
 9245TIP3    H149150   3.215   2.642  13.851  1.2226  1.1183 -2.8811
 9245TIP3    H249151   3.266   2.747  13.947 -0.1434 -0.1910 -0.6527
 9246TIP3   OH249152   0.664   3.994  17.014 -0.0903  0.0621 -0.0542
 9246TIP3    H149153   0.704   4.047  16.944  0.0992  0.2569  0.1988
 9246TIP3    H249154   0.663   4.052  17.090 -0.5296 -0.0655  0.0390
 9247TIP3   OH249155   5.817   3.794   0.075 -0.5898  0.1159  0.0251
 9247TIP3    H149156   5.900   3.767   0.115 -0.8749 -1.1511 -0.1654
 9247TIP3    H249157   5.800   3.880   0.111  0.3274 -0.0080  0.8208
 9248TIP3   OH249158   3.277   3.160  16.045  0.3355  0.1431  0.4379
 9248TIP3    H149159   3.248   3.251  16.049 -3.6537 -0.7759 -2.0244
 9248TIP3    H249160   3.224   3.115  16.111  0.5099 -0.7385 -0.0072
 9249TIP3   OH249161   2.244   1.670  15.987  0.0148  0.1488 -0.4744
 9249TIP3    H149162   2.310   1.624  16.039  0.2096 -0.9185 -1.5978
 9249TIP3    H249163   2.252   1.630  15.900 -3.7889 -1.8345 -0.1124
 9250TIP3   OH249164   4.284   6.773   3.315  0.3831  0.3346  0.5526
 9250TIP3    H149165   4.249   6.856   3.350  0.0890  0.7714 -0.7263
 9250TIP3    H249166   4.209   6.714   3.313 -0.3215  1.1861 -1.9268
 9251TIP3   OH249167   0.850   6.113   3.547 -0.0499  0.0911  0.6764
 9251TIP3    H149168   0.811   6.055   3.482 -0.8329 -1.4010  2.3572
 9251TIP3    H249169   0.913   6.166   3.499 -2.0185  0.5022 -1.6179
 9252TIP3   OH249170   0.533   2.561  14.719  0.1388 -0.5286  0.1822
 9252TIP3    H149171   0.440   2.578  14.732  0.3204 -0.3412  1.2941
 9252TIP3    H249172   0.577   2.639  14.751  0.6686 -0.3351 -0.9568
 9253TIP3   OH249173   3.667   3.979   4.249 -0.0816 -0.3376 -0.0550
 9253TIP3    H149174   3.709   4.016   4.327 -0.2789 -1.2604  0.5025
 9253TIP3    H249175   3.615   4.051   4.214 -0.8923 -0.2224  1.3135
 9254TIP3   OH249176   3.079   3.910  11.395 -0.4588 -0.6229 -0.5304
 9254TIP3    H149177   3.036   3.948  11.471  1.1596  1.3721 -0.5030
 9254TIP3    H249178   3.143   3.849  11.431 -0.9051 -1.0229 -0.4050
 9255TIP3   OH249179   5.965   2.366   3.160 -0.3738  0.0557 -0.4904
 9255TIP3    H149180   5.874   2.343   3.139 -0.9749  1.7270  0.1028
 9255TIP3    H249181   6.008   2.282   3.177 -2.0393 -0.7223  0.1188
 9256TIP3   OH249182   3.913   1.336   1.755  0.0671 -0.1902 -0.1860
 9256TIP3    H149183   3.920   1.241   1.743 -1.8622 -0.2549 -1.1986
 9256TIP3    H249184   4.004   1.365   1.766  0.7165 -2.1230  0.0297
 9257TIP3   OH249185   3.125   0.250   5.029 -0.3663 -0.5188 -0.0757
 9257TIP3    H149186   3.082   0.175   5.069 -2.2021  0.7417  0.4380
 9257TIP3    H249187   3.156   0.217   4.944 -2.8253 -1.3888 -0.7019
 9258TIP3   OH249188   5.728   2.764   1.858 -0.5262  0.0244 -0.1767
 9258TIP3    H149189   5.712   2.682   1.810  0.5953  0.1422 -0.7829
 9258TIP3    H249190   5.720   2.832   1.792 -0.9078  0.3706  0.2188
 9259TIP3   OH249191   3.052   4.688  13.350  0.5769 -0.3741  0.2957
 9259TIP3    H149192   3.057   4.780  13.375  0.9691  0.6431 -3.0594
 9259TIP3    H249193   3.143   4.658  13.353  0.6734 -0.1454 -0.1536
 9260TIP3   OH249194   0.892   1.878   2.200  0.0482  0.3881 -0.7261
 9260TIP3    H149195   0.976   1.884   2.155 -0.7082  0.1836 -2.2080
 9260TIP3    H249196   0.852   1.964   2.188 -0.2670  0.2523 -0.6670
 9261TIP3   OH249197   1.695   4.187   5.125 -0.0375  0.2828 -0.1813
 9261TIP3    H149198   1.645   4.208   5.046  1.8811  0.1009 -1.5030
 9261TIP3    H249199   1.722   4.272   5.159 -0.3168  0.3303 -0.0715
 9262TIP3   OH249200   1.902   0.329   0.983  0.2919 -0.1776  0.1975
 9262TIP3    H149201   1.980   0.332   0.929  0.7664  1.7100  0.8984
 9262TIP3    H249202   1.924   0.382   1.060 -1.2545 -0.6215  0.9903
 9263TIP3   OH249203   3.939   1.334   3.151  0.3163 -0.0507  0.4213
 9263TIP3    H149204   3.885   1.271   3.200 -0.8759 -0.9076 -1.8435
 9263TIP3    H249205   4.024   1.331   3.195 -0.9232 -0.0134  3.0093
 9264TIP3   OH249206   5.736   3.244   3.020 -0.2991 -0.4710 -0.3842
 9264TIP3    H149207   5.658   3.287   2.986 -0.2809 -0.1388  0.0002
 9264TIP3    H249208   5.805   3.309   3.011 -0.4566 -0.0774  1.0371
 9265TIP3   OH249209   4.659   6.453  17.053 -0.2582  0.1777 -0.0727
 9265TIP3    H149210   4.576   6.416  17.023  0.4143  0.1990 -2.1109
 9265TIP3    H249211   4.655   6.545  17.027 -0.5948  0.8194  2.0903
 9266TIP3   OH249212   2.872   6.303  13.650  0.2242  0.0251 -0.3918
 9266TIP3    H149213   2.859   6.209  13.663  2.1868 -0.3298 -0.7964
 9266TIP3    H249214   2.864   6.340  13.738 -2.8380 -0.1435 -0.4897
 9267TIP3   OH249215   3.387   4.085   4.382  0.4906  0.5164  0.4521
 9267TIP3    H149216   3.447   4.131   4.441  1.8787  0.8412 -1.1215
 9267TIP3    H249217   3.407   4.120   4.295 -1.9223  0.5242 -0.1848
 9268TIP3   OH249218   2.253   4.228  12.802 -0.0132 -0.2303 -0.1222
 9268TIP3    H149219   2.194   4.302  12.792  1.1301  0.5842 -1.1051
 9268TIP3    H249220   2.334   4.266  12.837  1.0525 -0.7561 -1.8603
 9269TIP3   OH249221   5.270   0.569  11.692 -1.3643 -0.5998 -0.6303
 9269TIP3    H149222   5.297   0.480  11.716  1.8323  0.2411 -0.6781
 9269TIP3    H249223   5.285   0.620  11.771 -0.9484  0.3059 -1.2841
 9270TIP3   OH249224   4.119   5.155  12.471  0.1306  0.1141 -0.0242
 9270TIP3    H149225   4.131   5.159  12.566 -1.5834  2.7972  0.1829
 9270TIP3    H249226   4.198   5.195  12.435  0.0717  0.5672  0.3487
 9271TIP3   OH249227   0.822   0.661   2.596  0.8008 -0.1317  0.1294
 9271TIP3    H149228   0.799   0.677   2.505 -0.4939 -0.6362  0.3451
 9271TIP3    H249229   0.750   0.699   2.646  0.8058 -1.0724  0.8766
 9272TIP3   OH249230   1.676   6.111   1.950  0.1929 -0.2335 -0.1490
 9272TIP3    H149231   1.608   6.178   1.952  0.2992  0.0727 -2.9226
 9272TIP3    H249232   1.757   6.159   1.933  1.1745 -0.6241  2.8356
 9273TIP3   OH249233   1.004   1.615   1.975  0.1776  0.2080  0.2056
 9273TIP3    H149234   0.920   1.601   1.932 -0.1090  0.5646  0.6483
 9273TIP3    H249235   1.046   1.529   1.974 -0.6218 -0.2081  0.9061
 9274TIP3   OH249236   4.074   2.122  12.858  0.4493  0.1227  0.5487
 9274TIP3    H149237   4.113   2.151  12.776 -0.7846  1.2694  0.3408
 9274TIP3    H249238   3.984   2.099  12.836  1.1643 -3.5463  0.7948
 9275TIP3   OH249239   0.214   0.721   4.846  0.2804  0.1760 -0.2813
 9275TIP3    H149240   0.228   0.626   4.845  1.0399  0.2762  0.0615
 9275TIP3    H249241   0.133   0.734   4.798 -0.6440 -0.7893  0.9564
 9276TIP3   OH249242   1.652   0.322   5.245  0.1227 -0.2182 -0.8284
 9276TIP3    H149243   1.591   0.338   5.173  0.1713 -0.5136 -0.9380
 9276TIP3    H249244   1.738   0.320   5.203  0.1125 -0.7983 -0.8241
 9277TIP3   OH249245   2.862   6.725   3.230  0.0851 -0.4497 -0.2522
 9277TIP3    H149246   2.838   6.773   3.151  1.9170  1.0036  0.0074
 9277TIP3    H249247   2.827   6.636   3.216 -1.0372  0.2115 -1.9380
 9278TIP3   OH249248   5.645   1.490   5.126  0.0369 -0.1593 -0.1067
 9278TIP3    H149249   5.595   1.569   5.106  0.7504  0.7432  1.5371
 9278TIP3    H249250   5.684   1.465   5.043 -1.0140  0.6276 -0.8660
 9279TIP3   OH249251   3.075   2.200   3.701  0.0001  0.4298 -0.1133
 9279TIP3    H149252   3.103   2.150   3.624 -0.5205 -0.6382  0.3625
 9279TIP3    H249253   3.078   2.137   3.773  2.1127  1.8345  1.1209
 9280TIP3   OH249254   2.073   6.422   2.126 -0.4820  0.3671 -1.0596
 9280TIP3    H149255   2.133   6.361   2.167 -0.9854 -1.4136 -2.8135
 9280TIP3    H249256   2.113   6.508   2.140  0.6277 -0.3908  0.8373
 9281TIP3   OH249257   2.909   3.106   1.175  0.0870 -0.3875 -0.4940
 9281TIP3    H149258   2.899   3.199   1.196  1.5523 -0.8979  3.0807
 9281TIP3    H249259   2.861   3.060   1.245  1.0114 -2.3412 -1.0725
 9282TIP3   OH249260   2.112   2.205   2.791  0.4511  1.0176 -0.3332
 9282TIP3    H149261   2.046   2.176   2.728 -0.3225 -2.3270  1.7653
 9282TIP3    H249262   2.063   2.219   2.872  1.7548  2.8129  0.1958
 9283TIP3   OH249263   2.945   1.112   5.343  1.0261  0.2432 -0.3200
 9283TIP3    H149264   2.988   1.196   5.361  0.2504  0.8774 -1.2840
 9283TIP3    H249265   2.852   1.132   5.346  0.7828 -1.0104  1.2776
 9284TIP3   OH249266   4.688   1.176   5.347  0.0640  0.0887  0.3168
 9284TIP3    H149267   4.734   1.209   5.269  0.2205 -1.3384 -0.2320
 9284TIP3    H249268   4.757   1.133   5.398 -0.4471 -1.0897  0.0386
 9285TIP3   OH249269   5.737   1.975   3.738  0.4250  0.1423  0.8114
 9285TIP3    H149270   5.796   1.961   3.665 -0.1757 -0.5365  0.4411
 9285TIP3    H249271   5.793   2.005   3.810  1.2411 -0.6578  0.5237
 9286TIP3   OH249272   5.373   4.711  12.340  0.2693 -0.0377 -0.0933
 9286TIP3    H149273   5.321   4.783  12.304  0.2990  0.9588  1.7541
 9286TIP3    H249274   5.372   4.644  12.271 -1.1798  1.0356 -1.1782
 9287TIP3   OH249275   2.703   2.449   6.192  0.5418 -0.2204 -0.1454
 9287TIP3    H149276   2.635   2.456   6.125 -0.5656 -1.3227  0.8167
 9287TIP3    H249277   2.754   2.529   6.183  0.0913 -0.1038 -1.9398
 9288TIP3   OH249278   1.699   2.027   3.041 -0.4686  0.6098  0.1522
 9288TIP3    H149279   1.679   1.937   3.016  0.3681  0.3596  0.3711
 9288TIP3    H249280   1.688   2.077   2.960 -1.1288  0.3530  0.0728
 9289TIP3   OH249281   6.438   3.605   3.477  0.5300  0.0394 -0.2490
 9289TIP3    H149282   6.498   3.620   3.549  1.3907 -3.3774 -0.1107
 9289TIP3    H249283   6.370   3.548   3.513  0.9779 -1.7618 -2.0497
 9290TIP3   OH249284   6.449   5.516  15.155  0.2522  0.1033 -0.1728
 9290TIP3    H149285   6.383   5.458  15.117  0.9281 -0.2388 -0.8382
 9290TIP3    H249286   6.434   5.510  15.250 -0.3761 -0.3170 -0.2892
 9291TIP3   OH249287   1.332   5.770   4.164  0.4360  0.0262 -0.3162
 9291TIP3    H149288   1.320   5.813   4.249  1.2329 -1.7477  0.7360
 9291TIP3    H249289   1.244   5.741   4.139  0.3786 -0.5941  0.5570
 9292TIP3   OH249290   1.137   4.873   1.568 -0.0439 -0.3242  0.1216
 9292TIP3    H149291   1.231   4.860   1.565  0.0394  0.3657 -0.5680
 9292TIP3    H249292   1.124   4.942   1.634 -0.1647 -1.1665  0.9954
 9293TIP3   OH249293   1.138   5.675   4.430  0.3392  0.3948 -0.0169
 9293TIP3    H149294   1.115   5.595   4.477 -0.4343  0.0282 -1.0063
 9293TIP3    H249295   1.231   5.688   4.450  0.3131 -0.3881  0.6700
 9294TIP3   OH249296   1.478   5.739   6.698 -0.1817 -0.1060 -0.1191
 9294TIP3    H149297   1.513   5.800   6.764 -0.1823  0.7018 -0.8460
 9294TIP3    H249298   1.485   5.787   6.615 -0.0854 -1.1419 -0.7282
 9295TIP3   OH249299   5.518   0.942  14.069  0.1778  0.5150 -0.2490
 9295TIP3    H149300   5.539   0.880  14.139 -0.8192  1.2352  0.7287
 9295TIP3    H249301   5.561   0.906  13.992  0.6666 -0.7214  0.5575
 9296TIP3   OH249302   4.206   3.933  13.258  0.4297 -0.1001 -0.0742
 9296TIP3    H149303   4.165   3.902  13.339  1.0069 -1.9010 -0.4190
 9296TIP3    H249304   4.143   3.911  13.190  0.6856 -0.1495 -0.2942
 9297TIP3   OH249305   4.719   5.291  11.528 -0.2320  0.0156  0.4730
 9297TIP3    H149306   4.769   5.329  11.601  0.3870 -1.2719  0.7393
 9297TIP3    H249307   4.760   5.327  11.449 -1.0040  1.5443  0.7231
 9298TIP3   OH249308   6.598   4.166  14.958 -0.4760 -0.2227  0.0929
 9298TIP3    H149309   6.506   4.183  14.979  0.1457  0.3937  2.6602
 9298TIP3    H249310   6.625   4.241  14.904 -1.3373 -0.1711 -0.2800
 9299TIP3   OH249311   2.316   1.099   4.996 -0.1807 -0.2181  0.0550
 9299TIP3    H149312   2.317   1.076   5.089 -1.1306 -1.0052 -0.1099
 9299TIP3    H249313   2.223   1.112   4.975  0.1529  1.6596 -0.3933
 9300TIP3   OH249314   1.040   5.522   0.158 -0.0112  0.3794  0.5465
 9300TIP3    H149315   1.019   5.470   0.235  0.0545  2.1663  1.8164
 9300TIP3    H249316   0.957   5.564   0.133  0.3036  1.0623  0.6260
 9301TIP3   OH249317   6.262   3.473  16.778  0.2066  0.4418 -0.6631
 9301TIP3    H149318   6.338   3.451  16.831  0.4396  0.1015 -1.1290
 9301TIP3    H249319   6.210   3.393  16.775  1.0007 -0.0501 -2.2773
 9302TIP3   OH249320   1.168   1.269  14.887 -0.0829  0.4135 -0.1522
 9302TIP3    H149321   1.172   1.202  14.955  1.4666 -0.6140 -1.2035
 9302TIP3    H249322   1.198   1.225  14.807 -1.4414  1.6939 -1.4406
 9303TIP3   OH249323   3.648   5.815   6.156  0.8309 -0.0905 -0.5191
 9303TIP3    H149324   3.729   5.866   6.167  0.5449  0.2356  0.0970
 9303TIP3    H249325   3.656   5.744   6.219  1.9927 -1.8264 -2.5089
 9304TIP3   OH249326   2.165   2.778   2.297 -0.2277 -0.2945 -0.0940
 9304TIP3    H149327   2.137   2.846   2.357  0.2197 -0.3155  0.1436
 9304TIP3    H249328   2.099   2.709   2.305  0.7696 -1.0992  1.7426
 9305TIP3   OH249329   0.649   4.934   4.471  0.1149 -0.1812  0.2198
 9305TIP3    H149330   0.711   4.923   4.399  1.1884 -0.3232  1.1358
 9305TIP3    H249331   0.648   5.029   4.486 -2.1100  0.1849 -1.6404
 9306TIP3   OH249332   1.944   1.015  13.987  0.5492 -0.2924 -0.0894
 9306TIP3    H149333   1.914   0.926  13.970 -1.6193  0.3610  0.0019
 9306TIP3    H249334   2.040   1.009  13.986  0.4550 -2.6188  0.0467
 9307TIP3   OH249335   4.388   6.648  17.001 -0.8028  0.0985 -0.1863
 9307TIP3    H149336   4.376   6.738  16.971 -1.7387  0.0290 -0.0461
 9307TIP3    H249337   4.343   6.595  16.935 -3.2171 -0.0430  1.4257
 9308TIP3   OH249338   4.662   5.708   5.570  0.2802 -0.6652  0.1317
 9308TIP3    H149339   4.623   5.771   5.631  0.9002  0.4068 -0.5510
 9308TIP3    H249340   4.673   5.757   5.488  2.5143 -1.0831  0.1250
 9309TIP3   OH249341   0.475   4.834  12.625  0.1622  0.1758  0.3333
 9309TIP3    H149342   0.488   4.918  12.582 -1.3543  1.2761  1.9048
 9309TIP3    H249343   0.389   4.805  12.594 -1.4420  1.4732  3.1915
 9310TIP3   OH249344   3.926   6.255  12.832  0.0078  0.2333  0.3747
 9310TIP3    H149345   3.993   6.208  12.882 -1.2955 -1.4498  0.6349
 9310TIP3    H249346   3.869   6.186  12.797 -0.8532  1.5403 -0.9190
 9311TIP3   OH249347   2.436   3.563   2.213 -0.2536  0.3101  0.0942
 9311TIP3    H149348   2.341   3.565   2.216 -0.2174  0.2926  1.7853
 9311TIP3    H249349   2.456   3.484   2.163 -1.1159  0.2033 -0.1009
 9312TIP3   OH249350   3.555   1.603  12.839  0.9282 -0.1237  0.3242
 9312TIP3    H149351   3.593   1.526  12.880  0.2641 -0.8925 -0.4769
 9312TIP3    H249352   3.468   1.611  12.877  0.0746 -1.1901 -1.2884
 9313TIP3   OH249353   0.978   4.604  16.703  0.1638 -0.3500 -0.1618
 9313TIP3    H149354   0.895   4.615  16.749 -0.5073 -1.8677 -0.9433
 9313TIP3    H249355   1.038   4.572  16.769  0.4742  1.8131  0.6745
 9314TIP3   OH249356   3.733   4.699   2.018 -0.4614  0.3805 -0.9865
 9314TIP3    H149357   3.717   4.790   2.044  0.1250  0.8151 -2.1235
 9314TIP3    H249358   3.826   4.686   2.032 -0.4126  0.1743 -1.4944
 9315TIP3   OH249359   1.758   6.803   0.668 -0.0171  0.1586 -0.2641
 9315TIP3    H149360   1.853   6.808   0.657 -0.1268  0.6429 -1.0827
 9315TIP3    H249361   1.736   6.882   0.716 -0.2683  1.3668 -2.2295
 9316TIP3   OH249362   3.620   6.474   3.522  0.1075 -0.1244 -0.5738
 9316TIP3    H149363   3.551   6.510   3.577  1.5452  0.5363  0.9002
 9316TIP3    H249364   3.638   6.542   3.458  1.0055  0.7652  0.5647
 9317TIP3   OH249365   5.515   2.186  14.706  0.4962  0.4256 -0.1646
 9317TIP3    H149366   5.524   2.279  14.727 -0.4556  0.4845 -0.0073
 9317TIP3    H249367   5.510   2.142  14.791 -1.2855  0.4610 -0.2335
 9318TIP3   OH249368   3.154   1.165  13.172  0.5732  0.2784 -0.3848
 9318TIP3    H149369   3.245   1.138  13.161  0.4073 -0.1191 -0.8204
 9318TIP3    H249370   3.103   1.090  13.142  0.0455 -0.8198  2.7908
 9319TIP3   OH249371   0.786   5.674  11.630 -0.4471 -0.3823  0.3946
 9319TIP3    H149372   0.724   5.603  11.613  1.1049 -1.9294  0.9748
 9319TIP3    H249373   0.819   5.658  11.718  0.3455  0.7639  0.3386
 9320TIP3   OH249374   0.994   2.872  14.634  0.3623  0.3624 -0.5319
 9320TIP3    H149375   0.949   2.791  14.607  0.3455 -0.2011  1.0739
 9320TIP3    H249376   0.924   2.935  14.649  0.0878 -0.3417  1.4011
 9321TIP3   OH249377   2.574   1.111  13.900  0.3637 -0.3801 -0.2288
 9321TIP3    H149378   2.518   1.033  13.907 -0.3400  0.0419 -1.0098
 9321TIP3    H249379   2.576   1.146  13.989 -1.6775  0.3024 -0.3883
 9322TIP3   OH249380   4.910   3.465   2.074 -0.4156 -0.0028 -0.2594
 9322TIP3    H149381   4.865   3.414   2.008 -0.2292 -0.5124  0.0019
 9322TIP3    H249382   4.952   3.400   2.131  1.1220  0.4408 -0.8199
 9323TIP3   OH249383   4.401   6.251   5.209 -0.1717  0.1431 -0.2326
 9323TIP3    H149384   4.322   6.282   5.165 -0.2724 -0.9382 -0.8619
 9323TIP3    H249385   4.434   6.327   5.257 -2.0303  0.4342  0.6839
 9324TIP3   OH249386   4.621   0.896  13.604 -0.4186 -0.5851  0.0761
 9324TIP3    H149387   4.526   0.901  13.590 -0.3377  0.2273 -0.2522
 9324TIP3    H249388   4.636   0.807  13.635 -1.3703 -0.5339  0.7362
 9325TIP3   OH249389   4.901   2.699  15.678  0.1602  0.2390 -0.0819
 9325TIP3    H149390   4.944   2.781  15.654  1.4324 -0.3895 -0.0383
 9325TIP3    H249391   4.816   2.726  15.712  0.6189  1.5542  0.0948
 9326TIP3   OH249392   2.553   5.389  13.499 -0.1662 -0.2323 -0.0083
 9326TIP3    H149393   2.638   5.409  13.540  0.6583 -2.9970 -0.1614
 9326TIP3    H249394   2.533   5.466  13.446  0.2552  2.2032  3.0720
 9327TIP3   OH249395   1.487   0.083  13.301  0.2947 -0.1466  0.0615
 9327TIP3    H149396   1.500  -0.004  13.339 -2.5272  0.0917  1.8239
 9327TIP3    H249397   1.468   0.066  13.209  0.0871 -1.3597  0.3041
 9328TIP3   OH249398   4.562   5.359  14.425  0.6922 -0.0848 -0.3222
 9328TIP3    H149399   4.518   5.334  14.344 -0.3418 -0.0097  0.1867
 9328TIP3    H249400   4.655   5.362  14.403  0.5216 -1.0206 -1.2564
 9329TIP3   OH249401   2.475   3.314  11.655  0.4525 -0.6892 -0.7268
 9329TIP3    H149402   2.400   3.351  11.609  0.2515  0.4640  0.4594
 9329TIP3    H249403   2.534   3.389  11.668  0.3742 -0.8980  1.1000
 9330TIP3   OH249404   6.107   5.673  14.965 -0.1496 -0.5805 -0.2935
 9330TIP3    H149405   6.131   5.584  14.990 -0.7765 -1.0382 -1.2897
 9330TIP3    H249406   6.077   5.666  14.875 -0.3453  0.6222 -0.3409
 9331TIP3   OH249407   3.548   4.538   3.474  0.2443  0.4714 -0.2338
 9331TIP3    H149408   3.478   4.478   3.449 -0.1097  1.3339 -1.4370
 9331TIP3    H249409   3.628   4.489   3.457 -0.0516 -0.0776 -0.0682
 9332TIP3   OH249410   0.839   0.860  16.362  0.2926  0.3745 -0.5079
 9332TIP3    H149411   0.794   0.878  16.280 -0.1611  2.0570  0.0704
 9332TIP3    H249412   0.776   0.810  16.414  0.1054  0.4196 -0.6900
 9333TIP3   OH249413   1.736   6.687   5.552  0.0514 -0.0465 -0.1024
 9333TIP3    H149414   1.650   6.664   5.516  0.0697 -0.0194 -0.1633
 9333TIP3    H249415   1.743   6.781   5.538  0.4777 -0.1915 -0.9225
 9334TIP3   OH249416   2.935   5.597   1.474 -0.5954  0.0302  0.0918
 9334TIP3    H149417   2.894   5.641   1.548  0.5727  1.0212  0.1831
 9334TIP3    H249418   2.938   5.504   1.499  1.0924  0.5202  1.9620
 9335TIP3   OH249419   6.625   2.681   3.892 -0.0696 -0.4439  0.2706
 9335TIP3    H149420   6.572   2.639   3.825 -0.1604  0.1016 -0.0114
 9335TIP3    H249421   6.714   2.681   3.856 -0.0185 -0.6566  0.3978
 9336TIP3   OH249422   2.564   1.021  12.123 -0.3228 -0.2172 -0.4396
 9336TIP3    H149423   2.498   1.041  12.189 -0.4811  0.2099 -0.7213
 9336TIP3    H249424   2.571   0.925  12.124 -0.6368 -0.2384 -0.1091
 9337TIP3   OH249425   1.020   1.312   4.634  0.3403  0.0427  0.0890
 9337TIP3    H149426   0.992   1.387   4.686  0.3913 -0.4356  0.8271
 9337TIP3    H249427   1.081   1.265   4.690  1.3412  0.1583 -0.8638
 9338TIP3   OH249428   5.149   3.033   5.993 -0.3937  0.3956  0.2111
 9338TIP3    H149429   5.216   2.971   5.967 -0.8512  0.2181 -0.5755
 9338TIP3    H249430   5.179   3.117   5.958 -0.3668  0.3956  0.2340
 9339TIP3   OH249431   1.231   4.786   3.400 -0.3698  0.2033  0.1400
 9339TIP3    H149432   1.259   4.848   3.332  0.9591  0.1245  0.5806
 9339TIP3    H249433   1.276   4.816   3.479 -0.4824 -0.7530  0.5726
 9340TIP3   OH249434   5.690   6.746  10.797 -0.0017  0.6585 -0.1793
 9340TIP3    H149435   5.694   6.833  10.758 -1.1427  1.1557  0.7391
 9340TIP3    H249436   5.688   6.686  10.723  0.2136  1.4399 -0.8343
 9341TIP3   OH249437   4.402   3.249   2.594 -0.1548  0.1941 -0.7959
 9341TIP3    H149438   4.406   3.194   2.672  0.8063 -0.0044 -0.9752
 9341TIP3    H249439   4.485   3.298   2.594 -1.0304  1.7304 -0.5785
 9342TIP3   OH249440   2.822   0.181   3.335 -0.1878 -0.1923 -0.8997
 9342TIP3    H149441   2.851   0.091   3.317  0.4569  0.2472 -2.1947
 9342TIP3    H249442   2.825   0.189   3.430 -0.3230 -1.5574 -0.7586
 9343TIP3   OH249443   0.370   0.785   3.078  0.4964 -0.2199 -0.2801
 9343TIP3    H149444   0.313   0.734   3.020  1.6215 -0.6251 -1.0478
 9343TIP3    H249445   0.326   0.870   3.084 -0.4163 -0.6592 -0.5009
 9344TIP3   OH249446   3.251   0.190   0.249 -0.0197 -0.0658 -0.2265
 9344TIP3    H149447   3.191   0.184   0.175  0.5363  1.4880 -0.8280
 9344TIP3    H249448   3.338   0.192   0.210  0.3568 -0.5733  0.5511
 9345TIP3   OH249449   6.738   5.159   5.858  0.4200  0.1040 -0.0873
 9345TIP3    H149450   6.751   5.068   5.829 -0.2051 -0.1894  0.5107
 9345TIP3    H249451   6.762   5.158   5.950 -0.7537  0.2538  0.2393
 9346TIP3   OH249452   3.973   6.794   6.226  0.6946  0.3381 -0.4584
 9346TIP3    H149453   3.991   6.887   6.238  0.2570  0.2187  1.4963
 9346TIP3    H249454   3.883   6.791   6.195  1.0734  0.5962 -1.6097
 9347TIP3   OH249455   4.977   0.869   1.508 -0.1051  0.2455 -0.0894
 9347TIP3    H149456   5.004   0.943   1.562  0.9895  0.0936 -0.3870
 9347TIP3    H249457   4.891   0.845   1.540  0.8938 -0.4583  2.2745
 9348TIP3   OH249458   4.602   5.936  13.747  0.7955  0.0263 -0.1233
 9348TIP3    H149459   4.651   5.964  13.825 -1.1435  1.3469  0.7037
 9348TIP3    H249460   4.644   5.983  13.675  1.6005  0.0527  0.3465
 9349TIP3   OH249461   3.589   2.240  12.738 -0.3498 -0.7869  0.1192
 9349TIP3    H149462   3.535   2.202  12.807 -1.0745 -4.4152 -2.1723
 9349TIP3    H249463   3.537   2.313  12.704 -1.3438 -0.8696  1.3904
 9350TIP3   OH249464   4.075   0.286   2.482  0.1947  0.6584 -0.2647
 9350TIP3    H149465   4.006   0.348   2.462  0.2687  1.2404  1.1702
 9350TIP3    H249466   4.030   0.210   2.517  0.2311  0.7016 -0.1242
 9351TIP3   OH249467   4.189   0.513  12.558  0.2646 -0.7461 -0.2907
 9351TIP3    H149468   4.188   0.609  12.561 -1.2799 -0.7484 -0.1297
 9351TIP3    H249469   4.190   0.493  12.464  0.4515 -0.5744 -0.3272
 9352TIP3   OH249470   4.751   4.766  12.329 -0.8240  0.3643 -0.2059
 9352TIP3    H149471   4.791   4.759  12.242  0.1629  2.2119  0.0556
 9352TIP3    H249472   4.824   4.785  12.388 -1.3648 -1.6229  1.1982
 9353TIP3   OH249473   0.097   4.349  10.333 -0.0535 -0.2244 -0.8668
 9353TIP3    H149474   0.110   4.255  10.328  0.5129 -0.1602 -0.6649
 9353TIP3    H249475   0.051   4.362  10.416 -1.0136 -0.4071 -1.3580
 9354TIP3   OH249476   1.462   1.385   6.212 -0.0712 -0.5818  0.0938
 9354TIP3    H149477   1.404   1.418   6.281 -1.1337  0.1981 -1.1322
 9354TIP3    H249478   1.411   1.316   6.169  0.2813 -0.5395 -0.4002
 9355TIP3   OH249479   2.728   2.648   1.275  0.4626 -0.3849  1.0659
 9355TIP3    H149480   2.702   2.625   1.364 -1.4902  3.0849  1.5973
 9355TIP3    H249481   2.701   2.740   1.266  1.0805 -0.4366 -2.9441
 9356TIP3   OH249482   3.199   0.544   5.257 -0.5113  0.5338 -0.1001
 9356TIP3    H149483   3.263   0.491   5.209  1.2677 -0.9003  3.4862
 9356TIP3    H249484   3.236   0.632   5.258  0.1415  0.2606 -0.1412
 9357TIP3   OH249485   3.284   0.633   0.303  0.4446  0.1036 -0.4395
 9357TIP3    H149486   3.244   0.558   0.347  0.9059  1.4942  2.6364
 9357TIP3    H249487   3.375   0.632   0.333  0.8114  1.1089 -1.4638
 9358TIP3   OH249488   1.583   1.745  14.462  0.4334  0.3160 -0.3428
 9358TIP3    H149489   1.650   1.737  14.394 -1.2296  1.1021 -2.1843
 9358TIP3    H249490   1.604   1.826  14.508  1.4810 -0.1308 -0.0216
 9359TIP3   OH249491   5.022   4.936   1.043 -0.7009  0.2356 -0.3491
 9359TIP3    H149492   5.114   4.916   1.026 -0.6961  0.1744 -0.2503
 9359TIP3    H249493   4.973   4.871   0.993 -0.6754 -0.8327  0.9810
 9360TIP3   OH249494   3.964   1.582  12.118 -0.7379  0.1176  0.2949
 9360TIP3    H149495   3.887   1.549  12.165 -1.1194  1.5662  0.7456
 9360TIP3    H249496   4.028   1.598  12.188 -0.3736 -0.1553  0.0256
 9361TIP3   OH249497   3.345   6.311   0.703  0.7622 -0.1481  0.4416
 9361TIP3    H149498   3.383   6.241   0.650  1.5822  0.0109  0.8022
 9361TIP3    H249499   3.420   6.367   0.725 -0.0537  1.5888 -0.9325
 9362TIP3   OH249500   4.693   1.370  11.304  0.1771  0.1475  0.1559
 9362TIP3    H149501   4.600   1.393  11.295 -0.1535 -1.3051 -0.5091
 9362TIP3    H249502   4.711   1.313  11.229  1.7469  0.7652  0.0265
 9363TIP3   OH249503   2.392   5.308   2.182 -0.3576 -0.2507 -0.4743
 9363TIP3    H149504   2.352   5.373   2.240  0.0376  0.3035 -0.8037
 9363TIP3    H249505   2.464   5.271   2.234 -0.2738 -0.0651 -0.4556
 9364TIP3   OH249506   2.318   0.146  10.632  0.4295  0.0621 -0.5738
 9364TIP3    H149507   2.241   0.191  10.666  1.1153  0.1969  0.8793
 9364TIP3    H249508   2.392   0.200  10.659  1.0775 -0.3604 -1.4486
 9365TIP3   OH249509   2.642   6.619  13.973  0.4652  0.1740 -0.4733
 9365TIP3    H149510   2.597   6.541  14.005  1.8576  0.2367  1.8986
 9365TIP3    H249511   2.690   6.590  13.896 -1.7259 -0.4048 -1.7281
 9366TIP3   OH249512   3.250   2.544   2.590 -0.7668 -0.2061 -0.0168
 9366TIP3    H149513   3.213   2.526   2.504 -1.1341 -0.7768  0.2453
 9366TIP3    H249514   3.322   2.481   2.599 -0.1494  0.4532 -0.2580
 9367TIP3   OH249515   1.067   5.478  14.620  1.1904 -0.3357  0.0373
 9367TIP3    H149516   1.113   5.514  14.696  1.8490  1.4041 -1.1128
 9367TIP3    H249517   1.077   5.545  14.552 -3.0016  0.1905 -0.3415
 9368TIP3   OH249518   1.255   3.464   0.118 -0.1054 -0.2561  0.0886
 9368TIP3    H149519   1.239   3.377   0.081 -1.4816  0.2216 -0.5089
 9368TIP3    H249520   1.168   3.503   0.126  0.4577  0.9456  0.6845
 9369TIP3   OH249521   0.493   0.215   4.471 -0.5172 -0.4646 -0.0520
 9369TIP3    H149522   0.528   0.294   4.512 -1.0765 -0.6379  0.7982
 9369TIP3    H249523   0.525   0.218   4.381  0.0909  0.3400  0.1797
 9370TIP3   OH249524   5.930   1.218   2.304  0.5615  0.1037  0.1203
 9370TIP3    H149525   5.974   1.220   2.389 -1.5671 -2.7985  1.4629
 9370TIP3    H249526   5.867   1.289   2.307  1.0089  0.4860  0.6341
 9371TIP3   OH249527   0.065   1.777  14.454  0.0345 -0.1268 -0.0941
 9371TIP3    H149528   0.151   1.813  14.472  1.3585 -3.1012  0.0999
 9371TIP3    H249529   0.080   1.712  14.385 -1.5777 -2.3834  1.5356
 9372TIP3   OH249530   6.076   1.174  12.243  0.1546 -0.1650  0.2435
 9372TIP3    H149531   6.085   1.176  12.339 -0.7478  0.9597  0.3346
 9372TIP3    H249532   6.100   1.263  12.215  1.1338 -0.6947 -0.6626
 9373TIP3   OH249533   2.066   3.348   3.114  0.0711 -0.6103 -0.4090
 9373TIP3    H149534   2.100   3.421   3.062 -4.3310  2.0422 -0.0657
 9373TIP3    H249535   2.088   3.371   3.204  0.5292 -0.8485 -0.4582
 9374TIP3   OH249536   5.248   0.288  14.212  0.6600 -0.0583  0.1965
 9374TIP3    H149537   5.181   0.272  14.146  0.2336  0.2605  0.5426
 9374TIP3    H249538   5.330   0.295  14.163  0.5870 -1.3305 -0.1526
 9375TIP3   OH249539   1.182   6.088   2.864  0.5960  0.0972 -0.2538
 9375TIP3    H149540   1.265   6.067   2.822 -0.2763  1.2085 -2.7563
 9375TIP3    H249541   1.169   6.181   2.845 -2.1167 -0.4805 -1.7295
 9376TIP3   OH249542   6.164   1.534   2.462  0.0271  0.5465  0.3739
 9376TIP3    H149543   6.218   1.559   2.387 -0.5198  0.3284 -0.0998
 9376TIP3    H249544   6.195   1.447   2.486  0.7689  0.9494  0.9407
 9377TIP3   OH249545   1.544   4.590   0.291  0.0145  0.1890 -0.1614
 9377TIP3    H149546   1.478   4.527   0.322  1.1809 -1.8130 -1.5114
 9377TIP3    H249547   1.581   4.627   0.371 -0.7169 -0.8367  0.6814
 9378TIP3   OH249548   0.467   6.196  12.818 -0.0553  0.3203 -0.1085
 9378TIP3    H149549   0.561   6.190  12.796 -0.2672 -1.9114 -0.5844
 9378TIP3    H249550   0.430   6.248  12.746  0.5509 -0.2442 -0.8497
 9379TIP3   OH249551   3.626   1.377   3.976  0.5277 -0.2319 -0.2728
 9379TIP3    H149552   3.605   1.297   3.928  0.4000  0.1273 -0.8176
 9379TIP3    H249553   3.592   1.360   4.064  0.2830 -0.6833 -0.4474
 9380TIP3   OH249554   4.701   1.415   0.470 -0.3561 -0.1609 -0.6878
 9380TIP3    H149555   4.708   1.493   0.414 -0.0793 -0.1863 -0.6859
 9380TIP3    H249556   4.621   1.430   0.521 -0.1983  0.2143 -0.5456
 9381TIP3   OH249557   0.426   4.002   4.921  0.4568 -0.1361 -0.2917
 9381TIP3    H149558   0.433   4.067   4.990  1.6771  0.7353 -1.1916
 9381TIP3    H249559   0.376   4.045   4.851 -1.2047 -1.1777  0.1924
 9382TIP3   OH249560   1.873   1.814   1.929 -0.1895 -0.1348  0.2861
 9382TIP3    H149561   1.837   1.734   1.892  1.5872 -0.9258  0.1410
 9382TIP3    H249562   1.882   1.795   2.023 -0.3307  0.1202  0.3516
 9383TIP3   OH249563   0.451   2.986   6.348 -0.1330 -0.2658  0.2479
 9383TIP3    H149564   0.400   3.065   6.330 -0.3535 -0.9226 -2.4562
 9383TIP3    H249565   0.535   3.018   6.380 -0.7856  0.9783  0.7733
 9384TIP3   OH249566   3.019   0.643   2.873 -0.1910 -0.3423  0.1832
 9384TIP3    H149567   2.954   0.692   2.923 -0.5152 -1.2635  0.6808
 9384TIP3    H249568   3.101   0.689   2.889 -0.2046 -0.8351  1.9215
 9385TIP3   OH249569   4.765   0.418  13.834 -0.2253  0.1374 -0.7054
 9385TIP3    H149570   4.751   0.371  13.752 -0.9848  1.5389 -1.4039
 9385TIP3    H249571   4.701   0.380  13.895  0.8105 -1.3936 -0.5044
 9386TIP3   OH249572   4.739   2.014   1.435  0.3807 -0.7015  0.4403
 9386TIP3    H149573   4.648   2.041   1.449  0.3330 -0.4113 -0.3866
 9386TIP3    H249574   4.791   2.080   1.480  0.2223  0.0491 -0.4609
 9387TIP3   OH249575   0.115   0.215   0.759 -0.2147  0.2592  0.2533
 9387TIP3    H149576   0.127   0.199   0.665  0.3514  0.9621  0.1985
 9387TIP3    H249577   0.030   0.259   0.765  0.0709  0.8610 -0.0146
 9388TIP3   OH249578   0.831   6.068  15.074  0.2472 -0.1182  0.2384
 9388TIP3    H149579   0.844   5.974  15.085 -1.6119 -0.4241  0.1874
 9388TIP3    H249580   0.749   6.087  15.120  0.3718  1.3930 -0.1040
 9389TIP3   OH249581   4.452   2.539   3.995 -0.2354  0.1223 -0.2469
 9389TIP3    H149582   4.475   2.628   3.971 -0.7096  0.4976  0.6610
 9389TIP3    H249583   4.363   2.528   3.961  0.2369 -0.4200 -1.3869
 9390TIP3   OH249584   1.329   3.544   5.898  0.5610 -0.3740  0.1490
 9390TIP3    H149585   1.278   3.608   5.848 -0.6381 -1.7407 -0.4436
 9390TIP3    H249586   1.288   3.545   5.985  1.3254  0.5187  0.5102
 9391TIP3   OH249587   3.800   6.247   4.618 -0.2661 -0.2426 -0.4023
 9391TIP3    H149588   3.867   6.315   4.607  0.1668 -0.8963 -2.0917
 9391TIP3    H249589   3.792   6.238   4.713  0.0098  1.8042 -0.1226
 9392TIP3   OH249590   2.649   4.080   2.332  0.4339  0.1438  0.1058
 9392TIP3    H149591   2.606   4.003   2.296 -0.2207 -0.4791  2.0935
 9392TIP3    H249592   2.716   4.046   2.391  1.7008  1.1124 -0.7350
 9393TIP3   OH249593   6.304   0.395  13.807  0.0325  0.1074  0.5756
 9393TIP3    H149594   6.292   0.395  13.712  0.7370  2.0715  0.4409
 9393TIP3    H249595   6.386   0.348  13.821  0.2980  0.4304  0.1404
 9394TIP3   OH249596   2.490   1.448  16.470  0.2105  0.0858 -0.2990
 9394TIP3    H149597   2.570   1.485  16.509  1.0332 -1.5394 -0.3568
 9394TIP3    H249598   2.522   1.391  16.400 -1.0330 -0.3619 -0.5227
 9395TIP3   OH249599   2.691   2.526   5.903 -0.2935 -0.7341  0.2030
 9395TIP3    H149600   2.756   2.480   5.850 -0.7127 -0.9671 -0.1113
 9395TIP3    H249601   2.640   2.577   5.840  0.1763  0.1814  0.5451
 9396TIP3   OH249602   5.012   2.037  13.997  0.1065 -0.3853  0.0682
 9396TIP3    H149603   4.960   2.051  13.917 -0.9548  1.4307  1.0166
 9396TIP3    H249604   5.102   2.050  13.969 -0.1181 -1.1144 -1.0986
 9397TIP3   OH249605   6.526   3.540   2.324  0.3746  0.0076 -0.7195
 9397TIP3    H149606   6.453   3.602   2.313 -1.3539 -1.3141  2.0609
 9397TIP3    H249607   6.570   3.569   2.404  2.9544  0.6875 -2.2670
 9398TIP3   OH249608   4.238   3.895  16.987 -0.6198  0.5484 -0.0583
 9398TIP3    H149609   4.148   3.878  16.958 -0.9173  1.3425  0.3779
 9398TIP3    H249610   4.250   3.989  16.976 -0.6172  0.8317  2.0047
 9399TIP3   OH249611   3.685   4.963   3.534  0.2674 -0.3300 -0.2240
 9399TIP3    H149612   3.775   4.950   3.564 -0.1603 -1.4476  0.6552
 9399TIP3    H249613   3.642   4.879   3.550  0.1609 -1.3862 -4.8043
 9400TIP3   OH249614   0.045   4.847  15.175  0.2630  0.7095 -0.3230
 9400TIP3    H149615   0.059   4.940  15.191 -0.0372  0.8192 -0.6938
 9400TIP3    H249616   0.018   4.812  15.260  3.2296  0.3699  0.5965
 9401TIP3   OH249617   3.316   6.466  11.040 -0.0899 -0.1202  0.4047
 9401TIP3    H149618   3.249   6.453  11.108 -0.1193  0.1818  0.4361
 9401TIP3    H249619   3.354   6.552  11.060 -2.2535  1.4757 -1.7819
 9402TIP3   OH249620   3.231   1.945  11.058  0.5641  0.3429  0.8180
 9402TIP3    H149621   3.176   2.023  11.050  0.1747  0.0483  0.5969
 9402TIP3    H249622   3.302   1.960  10.995  0.8157  0.7877  1.2059
 9403TIP3   OH249623   5.587   4.789   3.767 -0.0097  0.6366 -0.3201
 9403TIP3    H149624   5.534   4.746   3.835 -1.6275 -0.1824 -2.0309
 9403TIP3    H249625   5.528   4.852   3.726  0.0204 -0.8178 -2.7867
 9404TIP3   OH249626   5.111   2.263   2.273 -0.1324  1.0079 -0.3875
 9404TIP3    H149627   5.038   2.237   2.217 -0.2624 -0.8145  0.5404
 9404TIP3    H249628   5.113   2.196   2.342  1.0710  2.2206  0.8222
 9405TIP3   OH249629   6.123   6.704   5.973  0.0012  0.8406  0.2325
 9405TIP3    H149630   6.106   6.760   6.049 -0.0145 -0.1443  0.9699
 9405TIP3    H249631   6.177   6.633   6.007 -2.6470 -1.3990  0.0890
 9406TIP3   OH249632   6.563   0.543  12.779 -0.5154 -1.0116 -0.3967
 9406TIP3    H149633   6.647   0.560  12.738 -0.7281 -1.2816 -0.9533
 9406TIP3    H249634   6.579   0.468  12.836  0.3060  0.6600  1.6924
 9407TIP3   OH249635   3.928   0.609  13.476 -0.1007 -0.0459  0.2602
 9407TIP3    H149636   3.997   0.673  13.489 -1.6432  1.7350  0.0820
 9407TIP3    H249637   3.879   0.608  13.558  0.3956 -1.6694  0.5729
 9408TIP3   OH249638   6.256   1.856  14.868 -0.0927  0.1856  0.2692
 9408TIP3    H149639   6.321   1.924  14.850 -0.7599  0.3638 -1.7552
 9408TIP3    H249640   6.173   1.903  14.877 -0.0582 -0.0756  2.4138
 9409TIP3   OH249641   4.049   1.646  16.699 -0.3376 -0.5911  0.2796
 9409TIP3    H149642   4.129   1.697  16.705 -0.0786 -0.8148 -1.0546
 9409TIP3    H249643   4.033   1.616  16.789  2.2094 -2.2313  0.2963
 9410TIP3   OH249644   2.626   3.376   2.350  0.1184  0.0915  0.3628
 9410TIP3    H149645   2.660   3.337   2.270  1.1670 -0.3681  0.9964
 9410TIP3    H249646   2.570   3.309   2.388  0.9761 -0.3712  0.8510
 9411TIP3   OH249647   5.413   6.351  14.213 -0.0455  0.6275  0.1417
 9411TIP3    H149648   5.492   6.304  14.236  0.0243  0.1735 -0.9590
 9411TIP3    H249649   5.431   6.442  14.237  0.5529  0.4140  0.5054
 9412TIP3   OH249650   4.851   2.095  13.673  0.0530  0.4452 -0.1353
 9412TIP3    H149651   4.880   2.184  13.693 -1.3146  0.7310  0.7305
 9412TIP3    H249652   4.932   2.043  13.670  0.8432  1.6535 -0.3823
 9413TIP3   OH249653   2.177   0.745  13.304  0.0520  0.0426  0.0409
 9413TIP3    H149654   2.202   0.766  13.214  0.3101 -1.2752 -0.2164
 9413TIP3    H249655   2.189   0.827  13.352  1.5563  0.3459 -0.7743
 9414TIP3   OH249656   6.476   3.405   2.924  0.1069  0.1618 -0.3660
 9414TIP3    H149657   6.447   3.449   2.845  1.3071 -0.6755 -1.3166
 9414TIP3    H249658   6.402   3.349   2.949 -0.6932  1.2449 -0.2402
 9415TIP3   OH249659   4.376   5.539   0.189  0.6570 -0.0328  0.6927
 9415TIP3    H149660   4.387   5.575   0.277 -0.2272  2.2805 -0.0906
 9415TIP3    H249661   4.464   5.510   0.164  0.9934 -0.3577  2.1663
 9416TIP3   OH249662   0.502   4.444  14.232 -0.2371  0.1108  0.0812
 9416TIP3    H149663   0.561   4.391  14.177 -1.2364 -1.5674  0.5501
 9416TIP3    H249664   0.537   4.532  14.226  1.6593 -0.6271 -0.5697
 9417TIP3   OH249665   0.828   1.807  11.264  0.1003 -0.3448  1.0591
 9417TIP3    H149666   0.777   1.886  11.278  1.3326  0.6003  0.3562
 9417TIP3    H249667   0.823   1.790  11.170 -0.2327 -1.1638  1.2120
 9418TIP3   OH249668   3.588   6.133  15.272 -0.6289  0.2099 -0.4918
 9418TIP3    H149669   3.639   6.212  15.251 -0.7241  0.2428 -0.5978
 9418TIP3    H249670   3.639   6.062  15.235 -0.4427  0.2027 -0.2270
 9419TIP3   OH249671   2.704   5.488   4.741 -0.2556 -0.1681  0.4295
 9419TIP3    H149672   2.718   5.449   4.654  1.5765  0.9396  0.1802
 9419TIP3    H249673   2.673   5.415   4.795 -5.0400 -0.2085 -1.9003
 9420TIP3   OH249674   5.095   2.291   2.857 -0.2123 -0.3815  0.0001
 9420TIP3    H149675   5.084   2.326   2.946 -0.5902  2.0941 -0.9392
 9420TIP3    H249676   5.186   2.264   2.853  0.7340  2.4622  0.2336
 9421TIP3   OH249677   3.387   5.969   0.260  0.9093 -0.0797  0.4227
 9421TIP3    H149678   3.474   5.990   0.293  1.8680 -1.4094 -1.1024
 9421TIP3    H249679   3.391   5.991   0.167 -0.1577 -0.7804  0.1957
 9422TIP3   OH249680   4.431   0.172   5.447 -0.4843 -0.0210  0.0569
 9422TIP3    H149681   4.402   0.083   5.465  0.0082 -0.0732  0.6323
 9422TIP3    H249682   4.418   0.183   5.352 -2.3393 -0.0320  0.2703
 9423TIP3   OH249683   1.716   5.452  15.843  0.8806  0.3481 -0.6341
 9423TIP3    H149684   1.701   5.541  15.812  2.9583 -0.2001 -3.7561
 9423TIP3    H249685   1.666   5.397  15.783  4.6581 -0.7593 -3.1409
 9424TIP3   OH249686   1.681   0.803  16.930  0.2457 -0.1229  0.3642
 9424TIP3    H149687   1.712   0.869  16.991  1.9321 -0.2380 -0.3271
 9424TIP3    H249688   1.760   0.758  16.899 -0.7718 -1.9543  0.2263
 9425TIP3   OH249689   6.160   6.725  13.808 -0.7517  0.6064  0.2359
 9425TIP3    H149690   6.126   6.812  13.786 -0.1229  0.8587  0.2359
 9425TIP3    H249691   6.212   6.699  13.732 -1.4707 -0.0650 -0.0396
 9426TIP3   OH249692   2.075   6.611   1.229  0.1130 -0.0454 -0.3568
 9426TIP3    H149693   2.071   6.706   1.217  0.4871  0.0111 -0.0590
 9426TIP3    H249694   2.141   6.599   1.297  2.0234 -0.6499 -2.2069
 9427TIP3   OH249695   2.011   3.800   3.289 -0.0254 -0.4049 -0.0894
 9427TIP3    H149696   2.051   3.818   3.204 -1.7176  2.3253 -0.4179
 9427TIP3    H249697   1.992   3.887   3.325  1.1250 -1.4265  3.3790
 9428TIP3   OH249698   6.788   6.067  13.820  0.7835 -0.4121  0.4987
 9428TIP3    H149699   6.871   6.112  13.803  0.1511  1.0982  1.2612
 9428TIP3    H249700   6.758   6.102  13.904 -1.3701  0.2137 -0.4610
 9429TIP3   OH249701   5.927   1.231   1.378  0.1700 -0.6293  0.0381
 9429TIP3    H149702   5.979   1.159   1.413  0.9174  0.1414  0.5583
 9429TIP3    H249703   5.865   1.189   1.319  0.0876 -1.7754  0.8991
 9430TIP3   OH249704   1.018   4.506   2.616  0.4171 -0.1098 -0.0761
 9430TIP3    H149705   0.941   4.510   2.674  0.8614  0.5637  0.4836
 9430TIP3    H249706   1.025   4.413   2.593  0.0209 -0.3394  0.6759
 9431TIP3   OH249707   5.747   4.270   1.508  0.4746 -0.0568  0.1264
 9431TIP3    H149708   5.825   4.215   1.518 -0.0994 -0.9436 -0.1857
 9431TIP3    H249709   5.688   4.219   1.453  0.0789  1.0510 -0.5138
 9432TIP3   OH249710   1.508   3.140  13.453 -0.4066 -0.5150  0.3266
 9432TIP3    H149711   1.529   3.046  13.453  0.1120 -0.4067  0.9085
 9432TIP3    H249712   1.523   3.168  13.543 -0.3012  0.1821  0.1002
 9433TIP3   OH249713   1.426   4.677   2.266 -0.0816 -0.5491 -0.3931
 9433TIP3    H149714   1.424   4.754   2.323 -3.1693 -0.9878  0.2859
 9433TIP3    H249715   1.517   4.649   2.267  0.7967  1.9869  0.8137
 9434TIP3   OH249716   2.347   2.345  15.162 -0.1541  0.4924  0.5361
 9434TIP3    H149717   2.308   2.408  15.101 -1.3389  0.5475  1.3036
 9434TIP3    H249718   2.441   2.355  15.151 -0.3484  0.8389 -0.9196
 9435TIP3   OH249719   4.295   5.023   2.387 -0.5488 -0.2935 -0.0556
 9435TIP3    H149720   4.312   5.096   2.446 -2.1318 -0.6338  0.8874
 9435TIP3    H249721   4.320   4.945   2.436 -2.4470 -0.6261  0.4839
 9436TIP3   OH249722   3.678   3.542  11.295  0.5042  0.1324  0.5896
 9436TIP3    H149723   3.601   3.517  11.243 -2.3352  1.2149  3.8808
 9436TIP3    H249724   3.686   3.636  11.282  0.7073  0.1609  0.9121
 9437TIP3   OH249725   4.496   3.429  12.708  0.0912 -0.0528  0.2270
 9437TIP3    H149726   4.402   3.423  12.689  0.3666 -0.0803 -1.2229
 9437TIP3    H249727   4.501   3.428  12.804 -1.4188  0.4850  0.3433
 9438TIP3   OH249728   5.455   6.659  14.243 -0.2897  0.1172  0.3105
 9438TIP3    H149729   5.453   6.753  14.261 -2.5491  0.3620 -0.8705
 9438TIP3    H249730   5.435   6.652  14.150  2.7725 -1.4721 -0.3704
 9439TIP3   OH249731   4.588   6.503   2.524  0.5275  0.2279  0.2921
 9439TIP3    H149732   4.529   6.546   2.586 -1.1903  2.4041 -2.5808
 9439TIP3    H249733   4.662   6.563   2.516 -0.2447  1.0375 -1.1932
 9440TIP3   OH249734   0.438   5.113  15.442 -0.3666  0.1759  0.1057
 9440TIP3    H149735   0.513   5.086  15.494  1.2711  0.5165 -1.9421
 9440TIP3    H249736   0.365   5.117  15.504  0.9903 -1.4793  1.9011
 9441TIP3   OH249737   5.766   0.119  15.238  0.4082  0.1310  0.0804
 9441TIP3    H149738   5.683   0.095  15.197 -1.4615 -1.5236  4.2439
 9441TIP3    H249739   5.813   0.036  15.247  2.2318  0.9283 -1.4238
 9442TIP3   OH249740   0.399   3.290   0.426 -0.3197 -0.2979  0.2132
 9442TIP3    H149741   0.427   3.199   0.427 -1.7890 -0.7955 -1.1573
 9442TIP3    H249742   0.469   3.336   0.379 -0.2746 -0.9682 -0.3796
 9443TIP3   OH249743   4.061   2.958  11.086  0.3448  0.1829  0.0077
 9443TIP3    H149744   4.089   3.022  11.021  0.5867  0.1493  0.0765
 9443TIP3    H249745   4.081   2.999  11.171 -1.0323  0.7141  0.0989
 9444TIP3   OH249746   5.489   3.549  16.476  0.0060  0.3581  0.1859
 9444TIP3    H149747   5.572   3.580  16.440 -0.0613 -1.0845 -1.3412
 9444TIP3    H249748   5.428   3.621  16.460  0.5649  0.7275 -0.3237
 9445TIP3   OH249749   5.522   0.612   0.066 -0.2138 -0.5366 -0.5707
 9445TIP3    H149750   5.445   0.662   0.092 -2.2479 -3.7554  0.1783
 9445TIP3    H249751   5.538   0.638  -0.025 -1.8727  0.6052 -0.5777
 9446TIP3   OH249752   5.543   5.292  11.361  0.1512  0.3666  0.7169
 9446TIP3    H149753   5.477   5.249  11.416  0.1545 -0.1019  0.3609
 9446TIP3    H249754   5.541   5.244  11.279  1.8397 -0.5335  1.1365
 9447TIP3   OH249755   2.633   5.379   3.631 -0.6143 -0.3783 -0.3436
 9447TIP3    H149756   2.553   5.369   3.681  0.5506  0.1774  1.7506
 9447TIP3    H249757   2.605   5.414   3.547 -2.5873 -0.6505  0.1632
 9448TIP3   OH249758   0.098   2.427  15.884 -0.4538 -0.4401  0.1930
 9448TIP3    H149759   0.122   2.518  15.898 -2.1591  0.1917 -0.6668
 9448TIP3    H249760   0.148   2.400  15.807 -0.4144 -0.0217  0.0701
 9449TIP3   OH249761   4.737   0.381  16.049  0.2917  0.0643 -0.1020
 9449TIP3    H149762   4.744   0.292  16.083 -0.4699 -0.6056 -1.6145
 9449TIP3    H249763   4.643   0.398  16.044  0.4192  1.4398  1.2995
 9450TIP3   OH249764   3.047   6.780   5.615  0.4020  0.6654  0.8539
 9450TIP3    H149765   3.056   6.863   5.567 -1.3485 -0.1329 -0.9995
 9450TIP3    H249766   2.979   6.798   5.680 -0.7592  0.4545 -0.2533
 9451TIP3   OH249767   4.184   4.539   4.247  0.3081  0.8777 -0.3228
 9451TIP3    H149768   4.195   4.458   4.197 -1.1196  0.2485  0.3158
 9451TIP3    H249769   4.097   4.531   4.285  1.1863  1.5000  1.9668
 9452TIP3   OH249770   0.409   5.109   4.768  0.2368 -0.0681  0.7684
 9452TIP3    H149771   0.423   5.014   4.764 -0.7896 -0.2174  0.3427
 9452TIP3    H249772   0.329   5.123   4.717 -1.4711  0.6077  3.3959
 9453TIP3   OH249773   1.909   6.338  11.040 -0.0031 -0.6468  0.0548
 9453TIP3    H149774   1.882   6.430  11.047 -0.8121 -0.8916  0.2465
 9453TIP3    H249775   1.869   6.307  10.959 -1.1340 -1.2740  0.8171
 9454TIP3   OH249776   2.855   4.100  12.389 -0.0214 -0.7513  0.0226
 9454TIP3    H149777   2.796   4.171  12.415  0.8434  0.3940 -1.0059
 9454TIP3    H249778   2.925   4.144  12.340  1.2770 -2.1488  0.5269
 9455TIP3   OH249779   1.462   0.575  12.071 -0.0454  0.0999 -0.0508
 9455TIP3    H149780   1.471   0.545  12.161  0.4046  0.7659  0.1285
 9455TIP3    H249781   1.508   0.509  12.019 -0.9294 -0.6800  0.1176
 9456TIP3   OH249782   1.304   4.174  12.534  0.3960  0.2621  0.0338
 9456TIP3    H149783   1.253   4.253  12.521  1.0215  0.7209  0.2983
 9456TIP3    H249784   1.250   4.103  12.499  0.4344  0.9811 -1.5267
 9457TIP3   OH249785   0.993   2.395  16.873 -0.0374 -0.0449 -0.0624
 9457TIP3    H149786   0.910   2.438  16.891  1.3131  2.6767  0.0831
 9457TIP3    H249787   1.057   2.441  16.926  1.9783 -0.3954 -2.0179
 9458TIP3   OH249788   0.195   1.966  13.048 -0.0888  0.2375 -0.7044
 9458TIP3    H149789   0.273   1.922  13.082  2.0187  4.7011  1.1022
 9458TIP3    H249790   0.217   1.985  12.956  0.4020  0.2938 -0.5791
 9459TIP3   OH249791   2.453   6.138  15.099 -0.3603  0.1387  0.0110
 9459TIP3    H149792   2.490   6.181  15.022  1.8533  1.6616  1.8220
 9459TIP3    H249793   2.372   6.186  15.117 -0.3029  0.5065 -0.6789
 9460TIP3   OH249794   4.651   3.280  15.717  0.2051  0.0634 -0.5067
 9460TIP3    H149795   4.689   3.194  15.733 -1.3124 -0.7616 -1.0910
 9460TIP3    H249796   4.661   3.295  15.624  0.0331  0.2870 -0.4909
 9461TIP3   OH249797   3.501   4.144  10.924 -0.3240  0.3105 -0.0619
 9461TIP3    H149798   3.408   4.141  10.945 -0.5282 -0.3201 -0.9789
 9461TIP3    H249799   3.510   4.218  10.863  0.2034  1.9007  1.8132
 9462TIP3   OH249800   6.094   1.407   1.797 -0.2026 -0.0875  0.1861
 9462TIP3    H149801   6.115   1.429   1.888  0.1536  0.0710  0.0685
 9462TIP3    H249802   6.138   1.475   1.745  0.9728 -1.1036 -0.1913
 9463TIP3   OH249803   4.957   4.230  15.753  0.0008 -0.6999  0.5422
 9463TIP3    H149804   4.944   4.316  15.794  0.6104 -0.9650  1.3322
 9463TIP3    H249805   4.976   4.172  15.827  3.1931 -0.8070 -0.2311
 9464TIP3   OH249806   3.852   2.081  16.837 -0.2532 -0.7385 -0.2199
 9464TIP3    H149807   3.884   2.122  16.918  0.3503 -0.9937 -0.3289
 9464TIP3    H249808   3.828   1.992  16.863  0.3314 -0.9552 -0.4019
 9465TIP3   OH249809   4.046   0.478  14.953  0.7941  0.0293 -0.3814
 9465TIP3    H149810   4.046   0.528  14.871  1.1783 -0.4786 -0.6912
 9465TIP3    H249811   4.086   0.538  15.016 -1.1838  1.1604 -0.0837
 9466TIP3   OH249812   3.552   6.160  11.432 -0.2893  0.4067  0.0551
 9466TIP3    H149813   3.487   6.196  11.493 -1.2277 -0.7392 -0.2232
 9466TIP3    H249814   3.526   6.068  11.421  0.5354  0.2998 -1.1895
 9467TIP3   OH249815   3.517   3.906   2.246  0.0642 -0.5728  0.2088
 9467TIP3    H149816   3.503   4.001   2.251  0.3230 -0.4800 -0.5609
 9467TIP3    H249817   3.507   3.875   2.335 -0.0723  0.1778  0.4620
 9468TIP3   OH249818   3.863   6.367   5.284  0.8284 -0.5364  0.3367
 9468TIP3    H149819   3.788   6.400   5.234 -0.7938 -1.2201  2.1740
 9468TIP3    H249820   3.834   6.282   5.318  0.8620  0.8374  4.2922
 9469TIP3   OH249821   6.220   0.229   1.283  0.4476 -0.4256  0.1615
 9469TIP3    H149822   6.262   0.169   1.346 -0.7846 -0.0190  1.4320
 9469TIP3    H249823   6.129   0.199   1.278 -0.2981  1.4949  1.1043
 9470TIP3   OH249824   4.072   4.715   0.169 -1.0358 -0.6129 -0.2239
 9470TIP3    H149825   4.035   4.636   0.209 -3.5863  1.2825  1.5115
 9470TIP3    H249826   4.140   4.742   0.231 -3.8097  1.3540  2.2597
 9471TIP3   OH249827   4.685   2.957   0.490 -0.0830  1.0631 -0.3057
 9471TIP3    H149828   4.780   2.967   0.495  0.1626 -0.8130 -0.4585
 9471TIP3    H249829   4.672   2.882   0.432 -1.5231 -0.5677  1.9739
 9472TIP3   OH249830   3.627   1.084  11.575 -0.5861 -0.3025 -0.1637
 9472TIP3    H149831   3.604   1.097  11.483 -2.0469 -1.1790  0.0552
 9472TIP3    H249832   3.617   0.990  11.589 -0.2633 -0.1930  0.8658
 9473TIP3   OH249833   1.488   2.283   5.886 -0.4350 -0.1936 -0.2331
 9473TIP3    H149834   1.542   2.252   5.813 -1.3240  2.2703 -2.0851
 9473TIP3    H249835   1.549   2.292   5.959  0.8998 -0.8732 -1.2243
 9474TIP3   OH249836   2.637   6.616  15.333  0.1260  0.4806 -0.3781
 9474TIP3    H149837   2.627   6.547  15.398  0.2852  0.1422 -0.7066
 9474TIP3    H249838   2.709   6.669  15.365 -1.3993  1.8325  1.0378
 9475TIP3   OH249839   3.596   4.001   3.881  0.4211  0.2928  0.0377
 9475TIP3    H149840   3.549   3.966   3.806  0.5515 -0.3535  0.2540
 9475TIP3    H249841   3.544   4.076   3.909 -1.1150 -1.0494  0.9558
 9476TIP3   OH249842   1.648   2.031   2.061 -0.4124 -0.2930  0.4267
 9476TIP3    H149843   1.721   2.090   2.039 -1.0033  0.9262  1.5839
 9476TIP3    H249844   1.654   1.961   1.996  1.7944 -0.2494  0.4935
 9477TIP3   OH249845   4.117   2.218  16.310 -0.0572  0.2270  0.3377
 9477TIP3    H149846   4.121   2.248  16.400  1.6505  0.4339  0.2112
 9477TIP3    H249847   4.032   2.172  16.304  0.9373 -2.2013  2.8158
 9478TIP3   OH249848   4.149   6.469  12.741  0.1313 -0.2310 -0.3786
 9478TIP3    H149849   4.091   6.434  12.809  0.2693  1.5916  0.7313
 9478TIP3    H249850   4.237   6.454  12.775  0.2414 -0.4160 -0.7368
 9479TIP3   OH249851   3.490   0.992   0.259 -0.5870  0.6866 -0.2360
 9479TIP3    H149852   3.452   0.954   0.338 -0.4756  3.7057  1.3961
 9479TIP3    H249853   3.434   1.067   0.239  0.9724  1.6015 -1.3955
 9480TIP3   OH249854   2.376   3.596  16.438 -0.2772  0.2390  0.1157
 9480TIP3    H149855   2.308   3.647  16.393  0.3966  0.0023 -1.2195
 9480TIP3    H249856   2.389   3.642  16.522 -1.8094  0.4959  0.2422
 9481TIP3   OH249857   1.379   4.130   3.153 -0.3525  0.4040 -0.1183
 9481TIP3    H149858   1.402   4.189   3.081  0.7393  2.0777  1.5032
 9481TIP3    H249859   1.313   4.178   3.204 -0.6717 -0.4842  0.3319
 9482TIP3   OH249860   2.519   2.377  11.627  0.5262  0.2266 -0.1255
 9482TIP3    H149861   2.567   2.331  11.558 -0.7736  0.7583 -1.4420
 9482TIP3    H249862   2.552   2.467  11.622  1.0846  0.0682  0.5827
 9483TIP3   OH249863   3.384   4.794   4.743  0.3305  0.0193  0.1942
 9483TIP3    H149864   3.459   4.738   4.723  0.6179  0.0724  1.0725
 9483TIP3    H249865   3.404   4.831   4.829  1.1198  3.0558 -1.1616
 9484TIP3   OH249866   3.272   3.250   3.286  0.0802 -0.2606  0.0134
 9484TIP3    H149867   3.350   3.211   3.324 -0.1921 -0.1788  0.6747
 9484TIP3    H249868   3.222   3.176   3.252  0.2678 -0.3496 -0.0685
 9485TIP3   OH249869   4.536   5.303   6.764  0.0810 -0.0246 -0.7171
 9485TIP3    H149870   4.542   5.213   6.796 -0.6437  0.4093  0.7035
 9485TIP3    H249871   4.477   5.298   6.689 -1.4539 -0.4915  0.4689
 9486TIP3   OH249872   2.548   2.570  12.305  0.6599  0.4274  0.2565
 9486TIP3    H149873   2.543   2.551  12.212 -0.4848 -2.1326  0.7558
 9486TIP3    H249874   2.543   2.666  12.311  0.7021  0.6366 -2.2709
 9487TIP3   OH249875   4.250   2.087  14.829  0.3470 -0.3081  0.1445
 9487TIP3    H149876   4.252   2.025  14.757  0.6575 -0.7908  0.5661
 9487TIP3    H249877   4.157   2.099  14.848  0.1541  1.2720 -1.5630
 9488TIP3   OH249878   2.714   4.638  16.415  0.0046  0.4202 -0.2465
 9488TIP3    H149879   2.689   4.702  16.348  0.0880  1.3930  0.6228
 9488TIP3    H249880   2.803   4.613  16.391  0.2149  1.1283 -0.2364
 9489TIP3   OH249881   0.408   3.344   2.269  0.0188 -0.2113 -0.3589
 9489TIP3    H149882   0.418   3.429   2.225  1.3252 -0.1416  0.0258
 9489TIP3    H249883   0.325   3.351   2.316  0.0688  0.8241 -0.4048
 9490TIP3   OH249884   0.746   5.664  12.198  0.2884  0.2322  0.3049
 9490TIP3    H149885   0.720   5.750  12.231 -1.0526  0.3953 -1.0599
 9490TIP3    H249886   0.834   5.678  12.163  0.5217  0.7604  1.0593
 9491TIP3   OH249887   1.453   1.368  14.871 -0.0133 -0.4571  0.2139
 9491TIP3    H149888   1.500   1.312  14.810  0.5330  0.1085  0.0998
 9491TIP3    H249889   1.363   1.336  14.870  0.6551 -2.5539  1.6011
 9492TIP3   OH249890   4.323   2.748   3.806 -0.2162 -0.0404 -0.6254
 9492TIP3    H149891   4.372   2.800   3.743  0.6221 -2.0233 -1.7233
 9492TIP3    H249892   4.260   2.700   3.754 -1.2329  0.1378  0.3968
 9493TIP3   OH249893   5.586   4.513   3.103 -0.5291  0.2993 -0.7648
 9493TIP3    H149894   5.525   4.440   3.115  1.2188 -1.0088  0.8842
 9493TIP3    H249895   5.588   4.529   3.009  0.2165 -2.9426 -1.4140
 9494TIP3   OH249896   3.057   2.444   5.114 -0.3672 -0.1772  0.2183
 9494TIP3    H149897   3.016   2.511   5.059 -0.3817 -0.6412 -0.3449
 9494TIP3    H249898   3.134   2.417   5.065 -0.2232 -0.3923  0.5641
 9495TIP3   OH249899   2.629   4.833  12.387  0.0136 -1.1256  0.2041
 9495TIP3    H149900   2.629   4.803  12.296 -0.2704  1.0747 -0.5926
 9495TIP3    H249901   2.722   4.848  12.407  0.1366 -2.2667  0.5328
 9496TIP3   OH249902   3.204   6.539  11.300  0.0823 -0.3592  0.2441
 9496TIP3    H149903   3.226   6.482  11.373 -0.2875 -0.0764  0.5833
 9496TIP3    H249904   3.236   6.626  11.326  0.7621 -0.4296 -0.3249
 9497TIP3   OH249905   5.877   6.694  15.278  0.2149  0.1421  0.1541
 9497TIP3    H149906   5.945   6.666  15.216  0.2276  1.4486 -0.4436
 9497TIP3    H249907   5.921   6.692  15.363 -0.8687 -5.7678  1.0037
 9498TIP3   OH249908   3.711   6.428   4.458  0.1373 -0.0946 -0.6532
 9498TIP3    H149909   3.736   6.350   4.508  0.5814  0.9404  0.7821
 9498TIP3    H249910   3.785   6.442   4.398  1.2081  0.5811  0.7602
 9499TIP3   OH249911   5.028   4.040   1.714 -0.0768  0.0697  0.8853
 9499TIP3    H149912   5.011   4.132   1.735 -0.2642  0.0384  0.8742
 9499TIP3    H249913   4.950   3.994   1.744 -0.1397 -0.0390  0.5618
 9500TIP3   OH249914   1.529   2.338   3.067 -0.6161  0.5629 -0.1662
 9500TIP3    H149915   1.502   2.413   3.014  1.4489  0.8165 -0.9632
 9500TIP3    H249916   1.539   2.267   3.003 -0.4017  0.2248  0.2388
 9501TIP3   OH249917   3.907   4.028   5.413 -0.2103 -0.2006 -0.2049
 9501TIP3    H149918   3.900   4.005   5.320  0.0508 -1.3427  0.0395
 9501TIP3    H249919   3.823   4.002   5.450  0.2895 -1.3440  0.1815
 9502TIP3   OH249920   6.503   2.278  16.339  0.0959 -0.2290  0.0191
 9502TIP3    H149921   6.414   2.312  16.345  0.4922  0.8315  0.1702
 9502TIP3    H249922   6.523   2.248  16.428  0.2168  0.4036  0.2084
 9503TIP3   OH249923   1.536   0.680  16.688  0.1983 -0.6698 -0.6969
 9503TIP3    H149924   1.468   0.646  16.745 -0.6971  1.6638 -0.2764
 9503TIP3    H249925   1.596   0.727  16.746  0.0849  0.4851 -1.4815
 9504TIP3   OH249926   0.240   6.206  13.597  0.2608  0.0937  0.2789
 9504TIP3    H149927   0.224   6.113  13.579 -1.5337  0.4325 -0.1324
 9504TIP3    H249928   0.245   6.212  13.692  1.3941 -0.5411  0.2793
 9505TIP3   OH249929   0.302   3.246  15.139 -0.6645  0.3843  0.0554
 9505TIP3    H149930   0.242   3.313  15.106 -0.7393 -0.2160 -1.1057
 9505TIP3    H249931   0.251   3.165  15.138 -0.8733  0.4384  2.3787
 9506TIP3   OH249932   4.301   3.732   4.557 -0.1183 -0.4486  0.2805
 9506TIP3    H149933   4.297   3.825   4.538  3.7888 -0.3272 -0.7350
 9506TIP3    H249934   4.262   3.724   4.644 -1.0331  1.9767  0.1785
 9507TIP3   OH249935   2.468   5.209  16.095  0.1682  0.1754 -0.0071
 9507TIP3    H149936   2.472   5.186  16.002  0.7953  0.0087  0.0556
 9507TIP3    H249937   2.496   5.300  16.098 -0.6899  0.4523 -0.0709
 9508TIP3   OH249938   1.268   0.261   5.095  0.3489 -0.4158  0.0844
 9508TIP3    H149939   1.301   0.210   5.169 -1.0229  1.0125  1.7685
 9508TIP3    H249940   1.185   0.218   5.072  0.5194 -0.5426 -0.3080
 9509TIP3   OH249941   0.130   5.320  17.088  0.9641 -0.6551  0.2817
 9509TIP3    H149942   0.164   5.369  17.012 -1.0056 -2.8492 -2.2152
 9509TIP3    H249943   0.063   5.379  17.125  0.0637 -0.5238 -1.4056
 9510TIP3   OH249944   4.126   1.054   4.345 -0.0393  0.0412  0.6677
 9510TIP3    H149945   4.093   0.968   4.371  2.3252 -2.8689 -4.3657
 9510TIP3    H249946   4.061   1.087   4.283  0.9696 -0.1970 -0.5535
 9511TIP3   OH249947   5.848   6.005  14.895 -0.4729 -0.0342 -0.4348
 9511TIP3    H149948   5.905   6.082  14.887 -1.1449  0.5673  0.4595
 9511TIP3    H249949   5.901   5.933  14.861 -0.3375  1.0313 -2.7403
 9512TIP3   OH249950   5.475   0.861   5.896 -0.0508 -0.9370  0.6804
 9512TIP3    H149951   5.487   0.770   5.868 -1.4977 -1.2237  0.9238
 9512TIP3    H249952   5.538   0.911   5.842 -1.9244 -1.5948 -2.3544
 9513TIP3   OH249953   5.838   1.338   0.030 -0.1031 -0.3665 -0.3131
 9513TIP3    H149954   5.887   1.407   0.076 -2.3998  1.8063 -0.9144
 9513TIP3    H249955   5.859   1.351  -0.062 -1.0146 -0.0483 -0.4833
 9514TIP3   OH249956   5.618   2.007  14.533  0.1102  0.0362 -0.1484
 9514TIP3    H149957   5.608   2.092  14.575  0.9424  0.1305 -0.1313
 9514TIP3    H249958   5.664   1.953  14.598 -2.6359 -1.2413  0.8931
 9515TIP3   OH249959   4.630   1.143  15.156 -0.1854  0.6838 -0.0750
 9515TIP3    H149960   4.699   1.119  15.218 -2.0999 -1.8020  1.2890
 9515TIP3    H249961   4.660   1.226  15.118  2.4664  0.8429  2.0247
 9516TIP3   OH249962   4.466   1.586  15.687  0.1456 -0.6390  0.2816
 9516TIP3    H149963   4.508   1.581  15.773 -0.9563 -0.1870  0.8593
 9516TIP3    H249964   4.403   1.513  15.686  0.2759 -0.7531 -0.2210
 9517TIP3   OH249965   3.477   2.979   3.543 -0.1810  0.0625  0.8416
 9517TIP3    H149966   3.446   2.889   3.551 -1.8668  0.6983  1.9536
 9517TIP3    H249967   3.483   3.011   3.633 -1.7908  1.7328  0.4109
 9518TIP3   OH249968   0.754   0.864   3.686 -0.3639 -0.4641  0.0509
 9518TIP3    H149969   0.684   0.920   3.655  0.0754 -0.7336 -1.5039
 9518TIP3    H249970   0.787   0.820   3.608  1.7046 -0.1698  0.6874
 9519TIP3   OH249971   1.685   5.208   5.193  0.4820 -0.1278 -0.4911
 9519TIP3    H149972   1.728   5.176   5.115  0.7931  1.3650 -0.9617
 9519TIP3    H249973   1.756   5.226   5.255  0.5736  2.0046 -1.1454
 9520TIP3   OH249974   1.941   0.494  16.000  0.2830 -0.2199 -0.4071
 9520TIP3    H149975   1.964   0.476  15.909  1.5323  0.4262 -0.2331
 9520TIP3    H249976   2.022   0.523  16.041 -0.2346 -0.5929  0.9522
 9521TIP3   OH249977   5.844   3.609  15.173 -0.1750  0.3341 -0.3271
 9521TIP3    H149978   5.841   3.551  15.097  0.4651 -0.6986  0.4107
 9521TIP3    H249979   5.855   3.551  15.247 -0.4282  1.3530  0.5361
 9522TIP3   OH249980   4.749   6.727   3.069  0.0816  0.2285 -0.2452
 9522TIP3    H149981   4.698   6.796   3.027 -1.8075 -0.5639  0.6427
 9522TIP3    H249982   4.736   6.650   3.013  0.1922 -0.0157  0.0620
 9523TIP3   OH249983   1.503   2.614   5.367  0.0989 -1.2365 -0.2616
 9523TIP3    H149984   1.567   2.546   5.348  1.5515 -0.3650  1.2284
 9523TIP3    H249985   1.554   2.684   5.408 -1.5669  0.1703 -0.4660
 9524TIP3   OH249986   4.056   0.139  15.094 -0.1524 -0.0178 -0.3472
 9524TIP3    H149987   4.124   0.083  15.056  1.0777  1.6396 -0.7125
 9524TIP3    H249988   3.974   0.104  15.060  0.4669 -2.1718  0.2184
 9525TIP3   OH249989   4.907   3.504   4.121 -0.0375  0.1636  0.5507
 9525TIP3    H149990   4.960   3.497   4.201  0.3645  0.6338  0.3313
 9525TIP3    H249991   4.971   3.507   4.050 -0.3041  1.6829  0.3389
 9526TIP3   OH249992   2.365   0.859   0.120 -0.2598  0.1246  0.1057
 9526TIP3    H149993   2.349   0.812   0.202 -1.7229  0.5868  0.1163
 9526TIP3    H249994   2.310   0.813   0.055 -0.0433  0.5016 -0.3522
 9527TIP3   OH249995   2.420   0.872   1.408  0.1552 -0.0575 -0.1448
 9527TIP3    H149996   2.433   0.948   1.464 -1.7428  1.2035 -1.2897
 9527TIP3    H249997   2.351   0.821   1.452 -0.1263  0.0421 -0.4649
 9528TIP3   OH249998   4.044   5.207   2.833  0.1468  0.0804  0.6626
 9528TIP3    H149999   4.019   5.135   2.774  1.0000 -0.6142  1.1211
 9528TIP3    H250000   3.976   5.273   2.820 -0.1517 -0.4160 -0.4623
 9529TIP3   OH250001   5.113   3.899   5.052 -0.3556  0.2076  0.4241
 9529TIP3    H150002   5.093   3.984   5.012 -0.9246  0.0090  0.2917
 9529TIP3    H250003   5.205   3.883   5.028 -0.3702  0.5918  0.1056
 9530TIP3   OH250004   5.601   5.181   5.444  0.3579 -0.4699 -0.2792
 9530TIP3    H150005   5.622   5.088   5.452 -0.8994 -1.1365 -3.2751
 9530TIP3    H250006   5.677   5.226   5.481  0.8688 -2.6396  1.5230
 9531TIP3   OH250007   3.060   3.862  10.334 -0.4232  0.1098 -0.6375
 9531TIP3    H150008   3.118   3.836  10.406 -0.1614 -0.0502 -0.9078
 9531TIP3    H250009   2.973   3.833  10.362 -0.3386  0.1321 -0.3426
 9532TIP3   OH250010   6.093   2.268   5.308 -0.1896  0.2182 -0.4810
 9532TIP3    H150011   6.107   2.357   5.341 -0.2375  0.3610 -0.8431
 9532TIP3    H250012   6.006   2.245   5.338  0.2876 -0.1799  0.6681
 9533TIP3   OH250013   1.852   4.497   0.853 -0.4172  0.4007  0.3152
 9533TIP3    H150014   1.845   4.460   0.765  0.7537  1.1531 -0.1244
 9533TIP3    H250015   1.863   4.591   0.839  0.6515  0.4329  1.2133
 9534TIP3   OH250016   0.335   0.710  16.806 -0.0845  0.1300  0.2028
 9534TIP3    H150017   0.263   0.762  16.841  1.0572  0.8618  1.5783
 9534TIP3    H250018   0.292   0.642  16.753 -1.8432 -0.0498  1.7427
 9535TIP3   OH250019   4.869   4.840  16.725  0.3934 -0.2810 -0.5789
 9535TIP3    H150020   4.874   4.746  16.708  1.7897 -0.3761  0.2424
 9535TIP3    H250021   4.866   4.880  16.638 -1.6450 -1.1127 -0.9527
 9536TIP3   OH250022   2.982   6.174  11.074  0.5408  0.1483  0.2009
 9536TIP3    H150023   2.919   6.120  11.027  0.9505 -0.0784 -0.1020
 9536TIP3    H250024   2.929   6.235  11.125  0.0616 -1.2180  1.3729
 9537TIP3   OH250025   4.678   6.321   2.725  0.1109  0.7404  0.3212
 9537TIP3    H150026   4.663   6.382   2.653 -0.9060 -0.0450 -0.1611
 9537TIP3    H250027   4.766   6.286   2.710 -0.3100  0.1572 -0.8819
 9538TIP3   OH250028   5.618   0.862   5.611 -0.3758 -0.1246 -0.3300
 9538TIP3    H150029   5.674   0.826   5.542  0.4648 -1.4612  0.9858
 9538TIP3    H250030   5.677   0.914   5.665 -0.7180 -0.2542  0.1772
 9539TIP3   OH250031   5.096   0.598  14.738 -0.7562 -0.5301  0.1116
 9539TIP3    H150032   5.049   0.622  14.658 -0.6611 -0.2991  0.1250
 9539TIP3    H250033   5.041   0.531  14.778 -1.2294 -0.0533  0.2808
 9540TIP3   OH250034   0.680   6.736   3.046  0.6092 -0.7687  0.0926
 9540TIP3    H150035   0.657   6.828   3.035  1.4982 -0.3345  1.5174
 9540TIP3    H250036   0.762   6.726   2.997  0.7347 -0.6850  0.2827
 9541TIP3   OH250037   2.985   3.673   2.770  0.0280  0.2862  0.2500
 9541TIP3    H150038   2.934   3.595   2.748 -0.5212 -0.1686  2.8257
 9541TIP3    H250039   2.942   3.744   2.722 -0.0581 -0.8165 -1.3687
 9542TIP3   OH250040   5.002   3.692  15.047  0.2583  0.1517  0.1228
 9542TIP3    H150041   5.017   3.601  15.075 -0.0961  0.5767  1.8296
 9542TIP3    H250042   4.927   3.686  14.988  0.9514 -0.7936 -0.6856
 9543TIP3   OH250043   6.442   2.751   0.392 -0.1702 -0.1660 -0.0241
 9543TIP3    H150044   6.466   2.670   0.347  1.3195  0.1115  0.1967
 9543TIP3    H250045   6.521   2.775   0.441 -0.1464  1.9945 -0.9663
 9544TIP3   OH250046   4.821   5.555  13.475 -0.5569 -0.2936  0.2300
 9544TIP3    H150047   4.762   5.602  13.534  0.1622  0.7364  0.1450
 9544TIP3    H250048   4.765   5.530  13.401 -0.9987  0.2135  0.3835
 9545TIP3   OH250049   2.876   4.470   5.000  0.3700  0.6358 -0.6684
 9545TIP3    H150050   2.817   4.493   5.072  0.3051 -1.0503 -0.1333
 9545TIP3    H250051   2.820   4.472   4.922 -0.1446  0.1655 -0.3240
 9546TIP3   OH250052   2.721   3.293  15.057  0.1072  0.0181  0.6031
 9546TIP3    H150053   2.780   3.274  14.984  1.4205  1.0666  1.3652
 9546TIP3    H250054   2.634   3.272  15.022  0.7710 -0.2720 -0.9915
 9547TIP3   OH250055   6.334   5.675  13.729 -0.0962  0.1856  0.5904
 9547TIP3    H150056   6.428   5.681  13.710 -0.1895 -0.3738 -0.0742
 9547TIP3    H250057   6.327   5.704  13.820  0.4524  2.2428  0.0441
 9548TIP3   OH250058   3.595   0.809   1.139  0.3063 -0.3356 -0.6343
 9548TIP3    H150059   3.637   0.723   1.139  0.4604 -0.2844  0.6337
 9548TIP3    H250060   3.515   0.797   1.191  0.7141  0.4414  0.2113
 9549TIP3   OH250061   1.139   4.403  12.528  0.1910 -0.2010  0.4550
 9549TIP3    H150062   1.127   4.365  12.441 -1.4002  2.2551 -0.5138
 9549TIP3    H250063   1.051   4.429  12.556  0.6421 -0.9777  2.8828
 9550TIP3   OH250064   1.593   2.174  14.851 -0.1361 -0.0525  0.0971
 9550TIP3    H150065   1.550   2.254  14.881  0.7686  0.8831 -0.9914
 9550TIP3    H250066   1.664   2.160  14.913 -2.5878 -2.3182  2.6709
 9551TIP3   OH250067   4.769   1.993   4.900  0.3707  0.4631  0.5738
 9551TIP3    H150068   4.714   1.948   4.835 -0.2362  0.9269  0.7564
 9551TIP3    H250069   4.757   1.943   4.980  2.7193 -1.3603 -0.0937
 9552TIP3   OH250070   2.639   3.560   0.908 -0.4653  0.1054 -0.3374
 9552TIP3    H150071   2.618   3.560   0.815  0.0884  0.8504 -0.4652
 9552TIP3    H250072   2.559   3.590   0.951 -1.2931 -1.8412 -0.4209
 9553TIP3   OH250073   5.485   3.222   3.477  0.6967  0.2230 -0.3099
 9553TIP3    H150074   5.548   3.184   3.538  0.1275  1.1010  0.8617
 9553TIP3    H250075   5.400   3.209   3.520  0.2005  0.1763 -1.2790
 9554TIP3   OH250076   0.589   4.645   2.409 -0.2397 -0.0881  0.1151
 9554TIP3    H150077   0.552   4.564   2.445  0.4597 -0.5983 -0.2771
 9554TIP3    H250078   0.546   4.715   2.457 -0.8758 -0.6987  0.4472
 9555TIP3   OH250079   3.011   4.877  16.316 -0.0398 -0.4703  0.2672
 9555TIP3    H150080   2.961   4.888  16.234 -0.3841  1.7649  0.7105
 9555TIP3    H250081   3.102   4.884  16.289 -0.1692  0.9662  0.1180
 9556TIP3   OH250082   3.452   4.370  13.195  0.2945  0.3053 -0.0234
 9556TIP3    H150083   3.419   4.286  13.162  0.6084 -0.0166  0.4760
 9556TIP3    H250084   3.398   4.435  13.150 -0.4741 -0.1856  0.1507
 9557TIP3   OH250085   0.332   6.695  11.481 -0.6991 -0.5790 -0.1961
 9557TIP3    H150086   0.404   6.654  11.530 -0.1873  0.7741  0.2093
 9557TIP3    H250087   0.253   6.668  11.529 -0.3505 -0.8085  0.2552
 9558TIP3   OH250088   5.018   2.964  14.650  0.1484 -0.2645  0.1213
 9558TIP3    H150089   5.024   2.890  14.711  0.9385  0.3693  0.8449
 9558TIP3    H250090   4.930   2.999  14.664 -0.0056 -0.6886  0.2313
 9559TIP3   OH250091   2.283   0.602  15.627  0.0929 -0.6755 -0.5485
 9559TIP3    H150092   2.376   0.583  15.638 -0.2484 -1.3972  1.7064
 9559TIP3    H250093   2.258   0.555  15.548  1.8315  0.3977 -1.8068
 9560TIP3   OH250094   0.998   5.556  14.095 -0.3154 -0.0732 -0.2126
 9560TIP3    H150095   0.919   5.588  14.052  0.5464  0.7956 -1.2379
 9560TIP3    H250096   1.061   5.546  14.023  1.7659  3.1124  0.9637
 9561TIP3   OH250097   0.209   4.935  13.907  0.4595 -0.4730  0.3698
 9561TIP3    H150098   0.209   4.988  13.987 -0.4160  0.3195 -0.1354
 9561TIP3    H250099   0.147   4.865  13.924  0.4296 -0.4222  0.4674
 9562TIP3   OH250100   0.676   4.462   0.020 -0.6048 -0.7095  0.6600
 9562TIP3    H150101   0.622   4.445   0.097  0.4512  0.1110  1.6035
 9562TIP3    H250102   0.671   4.556   0.007 -0.1551 -0.7489  0.1704
 9563TIP3   OH250103   3.434   3.598   3.259  0.5460  0.2623  0.3365
 9563TIP3    H150104   3.410   3.675   3.310  0.4807  0.4150  0.0706
 9563TIP3    H250105   3.499   3.629   3.196  2.0485 -0.2813  1.5343
 9564TIP3   OH250106   1.865   5.053   4.708  0.2276  0.1048 -0.1227
 9564TIP3    H150107   1.885   4.960   4.701 -1.3947 -0.2876 -0.0603
 9564TIP3    H250108   1.944   5.098   4.679  1.5632 -1.2557  1.2460
 9565TIP3   OH250109   5.222   4.864  12.195  0.0572 -0.6762 -0.2203
 9565TIP3    H150110   5.135   4.900  12.209  1.2437  2.0904  0.6052
 9565TIP3    H250111   5.227   4.850  12.100 -0.4373  1.6716 -0.6580
 9566TIP3   OH250112   5.844   5.496   2.636  0.5572  0.2187 -0.3148
 9566TIP3    H150113   5.781   5.548   2.686 -0.2474 -2.2852  1.4176
 9566TIP3    H250114   5.793   5.458   2.565  0.1512 -1.4285  0.8131
 9567TIP3   OH250115   2.064   4.694  12.305 -0.0220 -0.3193 -0.1320
 9567TIP3    H150116   2.159   4.704  12.299 -0.1329  2.5158  1.5053
 9567TIP3    H250117   2.029   4.758  12.244 -0.9198 -0.9058 -0.2521
 9568TIP3   OH250118   5.773   6.450  15.539 -0.0833 -0.4364  0.5375
 9568TIP3    H150119   5.811   6.364  15.523  0.4321 -0.0549 -0.3300
 9568TIP3    H250120   5.680   6.439  15.518  0.4540 -0.0983 -2.3924
 9569TIP3   OH250121   0.013   3.897  12.563 -0.0792 -0.7665  0.1128
 9569TIP3    H150122   0.030   3.897  12.469  0.7701 -0.2606  0.2641
 9569TIP3    H250123   0.065   3.824  12.597  1.7552  0.6867  0.5533
 9570TIP3   OH250124   0.089   0.163   4.121  0.4559 -0.4445 -0.1082
 9570TIP3    H150125  -0.002   0.137   4.104  0.6870 -0.4462 -1.4232
 9570TIP3    H250126   0.142   0.098   4.075  1.1026  0.0431 -0.0656
 9571TIP3   OH250127   0.176   3.276  14.410  0.1189 -0.1622  0.0512
 9571TIP3    H150128   0.223   3.208  14.458 -0.8316 -0.6365  0.3326
 9571TIP3    H250129   0.129   3.230  14.341  0.7472  0.4127 -0.7821
 9572TIP3   OH250130   4.678   4.543   0.806 -0.3255  0.4508 -0.2702
 9572TIP3    H150131   4.688   4.476   0.739  0.1310  0.3922 -0.1432
 9572TIP3    H250132   4.585   4.566   0.802 -0.4057  0.0928 -0.5794
 9573TIP3   OH250133   5.453   5.279  16.335 -0.1705 -0.0082 -0.5772
 9573TIP3    H150134   5.388   5.340  16.301 -1.0062 -0.4002  0.2673
 9573TIP3    H250135   5.514   5.266  16.263 -1.2621  0.0546 -1.5447
 9574TIP3   OH250136   4.680   4.237  14.826 -0.7272 -0.0852  0.3182
 9574TIP3    H150137   4.693   4.146  14.853 -0.6563  0.1027  0.9344
 9574TIP3    H250138   4.677   4.286  14.908 -1.4017  0.3893  0.0156
 9575TIP3   OH250139   5.619   4.981  13.453 -0.3860 -0.4265 -0.1799
 9575TIP3    H150140   5.697   4.984  13.508 -0.8087 -0.5175  0.4501
 9575TIP3    H250141   5.610   5.069  13.419  0.7895 -0.7616 -1.4307
 9576TIP3   OH250142   4.795   5.943  14.280  0.4938 -0.3155 -0.4257
 9576TIP3    H150143   4.750   6.006  14.335 -2.2756 -1.9600 -0.6155
 9576TIP3    H250144   4.865   5.909  14.335  0.7984  1.4518  0.3451
 9577TIP3   OH250145   2.554   3.137  11.881 -0.1990 -0.4520  0.2261
 9577TIP3    H150146   2.512   3.199  11.821 -1.3586 -1.3680  0.0412
 9577TIP3    H250147   2.627   3.102  11.831  1.0191  1.3515  0.6375
 9578TIP3   OH250148   5.902   6.317  13.744  0.3377 -0.0954 -0.7529
 9578TIP3    H150149   5.849   6.382  13.697  0.0885 -0.2403 -0.6749
 9578TIP3    H250150   5.962   6.283  13.678 -0.6084 -0.9477 -1.2097
 9579TIP3   OH250151   3.633   2.820  12.814  0.4891 -0.4936 -0.0247
 9579TIP3    H150152   3.639   2.777  12.900 -2.0325 -1.3127 -0.1553
 9579TIP3    H250153   3.554   2.875  12.821 -0.5727 -1.6079 -2.1881
 9580TIP3   OH250154   0.607   0.301   4.040  0.2853 -0.1675 -0.5958
 9580TIP3    H150155   0.650   0.386   4.031 -0.3024  0.3311  0.8954
 9580TIP3    H250156   0.653   0.244   3.980  1.5143  0.9104 -0.7216
 9581TIP3   OH250157   5.363   6.216   0.242 -0.4981  0.2494 -0.0768
 9581TIP3    H150158   5.305   6.140   0.248 -1.0025  0.6440  0.1674
 9581TIP3    H250159   5.325   6.279   0.303 -0.4194  0.9151 -0.7135
 9582TIP3   OH250160   1.358   6.476  16.331 -0.2043  0.3368 -0.2656
 9582TIP3    H150161   1.332   6.566  16.353 -0.8360 -0.1363  1.0483
 9582TIP3    H250162   1.275   6.430  16.318  0.0121 -0.5346  1.1714
 9583TIP3   OH250163   3.166   3.519  12.474 -0.1978  0.0730 -0.4218
 9583TIP3    H150164   3.169   3.586  12.406 -1.6720 -2.0288 -2.7431
 9583TIP3    H250165   3.095   3.546  12.533  0.3058  1.3150 -0.3652
 9584TIP3   OH250166   2.472   0.780   4.236 -0.1241  0.5788  0.3637
 9584TIP3    H150167   2.559   0.739   4.229 -0.3602  0.2552 -1.1288
 9584TIP3    H250168   2.425   0.748   4.158 -1.1702  1.7003  0.5158
 9585TIP3   OH250169   5.245   2.611  10.195  0.0481  0.3523  0.2403
 9585TIP3    H150170   5.252   2.634  10.287  1.9574 -0.4804  0.3504
 9585TIP3    H250171   5.334   2.618  10.161 -0.3578 -0.7613 -1.1860
 9586TIP3   OH250172   3.228   3.985  10.795 -0.9776 -0.1369  0.3417
 9586TIP3    H150173   3.151   4.010  10.743 -1.4136  1.7511  1.7748
 9586TIP3    H250174   3.302   3.997  10.736 -1.6693 -0.8694 -0.7143
 9587TIP3   OH250175   0.234   6.781  14.587 -0.1563 -0.2518  0.3221
 9587TIP3    H150176   0.285   6.705  14.613 -0.0130 -0.0963  0.5033
 9587TIP3    H250177   0.193   6.811  14.668  1.1475  0.8770  0.6206
 9588TIP3   OH250178   3.578   5.526  13.270  0.3141  0.4443  0.5158
 9588TIP3    H150179   3.572   5.476  13.352  0.8866  1.8740  1.4817
 9588TIP3    H250180   3.672   5.532  13.252  0.1621 -0.6455 -0.7887
 9589TIP3   OH250181   3.665   2.365   0.244  0.1746  1.0289 -0.3085
 9589TIP3    H150182   3.602   2.400   0.180 -0.5113 -1.6136 -1.1980
 9589TIP3    H250183   3.717   2.302   0.194  1.4823  0.9004  1.1526
 9590TIP3   OH250184   6.504   2.888  10.827  0.0963  0.5822  0.3661
 9590TIP3    H150185   6.439   2.924  10.767 -0.6654 -1.5537 -0.1801
 9590TIP3    H250186   6.578   2.864  10.772 -0.0801 -0.1897  0.4483
 9591TIP3   OH250187   0.092   5.794  14.592 -0.0109 -0.3467 -0.1492
 9591TIP3    H150188   0.132   5.859  14.534  1.1141  0.0678  1.0262
 9591TIP3    H250189   0.028   5.749  14.538 -0.8329  1.7425 -1.0050
 9592TIP3   OH250190   1.227   1.155  12.799  0.3895 -0.5778  0.1131
 9592TIP3    H150191   1.298   1.218  12.787  1.1046 -1.0217  1.6987
 9592TIP3    H250192   1.253   1.079  12.746  1.4869 -1.0117  1.2241
 9593TIP3   OH250193   2.631   6.107   2.984  0.3737  0.3018 -0.4891
 9593TIP3    H150194   2.668   6.091   2.898  1.3468 -2.8360  0.3749
 9593TIP3    H250195   2.654   6.029   3.035 -1.3135  1.4252  2.2265
 9594TIP3   OH250196   4.378   6.786   2.386 -0.0513 -0.2374  0.4517
 9594TIP3    H150197   4.327   6.863   2.363 -1.6949 -0.7784  2.0428
 9594TIP3    H250198   4.459   6.795   2.336 -1.5474  0.8037 -1.9768
 9595TIP3   OH250199   2.406   6.335   2.037 -0.5219  0.9326 -0.0387
 9595TIP3    H150200   2.426   6.414   1.987  0.3065  1.1413  0.5942
 9595TIP3    H250201   2.491   6.291   2.047 -1.1156 -0.5462 -1.2183
 9596TIP3   OH250202   1.003   6.692   3.850  0.4921 -0.0640  0.3031
 9596TIP3    H150203   0.975   6.604   3.873 -1.2297  0.3992  0.0862
 9596TIP3    H250204   1.030   6.731   3.933  0.5740 -0.5478  0.5085
 9597TIP3   OH250205   0.793   6.413  11.105  0.0826 -0.5636  0.1804
 9597TIP3    H150206   0.706   6.408  11.144  0.5167  1.2184  1.5118
 9597TIP3    H250207   0.852   6.380  11.172  0.5511 -0.5368 -0.2118
 9598TIP3   OH250208   0.016   5.204   0.353  0.1352  0.0158 -0.2089
 9598TIP3    H150209  -0.071   5.164   0.361 -1.2129  2.9408  2.1272
 9598TIP3    H250210   0.060   5.182   0.435  0.5163  0.7649 -0.2027
 9599TIP3   OH250211   5.006   0.252  16.279  0.1899 -0.6508 -0.9361
 9599TIP3    H150212   5.078   0.191  16.260  0.2188 -0.5103 -1.2815
 9599TIP3    H250213   5.018   0.275  16.371  0.6755 -0.5050 -1.0348
 9600TIP3   OH250214   4.950   6.342   0.332  0.5340  0.2943  0.4098
 9600TIP3    H150215   4.993   6.359   0.415  0.9737  2.6128 -0.2198
 9600TIP3    H250216   5.014   6.366   0.266  0.1897 -1.4863 -0.6581
 9601TIP3   OH250217   0.125   5.284   0.874  0.6022  0.5324 -0.4197
 9601TIP3    H150218   0.059   5.259   0.809  0.6942  0.9042 -0.6627
 9601TIP3    H250219   0.200   5.314   0.821  0.7734  0.5916 -0.1432
 9602TIP3   OH250220   5.004   3.650  16.443 -0.2122 -0.2492  0.4079
 9602TIP3    H150221   5.040   3.562  16.458  1.8087  0.2825 -0.9002
 9602TIP3    H250222   5.052   3.682  16.367 -1.0631  1.9202  0.7320
 9603TIP3   OH250223   4.348   1.779  13.975  0.0839  0.3981  0.1158
 9603TIP3    H150224   4.300   1.820  14.047  2.5154  2.0081  0.9263
 9603TIP3    H250225   4.386   1.700  14.014 -1.5082 -0.6798 -0.4294
 9604TIP3   OH250226   5.054   2.463  16.127 -0.1841 -0.3581 -0.2993
 9604TIP3    H150227   5.056   2.530  16.058 -2.0700 -1.9940 -2.0511
 9604TIP3    H250228   5.133   2.412  16.113  0.6284  0.6842  0.2744
 9605TIP3   OH250229   1.355   4.095  16.222  0.0930 -0.2667 -0.2750
 9605TIP3    H150230   1.377   4.142  16.141 -0.3382 -1.1774 -0.9449
 9605TIP3    H250231   1.440   4.081  16.265  0.4206 -0.4207 -0.9485
 9606TIP3   OH250232   3.785   5.514  16.751 -0.3383  0.1169  0.2438
 9606TIP3    H150233   3.811   5.455  16.680  0.1144  1.5486 -0.8173
 9606TIP3    H250234   3.856   5.508  16.815 -1.0159 -1.6140  0.9090
 9607TIP3   OH250235   0.218   2.626  15.484  0.8958  0.4317  0.5720
 9607TIP3    H150236   0.239   2.714  15.516  0.4256  1.3164 -1.4183
 9607TIP3    H250237   0.196   2.638  15.392  0.7598 -1.7855  0.2561
 9608TIP3   OH250238   2.968   4.223  13.386  0.8396 -0.0546  0.9133
 9608TIP3    H150239   2.881   4.206  13.422  0.3260 -1.1528 -0.7081
 9608TIP3    H250240   3.014   4.139  13.395  0.6741 -0.3889 -0.9272
 9609TIP3   OH250241   0.088   6.479  14.531  0.2990  0.2575 -0.1241
 9609TIP3    H150242   0.082   6.426  14.611 -0.7132  0.9179  0.2421
 9609TIP3    H250243   0.172   6.453  14.493  3.1998  3.1608  3.4688
 9610TIP3   OH250244   0.663   6.405  17.048  0.1943 -0.1911 -0.0242
 9610TIP3    H150245   0.686   6.313  17.034  0.4307 -0.0816 -0.3750
 9610TIP3    H250246   0.568   6.406  17.052  0.1906 -0.4503 -0.0312
 9611TIP3   OH250247   2.782   0.464  14.063 -0.2201 -0.2597 -0.5989
 9611TIP3    H150248   2.740   0.390  14.107 -0.4156 -0.0437 -0.4236
 9611TIP3    H250249   2.868   0.431  14.038  0.1411 -0.1810  0.5181
 9612TIP3   OH250250   4.119   0.525  15.486  0.1542 -0.0683 -0.1541
 9612TIP3    H150251   4.073   0.459  15.435 -0.4949 -0.8986  1.4393
 9612TIP3    H250252   4.094   0.609  15.446 -3.1123 -0.4341  0.8206
 9613TIP3   OH250253   5.144   6.281  11.452 -0.1288 -0.1642  0.2132
 9613TIP3    H150254   5.054   6.271  11.483 -0.1298 -0.9209 -0.0296
 9613TIP3    H250255   5.184   6.341  11.515 -0.1210 -1.7050  1.7478
 9614TIP3   OH250256   4.706   2.227  16.163  0.1084  0.2115  0.0322
 9614TIP3    H150257   4.688   2.160  16.098  0.2802  0.7693 -0.6068
 9614TIP3    H250258   4.649   2.206  16.237  0.5342 -0.9211  0.0506
 9615TIP3   OH250259   4.774   2.401  12.837 -0.2234  0.1706  0.0479
 9615TIP3    H150260   4.768   2.355  12.921 -0.4634 -1.4431 -0.7939
 9615TIP3    H250261   4.770   2.331  12.772 -0.7295  1.4315 -1.3322
 9616TIP3   OH250262   6.579   6.626   3.411  0.5130 -0.8972  0.2265
 9616TIP3    H150263   6.491   6.607   3.379  0.3569 -1.4424  0.9552
 9616TIP3    H250264   6.634   6.558   3.373  0.6447 -0.4829 -0.3304
 9617TIP3   OH250265   2.307   2.590   3.962 -0.1754  0.1894 -0.5671
 9617TIP3    H150266   2.402   2.591   3.948  0.1189 -0.1243  1.2508
 9617TIP3    H250267   2.280   2.502   3.937 -0.1194  0.4935 -1.7639
 9618TIP3   OH250268   3.876   5.087   3.054 -0.2731 -0.3668  0.5228
 9618TIP3    H150269   3.793   5.054   3.020 -0.6598  1.7510 -0.7291
 9618TIP3    H250270   3.930   5.102   2.977  1.5331 -2.1794  1.3438
 9619TIP3   OH250271   1.778   5.214  16.755  0.7490  0.9930  0.5639
 9619TIP3    H150272   1.839   5.207  16.828  0.8735 -5.0148  0.4042
 9619TIP3    H250273   1.695   5.184  16.791  0.0169  1.0353 -1.0355
 9620TIP3   OH250274   1.487   2.134  11.922 -0.4259 -0.6380  0.0639
 9620TIP3    H150275   1.496   2.050  11.876 -0.9917 -1.0009  0.6073
 9620TIP3    H250276   1.541   2.195  11.871 -0.7881 -1.1008 -0.9002
 9621TIP3   OH250277   3.864   2.169   1.028 -0.0982 -0.4668  0.3283
 9621TIP3    H150278   3.800   2.161   1.098 -0.2623  1.6590  0.4784
 9621TIP3    H250279   3.872   2.263   1.013  2.3552 -0.7046 -0.2874
 9622TIP3   OH250280   4.761   6.655   1.978  0.4289 -0.4287 -0.3366
 9622TIP3    H150281   4.808   6.686   1.901  0.6866  2.8770  0.9670
 9622TIP3    H250282   4.671   6.643   1.949  0.8317 -0.7562 -1.4838
 9623TIP3   OH250283   2.677   5.731  16.190 -0.7355  0.9141  0.3691
 9623TIP3    H150284   2.699   5.688  16.272 -3.4892 -0.3447  0.5592
 9623TIP3    H250285   2.692   5.665  16.123  1.5575  1.9531 -0.2410
 9624TIP3   OH250286   0.575   0.457  11.401  0.3103 -0.3439  0.0890
 9624TIP3    H150287   0.504   0.520  11.411  0.9371  0.6916 -1.5864
 9624TIP3    H250288   0.649   0.508  11.368  1.5439 -1.5698  0.8286
 9625TIP3   OH250289   1.732   5.715   2.430  0.2555 -0.2980 -0.5840
 9625TIP3    H150290   1.667   5.772   2.387 -0.2314  0.0082  0.5310
 9625TIP3    H250291   1.689   5.629   2.434  0.0546 -0.1804 -0.1678
 9626TIP3   OH250292   2.319   4.371   3.638  0.7118 -0.7525  0.4035
 9626TIP3    H150293   2.261   4.407   3.705 -0.0297 -3.6257  1.4503
 9626TIP3    H250294   2.407   4.375   3.677  0.2974 -2.3222  1.5896
 9627TIP3   OH250295   5.074   6.312  14.616 -0.4825 -0.1859 -0.2316
 9627TIP3    H150296   4.993   6.261  14.614 -0.2790 -0.5515  0.5531
 9627TIP3    H250297   5.133   6.261  14.672 -0.9417  1.9046  2.3340
 9628TIP3   OH250298   6.354   4.995   0.145  0.0423 -0.5756  0.0383
 9628TIP3    H150299   6.368   4.900   0.145  1.2978 -0.4528  1.8834
 9628TIP3    H250300   6.429   5.029   0.194 -1.3504  1.2018  1.0309
 9629TIP3   OH250301   4.434   5.296  14.875 -0.0144  0.3274 -0.5150
 9629TIP3    H150302   4.491   5.368  14.849  1.6163 -0.4696  0.6318
 9629TIP3    H250303   4.349   5.317  14.838  0.8333  1.9850 -1.6127
 9630TIP3   OH250304   5.142   5.168  13.000 -0.5943 -0.0522 -0.7041
 9630TIP3    H150305   5.103   5.186  13.086 -0.2943 -1.4874 -0.2511
 9630TIP3    H250306   5.215   5.110  13.018  0.8983  1.4279 -1.7119
 9631TIP3   OH250307   6.034   6.268   2.535  0.1643 -0.0335 -0.2293
 9631TIP3    H150308   5.992   6.324   2.599  0.3522  1.2359 -1.1706
 9631TIP3    H250309   5.965   6.208   2.506 -1.1830  2.1796 -1.9558
 9632TIP3   OH250310   5.371   5.429   3.959 -1.6305  0.1886  0.4073
 9632TIP3    H150311   5.333   5.342   3.945 -1.4654 -0.0887  1.5157
 9632TIP3    H250312   5.417   5.421   4.043 -1.0339  1.1581  0.1879
 9633TIP3   OH250313   3.681   0.465  13.150  0.8313  0.0712  0.8827
 9633TIP3    H150314   3.723   0.392  13.196  2.5643 -0.5785 -1.5546
 9633TIP3    H250315   3.726   0.543  13.183  2.6529 -0.4543 -0.1805
 9634TIP3   OH250316   0.175   0.930  11.969 -0.1066  0.7272  0.4562
 9634TIP3    H150317   0.092   0.917  11.923  0.0581 -0.7992  0.5396
 9634TIP3    H250318   0.228   0.982  11.908  0.3677 -1.8256 -1.4764
 9635TIP3   OH250319   4.262   5.960   2.329 -0.1522 -0.1852  0.3134
 9635TIP3    H150320   4.237   6.050   2.351  1.3842  0.7304 -1.3946
 9635TIP3    H250321   4.185   5.923   2.286 -0.6063  0.5056  0.5256
 9636TIP3   OH250322   4.345   5.376  14.237  0.0973 -0.3085  0.0432
 9636TIP3    H150323   4.343   5.392  14.143  0.6248  0.4344  0.1489
 9636TIP3    H250324   4.257   5.398  14.267  0.5212  1.5369  0.0295
 9637TIP3   OH250325   2.512   6.259   2.357 -0.0549 -0.0078 -0.0018
 9637TIP3    H150326   2.516   6.234   2.449 -2.5780 -0.1064  0.1385
 9637TIP3    H250327   2.531   6.178   2.309  0.1883 -0.2062  0.4273
 9638TIP3   OH250328   4.731   2.108  12.669 -0.1833  0.2741 -0.2866
 9638TIP3    H150329   4.780   2.048  12.726 -0.1115 -0.1732 -0.8142
 9638TIP3    H250330   4.798   2.146  12.612  0.0211  2.0209  1.0292
 9639TIP3   OH250331   4.427   3.655   0.227 -0.1545  0.1435  0.2523
 9639TIP3    H150332   4.444   3.699   0.143  0.5615  0.1831  0.4067
 9639TIP3    H250333   4.352   3.598   0.210 -0.0343  0.1732 -0.4120
 9640TIP3   OH250334   4.647   0.641   3.768  0.3937  0.0986 -0.4340
 9640TIP3    H150335   4.685   0.677   3.687  0.8392 -0.2234 -0.3722
 9640TIP3    H250336   4.561   0.682   3.774 -0.0167 -0.5312 -1.5468
 9641TIP3   OH250337   0.797   4.898  13.972  0.3251 -0.1908 -0.2594
 9641TIP3    H150338   0.758   4.854  13.897 -0.0296  1.3827 -1.0452
 9641TIP3    H250339   0.878   4.850  13.990 -0.3747 -1.5453 -0.6238
 9642TIP3   OH250340   5.971   6.572  11.413  0.2907 -0.0438 -0.1389
 9642TIP3    H150341   5.954   6.527  11.331 -0.1215  0.2958 -0.2400
 9642TIP3    H250342   5.889   6.566  11.462  0.9468 -1.5327  0.8784
 9643TIP3   OH250343   4.580   2.833  12.571 -0.1469  0.0007  0.2947
 9643TIP3    H150344   4.613   2.767  12.632 -0.3002 -1.3897 -1.0557
 9643TIP3    H250345   4.522   2.888  12.623 -1.0373 -1.7390  1.2225
 9644TIP3   OH250346   3.249   6.128   0.901 -0.2611  0.2686 -0.4021
 9644TIP3    H150347   3.290   6.176   0.829 -0.8117 -0.0076 -0.9045
 9644TIP3    H250348   3.323   6.091   0.949  0.0903 -1.3627 -2.0798
 9645TIP3   OH250349   5.450   6.342   3.450 -0.5982 -0.0146  0.5982
 9645TIP3    H150350   5.540   6.313   3.435 -1.0174 -1.8519  1.4462
 9645TIP3    H250351   5.402   6.314   3.372 -0.3792  1.4887 -0.1311
 9646TIP3   OH250352   2.191   5.950  11.240 -0.0026 -0.2816  0.7306
 9646TIP3    H150353   2.220   5.881  11.300 -0.9427 -1.9246 -0.5923
 9646TIP3    H250354   2.263   6.012  11.237  2.0643 -2.5756 -0.0332
 9647TIP3   OH250355   2.182   2.915  11.078 -0.2514  0.3840  0.2856
 9647TIP3    H150356   2.168   2.940  11.169 -2.6546 -0.6617  0.2887
 9647TIP3    H250357   2.161   2.994  11.028 -0.3788  0.5383  0.5785
 9648TIP3   OH250358   6.576   2.444   2.610 -0.2444 -0.1093 -0.1289
 9648TIP3    H150359   6.598   2.372   2.669  0.6744 -0.2714 -0.6465
 9648TIP3    H250360   6.659   2.466   2.567 -0.0438  2.4390  1.3099
 9649TIP3   OH250361   1.939   3.441  10.872 -0.0140 -0.2121 -0.4406
 9649TIP3    H150362   2.007   3.378  10.849 -0.0517 -0.3445 -0.1904
 9649TIP3    H250363   1.942   3.506  10.802  0.5589 -0.0648 -0.2815
 9650TIP3   OH250364   6.426   5.869   4.583  0.0239 -0.4099 -0.0788
 9650TIP3    H150365   6.385   5.876   4.669  0.8052  1.7365  0.1691
 9650TIP3    H250366   6.397   5.947   4.536 -0.0191 -1.3191 -1.6256
 9651TIP3   OH250367   5.185   4.026  11.734  0.0860  0.0397 -0.8513
 9651TIP3    H150368   5.147   3.978  11.809  0.5849  0.4281 -0.3469
 9651TIP3    H250369   5.163   3.972  11.658  0.7467 -1.0688 -0.2816
 9652TIP3   OH250370   4.306   6.673   6.252 -0.8333  0.1448 -0.0752
 9652TIP3    H150371   4.304   6.659   6.346  2.7112  1.4042  0.3275
 9652TIP3    H250372   4.350   6.596   6.216  0.4238  0.9241 -0.2842
 9653TIP3   OH250373   1.001   6.546   3.100  0.3547 -0.3579  0.0550
 9653TIP3    H150374   1.086   6.513   3.073 -0.3922 -0.4877 -2.3049
 9653TIP3    H250375   1.001   6.638   3.074  0.0977 -0.1205  0.8610
 9654TIP3   OH250376   1.796   6.359   3.093 -0.3308 -0.1211  0.6205
 9654TIP3    H150377   1.869   6.361   3.154 -0.8658 -1.5388  1.3519
 9654TIP3    H250378   1.754   6.275   3.108 -0.9430 -0.1878 -1.1865
 9655TIP3   OH250379   3.131   0.202  12.576 -0.5116 -0.6912  0.2551
 9655TIP3    H150380   3.083   0.180  12.496 -0.2058 -1.9734  0.4034
 9655TIP3    H250381   3.064   0.237  12.635 -0.6085  1.0482 -0.8110
 9656TIP3   OH250382   5.432   4.190   1.128 -0.1824 -0.7498 -0.5004
 9656TIP3    H150383   5.429   4.109   1.078 -1.2107 -0.9420 -0.1519
 9656TIP3    H250384   5.457   4.257   1.064 -0.2951 -1.1871 -1.0073
 9657TIP3   OH250385   4.366   0.375  11.587 -0.0331  0.0557 -0.1762
 9657TIP3    H150386   4.412   0.417  11.514  1.2757 -0.6583  0.1892
 9657TIP3    H250387   4.274   0.393  11.571  0.2782  0.5443 -1.6015
 9658TIP3   OH250388   6.794   3.301   0.524  1.1536  0.0747  0.0760
 9658TIP3    H150389   6.826   3.296   0.434 -1.2522  2.0808 -1.0299
 9658TIP3    H250390   6.744   3.220   0.536 -0.0650  0.6036 -1.1300
 9659TIP3   OH250391   4.412   0.061   1.138 -0.1936 -0.0242  0.3124
 9659TIP3    H150392   4.360   0.030   1.064  1.0493 -0.0247 -0.5894
 9659TIP3    H250393   4.409   0.157   1.130  2.3879  0.0058 -1.5952
 9660TIP3   OH250394   3.035   0.812   3.747  0.3714  0.4717 -0.3855
 9660TIP3    H150395   2.995   0.870   3.812  0.3050 -0.9091  0.8914
 9660TIP3    H250396   2.982   0.732   3.752  0.3020  0.3779 -2.2549
 9661TIP3   OH250397   1.961   0.758  15.862  0.3810  0.7989  0.5632
 9661TIP3    H150398   1.880   0.805  15.843 -1.1641 -1.8610  0.0543
 9661TIP3    H250399   1.936   0.693  15.928  1.8317 -0.6738 -0.2597
 9662TIP3   OH250400   0.575   0.376  15.771 -0.1425  0.0127  0.2530
 9662TIP3    H150401   0.575   0.450  15.710  0.7671 -1.5020 -1.7075
 9662TIP3    H250402   0.644   0.396  15.834  2.9452 -0.8255 -2.5844
 9663TIP3   OH250403   1.951   5.698  12.907 -0.1486  0.4561  0.2937
 9663TIP3    H150404   1.924   5.627  12.966  2.1527  1.7697  3.1545
 9663TIP3    H250405   1.869   5.740  12.881 -1.3514 -1.1268  1.3259
 9664TIP3   OH250406   1.470   1.440   4.216  0.5230 -0.1347  0.2755
 9664TIP3    H150407   1.437   1.366   4.267 -0.8753 -1.0533 -1.8112
 9664TIP3    H250408   1.475   1.513   4.279  0.2908 -1.5501  2.0003
 9665TIP3   OH250409   4.559   0.318   5.666 -0.3356 -0.3168 -0.2196
 9665TIP3    H150410   4.509   0.287   5.591  0.4697  0.1898 -0.9869
 9665TIP3    H250411   4.544   0.412   5.668  1.9488  0.1475 -1.5654
 9666TIP3   OH250412   4.588   3.066  15.094  0.3213 -1.3135  0.8042
 9666TIP3    H150413   4.503   3.059  15.137  0.1188 -0.4510  0.5656
 9666TIP3    H250414   4.651   3.040  15.162  0.0103  0.0353  1.6641
 9667TIP3   OH250415   4.472   4.001   5.934  0.0579 -0.3821  0.1866
 9667TIP3    H150416   4.451   4.088   5.901  0.4631 -0.5794 -0.6189
 9667TIP3    H250417   4.556   4.013   5.979 -0.3078 -0.1914  0.8379
 9668TIP3   OH250418   0.064   2.679   5.604  0.1891  0.0561 -0.7226
 9668TIP3    H150419  -0.011   2.699   5.547 -0.5578 -0.5486  0.0174
 9668TIP3    H250420   0.051   2.587   5.629  1.9778 -0.5269 -1.7471
 9669TIP3   OH250421   4.600   4.635  15.038  0.6655 -0.3234  0.1036
 9669TIP3    H150422   4.570   4.544  15.026  0.7793 -0.3185 -0.2332
 9669TIP3    H250423   4.551   4.666  15.114 -0.9129 -0.0098 -0.9852
 9670TIP3   OH250424   1.776   4.049   3.149 -0.3004  0.2007 -0.4986
 9670TIP3    H150425   1.846   4.048   3.084 -0.0983 -1.2716 -0.2940
 9670TIP3    H250426   1.821   4.066   3.232 -0.0142 -1.6557 -0.2323
 9671TIP3   OH250427   5.849   2.700   3.944 -0.2509  0.0166 -0.3018
 9671TIP3    H150428   5.888   2.618   3.914 -2.6468 -0.9562 -1.0069
 9671TIP3    H250429   5.846   2.692   4.040 -1.4699 -1.2626 -0.4176
 9672TIP3   OH250430   1.345   3.213   6.570 -0.6849  0.1460 -0.5457
 9672TIP3    H150431   1.259   3.194   6.533 -0.6353  0.0895 -0.6349
 9672TIP3    H250432   1.347   3.166   6.653 -0.7355  0.1384 -0.5487
 9673TIP3   OH250433   1.655   4.220   4.860 -0.0702 -0.1647 -0.2367
 9673TIP3    H150434   1.643   4.315   4.853 -1.8623 -0.2749  0.8408
 9673TIP3    H250435   1.636   4.186   4.773 -2.1424  0.2423  0.0211
 9674TIP3   OH250436   6.182   3.210  16.548  0.1653  0.2718 -0.1294
 9674TIP3    H150437   6.165   3.302  16.525 -1.0978  0.3258  0.9423
 9674TIP3    H250438   6.181   3.164  16.464 -1.4150  0.9099 -0.4971
 9675TIP3   OH250439   4.560   0.455   3.394 -0.5204  0.5057  0.5085
 9675TIP3    H150440   4.549   0.549   3.408 -0.7753  0.6731 -0.7080
 9675TIP3    H250441   4.564   0.445   3.299 -2.1381 -0.8695  0.5323
 9676TIP3   OH250442   5.020   3.340  14.908  0.1718 -0.5113  0.2886
 9676TIP3    H150443   5.020   3.244  14.899 -0.9265 -0.4468 -0.7493
 9676TIP3    H250444   4.957   3.357  14.977 -0.9134 -0.4930 -0.6710
 9677TIP3   OH250445   1.966   4.665   0.408  0.4055  0.1287  0.1212
 9677TIP3    H150446   1.989   4.609   0.334 -1.1391 -0.4648  0.0612
 9677TIP3    H250447   1.945   4.750   0.368 -0.1883 -0.1225 -0.1056
 9678TIP3   OH250448   0.293   2.583  11.865  0.5145  0.9681 -0.0843
 9678TIP3    H150449   0.295   2.591  11.961  1.3835  0.9750 -0.0909
 9678TIP3    H250450   0.286   2.490  11.849  0.8736  0.9265 -0.0110
 9679TIP3   OH250451   3.299   0.609   3.142 -0.6211 -0.8113 -0.2446
 9679TIP3    H150452   3.294   0.632   3.049  0.0359 -0.9344 -0.3177
 9679TIP3    H250453   3.209   0.609   3.172 -0.7914 -0.2030 -0.7467
 9680TIP3   OH250454   1.159   6.437   4.384 -0.1014  0.0980 -0.6199
 9680TIP3    H150455   1.211   6.480   4.452 -0.3422 -0.0242 -0.3532
 9680TIP3    H250456   1.083   6.494   4.372 -0.2273 -0.0500 -0.5416
 9681TIP3   OH250457   1.198   0.932   5.345 -0.8001 -0.0710 -0.0839
 9681TIP3    H150458   1.176   0.989   5.419  0.7686 -1.0602  1.2412
 9681TIP3    H250459   1.227   0.992   5.276  0.0738  0.8139  1.0033
 9682TIP3   OH250460   5.040   2.286   5.596  0.6443 -0.4994  0.0031
 9682TIP3    H150461   5.068   2.231   5.522  0.4845 -0.7037  0.0936
 9682TIP3    H250462   4.945   2.291   5.587  0.6363 -0.4358  0.1350
 9683TIP3   OH250463   2.042   5.610   1.350 -0.1247  0.0584 -0.0881
 9683TIP3    H150464   2.068   5.688   1.399  0.7679 -0.2779 -0.0025
 9683TIP3    H250465   2.079   5.623   1.263  1.1193 -0.8123  0.2775
 9684TIP3   OH250466   2.173   2.592   3.218  0.5122 -0.1388  0.1178
 9684TIP3    H150467   2.164   2.498   3.202 -0.5959  0.0571 -0.5558
 9684TIP3    H250468   2.093   2.616   3.265 -0.0961  0.7737 -1.3038
 9685TIP3   OH250469   1.891   4.618  12.841  0.2235  0.5282 -0.1700
 9685TIP3    H150470   1.803   4.622  12.804  1.1120 -0.6368 -2.5924
 9685TIP3    H250471   1.918   4.709  12.847 -1.6398  1.0357  2.0746
 9686TIP3   OH250472   5.514   1.689  13.202 -0.4027  0.3859 -0.1099
 9686TIP3    H150473   5.493   1.719  13.113 -0.2515  0.2062 -0.2087
 9686TIP3    H250474   5.481   1.758  13.259  0.5402  1.0570 -0.3625
 9687TIP3   OH250475   2.947   1.953  14.567 -0.5320 -0.4592 -0.6419
 9687TIP3    H150476   2.875   1.892  14.547 -0.3429 -0.1831 -2.3350
 9687TIP3    H250477   3.003   1.905  14.628 -2.1872 -0.6299  0.8292
 9688TIP3   OH250478   5.967   1.978   0.575 -0.0828  0.2692 -0.1167
 9688TIP3    H150479   5.886   1.983   0.524 -0.3628  0.1445  0.3027
 9688TIP3    H250480   6.019   1.910   0.533  0.1582  0.9114 -0.8772
 9689TIP3   OH250481   0.288   3.289   4.688  0.0909  0.5535  0.0830
 9689TIP3    H150482   0.346   3.307   4.762  0.9614  3.5946 -1.1562
 9689TIP3    H250483   0.347   3.264   4.617 -0.4123  0.6638 -0.3833
 9690TIP3   OH250484   1.657   5.738   4.194 -0.3387 -0.6320  0.1541
 9690TIP3    H150485   1.669   5.831   4.178  1.4104 -0.9176 -0.4413
 9690TIP3    H250486   1.562   5.725   4.195 -0.6391  1.3058  1.3140
 9691TIP3   OH250487   1.683   1.368  15.186 -0.1892  0.3453 -0.3054
 9691TIP3    H150488   1.706   1.416  15.107 -2.2546  1.3028 -0.3900
 9691TIP3    H250489   1.615   1.306  15.158  0.2188 -0.4614  0.4274
 9692TIP3   OH250490   5.706   4.363   2.720  0.1975 -0.8225  0.0919
 9692TIP3    H150491   5.707   4.270   2.741 -1.7360 -0.4002  2.5037
 9692TIP3    H250492   5.672   4.368   2.631  1.5868 -2.4175 -0.5903
 9693TIP3   OH250493   6.584   1.777   0.890 -0.0697  0.1204  0.2417
 9693TIP3    H150494   6.664   1.820   0.858 -0.7549  1.0336 -0.3006
 9693TIP3    H250495   6.615   1.714   0.955  1.1356  0.0800 -0.3495
 9694TIP3   OH250496   4.799   6.315   1.481  0.2802  0.2306  0.5057
 9694TIP3    H150497   4.760   6.266   1.554  0.1250 -1.1873 -0.5043
 9694TIP3    H250498   4.743   6.392   1.472 -0.5840 -0.3348  0.9200
 9695TIP3   OH250499   5.249   4.759   6.144 -0.0263 -0.4343  0.1037
 9695TIP3    H150500   5.215   4.706   6.217 -1.2113 -1.2326 -0.9891
 9695TIP3    H250501   5.305   4.824   6.187 -0.4163 -1.0853  1.7024
 9696TIP3   OH250502   6.571   1.393  15.328  0.0437 -0.3273  0.1986
 9696TIP3    H150503   6.495   1.396  15.270  0.0433  0.6088  0.2308
 9696TIP3    H250504   6.591   1.300  15.337 -1.4293 -0.6276  0.6189
 9697TIP3   OH250505   5.774   0.653  14.820 -0.0391 -0.3992  1.0905
 9697TIP3    H150506   5.692   0.701  14.829  0.6670  1.4809 -1.5009
 9697TIP3    H250507   5.750   0.574  14.771 -0.1602  0.8905 -1.0501
 9698TIP3   OH250508   2.170   2.294   3.619  0.0156  0.3263  0.8068
 9698TIP3    H150509   2.101   2.352   3.586  1.4430 -0.3491 -4.0681
 9698TIP3    H250510   2.144   2.207   3.590  1.3077 -0.4564  1.8991
 9699TIP3   OH250511   0.723   0.959  16.119 -0.1651 -0.2659 -0.1655
 9699TIP3    H150512   0.749   1.023  16.052 -0.4052 -1.3781 -1.3734
 9699TIP3    H250513   0.684   0.887  16.069 -0.7959 -0.9275  1.2309
 9700TIP3   OH250514   6.546   4.753  11.753 -0.1068  0.0139  0.1005
 9700TIP3    H150515   6.510   4.832  11.794  1.7474  1.4756 -0.8886
 9700TIP3    H250516   6.494   4.681  11.788 -1.9492  1.6798  0.9705
 9701TIP3   OH250517   5.366   4.941  13.328  0.3319  0.6696  0.5719
 9701TIP3    H150518   5.298   4.952  13.395  2.1338 -1.2481  2.8958
 9701TIP3    H250519   5.446   4.924  13.378  1.5752 -1.9910 -2.0636
 9702TIP3   OH250520   3.385   5.677  15.394  0.2373 -0.8027  0.3264
 9702TIP3    H150521   3.385   5.765  15.433 -2.1861 -0.6091  0.0360
 9702TIP3    H250522   3.450   5.682  15.324 -0.7033  1.1651 -0.4779
 9703TIP3   OH250523   5.578   1.499  14.957  0.2729 -0.7407 -0.2726
 9703TIP3    H150524   5.572   1.460  15.044  3.8759 -2.2008 -0.4762
 9703TIP3    H250525   5.537   1.585  14.965 -2.6664 -2.1616  1.8271
 9704TIP3   OH250526   1.040   1.106   1.456  0.0438  0.0110 -0.0307
 9704TIP3    H150527   1.008   1.030   1.408 -0.3786  0.7706 -0.9986
 9704TIP3    H250528   0.963   1.140   1.502  0.4965 -0.8452  1.4000
 9705TIP3   OH250529   1.991   0.854  16.521 -0.5524 -0.0443  0.1946
 9705TIP3    H150530   2.082   0.871  16.496 -0.1647  1.6252  2.4026
 9705TIP3    H250531   1.939   0.889  16.448  0.5474 -0.0642 -0.6192
 9706TIP3   OH250532   2.431   1.199  11.046  0.5739  0.3168 -0.0132
 9706TIP3    H150533   2.492   1.242  10.987  2.0901 -0.4085  0.9402
 9706TIP3    H250534   2.364   1.265  11.064  0.6246  0.8758 -1.7041
 9707TIP3   OH250535   0.591   0.195  13.059 -0.2678 -0.1185  0.3018
 9707TIP3    H150536   0.665   0.250  13.085  1.8210 -2.5649 -0.0454
 9707TIP3    H250537   0.617   0.156  12.976 -1.6954 -1.4690  0.4293
 9708TIP3   OH250538   0.848   3.417  13.035  0.0484 -0.2003  0.2856
 9708TIP3    H150539   0.761   3.457  13.033  0.7249  1.3634  0.6175
 9708TIP3    H250540   0.834   3.331  13.075 -0.8763  1.3398  3.5933
 9709TIP3   OH250541   0.257   0.004  16.328  0.0150  0.0660  0.4581
 9709TIP3    H150542   0.236   0.092  16.360 -1.5081  0.3252 -1.0885
 9709TIP3    H250543   0.352  -0.004  16.340  0.0930  1.7036  1.1501
 9710TIP3   OH250544   1.693   5.057  10.281  0.0456  0.2058 -0.0499
 9710TIP3    H150545   1.612   5.108  10.272 -0.3777 -0.1803  1.2019
 9710TIP3    H250546   1.695   5.034  10.374  0.7426 -1.1934 -0.3896
 9711TIP3   OH250547   4.255   2.842   5.961  0.1593  0.1926 -0.5192
 9711TIP3    H150548   4.322   2.784   5.998  0.0798  0.8549  0.6966
 9711TIP3    H250549   4.182   2.783   5.940  1.6443 -0.8344 -3.4522
 9712TIP3   OH250550   2.792   5.529   6.080  0.1608 -0.4470  0.0401
 9712TIP3    H150551   2.826   5.617   6.058  1.7943 -0.9868  0.2575
 9712TIP3    H250552   2.802   5.523   6.175 -0.7247 -0.5819  0.1325
 9713TIP3   OH250553   1.690   2.724   5.705 -0.2925 -0.1555  0.0877
 9713TIP3    H150554   1.768   2.756   5.751 -0.7610  0.3982  0.5287
 9713TIP3    H250555   1.708   2.632   5.688  0.3216 -0.1176  0.4809
 9714TIP3   OH250556   2.518   0.986  14.862 -0.2952 -0.0384  0.5113
 9714TIP3    H150557   2.508   0.986  14.957  1.6806  0.4714  0.7677
 9714TIP3    H250558   2.430   1.003  14.828 -1.3305 -1.7901  2.1643
 9715TIP3   OH250559   6.142   1.404   4.539  0.2493 -0.1449 -0.3882
 9715TIP3    H150560   6.231   1.423   4.567 -0.7396  1.1383  2.2385
 9715TIP3    H250561   6.123   1.471   4.473  1.2279 -0.5359 -1.0949
 9716TIP3   OH250562   4.182   4.960  10.720 -0.0192  0.0468 -0.4937
 9716TIP3    H150563   4.123   5.026  10.685 -1.5889 -2.1803 -2.3261
 9716TIP3    H250564   4.164   4.958  10.814 -1.3406  0.8789 -0.7143
 9717TIP3   OH250565   5.621   6.250  16.807 -0.1380 -0.2577  0.7027
 9717TIP3    H150566   5.595   6.243  16.715 -0.9350 -0.8609  0.9624
 9717TIP3    H250567   5.701   6.197  16.813  1.5076  1.9602 -0.1968
 9718TIP3   OH250568   1.274   5.713  11.857  0.3135  0.5079 -0.2501
 9718TIP3    H150569   1.222   5.633  11.854  0.8460  0.1595 -0.4273
 9718TIP3    H250570   1.307   5.723  11.767 -0.2971  1.2978 -0.3934
 9719TIP3   OH250571   3.273   2.869   5.531 -0.2436  0.3459  0.2403
 9719TIP3    H150572   3.209   2.940   5.539 -0.8441 -0.3442  2.1273
 9719TIP3    H250573   3.358   2.914   5.527 -0.6544  1.1960  0.6790
 9720TIP3   OH250574   5.892   3.015   2.990  0.6337  0.2717  0.5036
 9720TIP3    H150575   5.864   2.952   2.923 -0.5258 -3.1506  3.8355
 9720TIP3    H250576   5.824   3.082   2.989 -0.4961 -0.8308 -0.3598
 9721TIP3   OH250577   3.613   5.458  13.530 -0.2077 -0.1447  0.3970
 9721TIP3    H150578   3.597   5.495  13.617  0.0100  0.2837  0.2619
 9721TIP3    H250579   3.707   5.474  13.515  0.1877 -1.8736  0.8443
 9722TIP3   OH250580   4.622   0.149  13.221 -0.3847  0.2800 -0.0964
 9722TIP3    H150581   4.554   0.181  13.280  0.4422 -0.2904  1.2113
 9722TIP3    H250582   4.670   0.228  13.193  1.7842  0.3583  3.2692
 9723TIP3   OH250583   5.156   3.855  12.394  0.0804 -0.2569  0.1624
 9723TIP3    H150584   5.129   3.844  12.485  0.0115  0.0515  0.1793
 9723TIP3    H250585   5.142   3.948  12.375  1.1036 -0.0871  0.1663
 9724TIP3   OH250586   0.235   1.949   2.542  0.6996 -0.8765 -0.5708
 9724TIP3    H150587   0.220   2.019   2.606  1.3876 -0.6857 -0.6130
 9724TIP3    H250588   0.220   1.990   2.457  1.3477 -0.7113 -0.6081
 9725TIP3   OH250589   2.359   5.911   1.559  0.4225 -0.4549  0.2493
 9725TIP3    H150590   2.269   5.878   1.560  0.3176 -0.2217  1.8130
 9725TIP3    H250591   2.386   5.907   1.468 -1.3819  0.0340 -0.3330
 9726TIP3   OH250592   1.509   2.507   1.797 -0.1273 -0.3037 -0.3737
 9726TIP3    H150593   1.546   2.563   1.866 -2.7106  0.1093  0.8158
 9726TIP3    H250594   1.492   2.567   1.724  1.0719 -0.4186 -0.7684
 9727TIP3   OH250595   1.517   3.858   5.688 -0.2327 -0.1160  0.4017
 9727TIP3    H150596   1.528   3.777   5.639 -0.0948 -0.5075  1.0662
 9727TIP3    H250597   1.441   3.842   5.744  1.3202 -0.7787  2.4359
 9728TIP3   OH250598   1.874   5.336   0.905  0.0064  0.3734 -0.0623
 9728TIP3    H150599   1.911   5.308   0.989 -1.1350  0.1970  0.3958
 9728TIP3    H250600   1.856   5.429   0.917  0.1605  0.4262 -0.2366
 9729TIP3   OH250601   2.261   1.757  12.067  0.1523  0.4346  0.4626
 9729TIP3    H150602   2.335   1.809  12.099 -0.3292  0.1880  2.0326
 9729TIP3    H250603   2.242   1.696  12.137 -1.5064  0.4411  0.0508
 9730TIP3   OH250604   5.833   5.047  13.902  0.5728  0.4667  0.2328
 9730TIP3    H150605   5.919   5.022  13.867 -0.0195  0.0542 -0.9790
 9730TIP3    H250606   5.849   5.127  13.952  1.3748  1.4535 -1.5113
 9731TIP3   OH250607   3.486   0.081   2.033 -0.1411  0.6953  0.1951
 9731TIP3    H150608   3.502   0.170   2.000 -0.1446  0.6804  0.1529
 9731TIP3    H250609   3.401   0.086   2.076 -0.2757  0.6435 -0.0608
 9732TIP3   OH250610   1.603   1.483   0.742  0.1160  0.4120  0.1393
 9732TIP3    H150611   1.645   1.567   0.759  0.9166  0.4498 -1.7936
 9732TIP3    H250612   1.544   1.470   0.817 -0.7430  3.1358  0.0396
 9733TIP3   OH250613   4.292   2.439  13.556  0.6043 -0.1006 -0.0293
 9733TIP3    H150614   4.245   2.511  13.598  0.8158 -0.1335  0.2679
 9733TIP3    H250615   4.371   2.427  13.609  0.5511 -0.5767 -0.0485
 9734TIP3   OH250616   1.853   3.639  17.127  0.1555  0.0462  0.3198
 9734TIP3    H150617   1.891   3.556  17.097 -2.2346 -0.6607 -1.0094
 9734TIP3    H250618   1.809   3.674  17.050 -1.5336  0.9670  1.6436
 9735TIP3   OH250619   5.592   1.018  14.565 -0.1576  0.7955  0.0098
 9735TIP3    H150620   5.638   1.101  14.566  3.7139 -1.1134 -1.1861
 9735TIP3    H250621   5.586   0.993  14.473  0.1354 -0.8669  0.3903
 9736TIP3   OH250622   4.688   0.501   2.896  0.2845 -0.1461 -0.4315
 9736TIP3    H150623   4.729   0.571   2.946  0.2168  0.0521 -0.6503
 9736TIP3    H250624   4.594   0.517   2.907  0.2691 -0.3132 -0.3259
 9737TIP3   OH250625   3.591   1.346  11.908  0.5700  0.7948 -0.0074
 9737TIP3    H150626   3.626   1.407  11.843 -0.2742  0.2596 -0.9987
 9737TIP3    H250627   3.503   1.378  11.925  0.5668  0.5679  0.4110
 9738TIP3   OH250628   1.073   0.076   4.185 -0.6539 -0.1083 -0.2692
 9738TIP3    H150629   1.103   0.144   4.125  1.2138 -0.8527 -0.2563
 9738TIP3    H250630   1.059   0.121   4.268 -0.4616  0.4311 -0.5307
 9739TIP3   OH250631   0.971   2.456   3.490 -0.1684  0.1480  0.4012
 9739TIP3    H150632   0.907   2.405   3.441  1.3344 -1.7616  0.3184
 9739TIP3    H250633   0.927   2.540   3.507 -2.3760 -0.8040 -0.2830
 9740TIP3   OH250634   3.807   0.959  10.980  0.2324  0.2737 -0.5448
 9740TIP3    H150635   3.732   0.998  10.935  0.2679  1.5218  0.4092
 9740TIP3    H250636   3.839   1.029  11.038  2.1065 -0.2441 -0.8963
 9741TIP3   OH250637   0.506   1.024   5.248 -0.2961  0.4874 -0.3504
 9741TIP3    H150638   0.513   1.111   5.208 -0.6177  1.3968  1.4476
 9741TIP3    H250639   0.452   1.038   5.326 -0.5290 -1.3827 -0.1321
 9742TIP3   OH250640   4.431   0.266  11.827 -0.1429 -0.1903  0.6796
 9742TIP3    H150641   4.437   0.291  11.735  0.5397 -0.2333  0.7047
 9742TIP3    H250642   4.457   0.344  11.875 -0.8132 -0.0669  0.8529
 9743TIP3   OH250643   1.955   1.736  12.306  0.0777 -0.3619  0.6794
 9743TIP3    H150644   1.982   1.723  12.215  1.1464 -0.0512  0.9331
 9743TIP3    H250645   1.895   1.810  12.303 -0.8161 -1.0870  0.0898
 9744TIP3   OH250646   3.610   3.529  16.212  0.2797 -0.9589  0.1247
 9744TIP3    H150647   3.519   3.515  16.236  0.6493  0.2556  2.5008
 9744TIP3    H250648   3.658   3.524  16.295  1.9867  1.3013 -0.6226
 9745TIP3   OH250649   1.262   5.189  16.865 -0.1097 -0.3034  0.0976
 9745TIP3    H150650   1.292   5.195  16.956 -0.6441  2.0697  0.1887
 9745TIP3    H250651   1.259   5.280  16.835 -0.9163 -0.9586 -1.9859
 9746TIP3   OH250652   6.342   1.981   4.872 -0.2825  0.1456  0.7264
 9746TIP3    H150653   6.260   1.990   4.825  0.2692 -2.3103 -0.8499
 9746TIP3    H250654   6.323   1.920   4.944  0.2452 -0.9317 -0.0157
 9747TIP3   OH250655   1.311   6.054  16.591  0.2031 -0.1671 -0.2420
 9747TIP3    H150656   1.233   6.017  16.548  0.6587  0.1590 -1.3752
 9747TIP3    H250657   1.351   5.979  16.636 -0.0034 -0.6211 -0.8032
 9748TIP3   OH250658   2.631   6.713  15.645 -0.4788  0.3032  0.1720
 9748TIP3    H150659   2.688   6.653  15.693 -2.7285 -0.5286  1.9905
 9748TIP3    H250660   2.649   6.799  15.684 -0.1756  0.1376  0.4023
 9749TIP3   OH250661   0.768   4.778   0.975 -0.1792 -0.2412  0.4686
 9749TIP3    H150662   0.799   4.723   1.047 -0.2020 -0.8141  0.0383
 9749TIP3    H250663   0.825   4.757   0.902 -1.0742 -0.7223 -0.1020
 9750TIP3   OH250664   6.072   1.693   1.608 -0.2968  0.3418  0.5986
 9750TIP3    H150665   6.001   1.637   1.578  0.6073 -1.7816  2.2354
 9750TIP3    H250666   6.029   1.758   1.664 -1.1143  0.0646  0.3102
 9751TIP3   OH250667   3.403   4.466  17.120 -0.0870 -0.0180  0.2164
 9751TIP3    H150668   3.494   4.494  17.134  0.9327 -2.0146 -1.6620
 9751TIP3    H250669   3.407   4.370  17.121 -1.7805 -0.1950 -1.8284
 9752TIP3   OH250670   5.258   2.874   0.116 -0.1198  0.7365 -0.6958
 9752TIP3    H150671   5.205   2.833   0.048 -0.6916  0.6948 -0.2392
 9752TIP3    H250672   5.244   2.968   0.105 -1.2103  0.6979  0.1172
 9753TIP3   OH250673   3.011   0.907   5.055 -0.0886  0.4144 -0.1285
 9753TIP3    H150674   3.002   1.000   5.032  1.4461  0.4949 -0.5564
 9753TIP3    H250675   3.032   0.907   5.148 -1.4027  0.4023  0.1777
 9754TIP3   OH250676   0.036   1.746   1.599  0.2719  0.0415  0.1382
 9754TIP3    H150677  -0.005   1.663   1.621  1.5405 -0.6769 -0.0757
 9754TIP3    H250678   0.002   1.808   1.663  0.1287 -0.8945  0.9886
 9755TIP3   OH250679   1.335   3.268   1.159 -0.2752 -0.1157  0.3047
 9755TIP3    H150680   1.253   3.225   1.135 -1.0406  0.5097  1.7134
 9755TIP3    H250681   1.327   3.356   1.121 -1.4457  0.8423  2.6024
 9756TIP3   OH250682   2.940   3.753  15.854  0.4067 -0.2843  0.2469
 9756TIP3    H150683   2.920   3.670  15.897  0.0122 -0.1850  0.2679
 9756TIP3    H250684   2.869   3.812  15.883  0.2940 -0.1350 -0.3118
 9757TIP3   OH250685   0.109   2.994   3.091 -0.0123  0.3200 -0.8631
 9757TIP3    H150686   0.095   2.910   3.048 -0.0953  0.4966 -1.1790
 9757TIP3    H250687   0.194   2.984   3.134 -1.0121 -0.7441  1.0221
 9758TIP3   OH250688   1.750   2.456  11.391  0.2203  0.0641 -0.6331
 9758TIP3    H150689   1.722   2.506  11.468 -0.4876 -0.1884 -0.7196
 9758TIP3    H250690   1.670   2.447  11.338  0.7622  0.4841 -1.5410
 9759TIP3   OH250691   4.974   0.527  15.171  0.3063 -0.2971  0.2406
 9759TIP3    H150692   5.038   0.579  15.122  0.2644 -1.8721 -1.6318
 9759TIP3    H250693   4.890   0.548  15.130  0.3382 -2.0564 -0.8654
 9760TIP3   OH250694   2.269   1.026  13.291  0.0003  0.2693  0.3228
 9760TIP3    H150695   2.272   1.034  13.196  1.3871  0.2903  0.3453
 9760TIP3    H250696   2.359   1.042  13.319 -0.3775  0.2094  1.6369
 9761TIP3   OH250697   4.222   4.683   5.909  0.3694  0.6464  0.3917
 9761TIP3    H150698   4.218   4.644   5.997 -0.0881  1.3091  0.6747
 9761TIP3    H250699   4.306   4.653   5.873 -0.8133 -2.3314 -0.2326
 9762TIP3   OH250700   0.472   3.158  13.209 -0.1349  0.0277 -0.1616
 9762TIP3    H150701   0.418   3.149  13.287  0.6976  1.3370  0.6113
 9762TIP3    H250702   0.562   3.155  13.242  0.2691 -1.0901 -1.2929
 9763TIP3   OH250703   3.706   5.005  11.404  0.4425  0.0226  0.5337
 9763TIP3    H150704   3.739   5.051  11.482 -0.3578  1.5204  0.0225
 9763TIP3    H250705   3.735   5.059  11.331 -0.2150 -0.4938 -0.1162
 9764TIP3   OH250706   6.042   4.519  10.824 -0.1536  0.3635 -0.0695
 9764TIP3    H150707   6.039   4.489  10.733  0.1635 -0.2845  0.1294
 9764TIP3    H250708   5.964   4.573  10.834  0.6772  1.8632 -1.2162
 9765TIP3   OH250709   3.142   3.150   3.518 -0.3523  0.5949 -0.2031
 9765TIP3    H150710   3.050   3.163   3.493 -0.9877 -2.1689  0.2763
 9765TIP3    H250711   3.192   3.176   3.441 -1.6872  0.4939 -1.1395
 9766TIP3   OH250712   0.777   4.374  16.717  0.3413 -0.2225 -0.4706
 9766TIP3    H150713   0.722   4.413  16.785  0.3861  0.0210 -0.5755
 9766TIP3    H250714   0.717   4.358  16.644  0.1157 -1.2607 -0.0758
 9767TIP3   OH250715   0.752   4.825  16.361 -0.3624 -0.1164 -0.5650
 9767TIP3    H150716   0.728   4.917  16.374  2.9322  0.7789  0.1448
 9767TIP3    H250717   0.687   4.776  16.410  0.2232  2.1416  2.8472
 9768TIP3   OH250718   4.029   2.115   4.573 -0.7549 -0.7580  0.4441
 9768TIP3    H150719   4.109   2.116   4.521 -0.3123  1.8185  1.0157
 9768TIP3    H250720   3.995   2.204   4.565 -2.9060 -1.4372  1.2543
 9769TIP3   OH250721   4.973   4.039  14.316  0.1877 -0.0164 -0.4102
 9769TIP3    H150722   5.022   4.070  14.392  0.4506 -0.2935 -0.4651
 9769TIP3    H250723   4.986   3.944  14.315  0.9762  0.0854 -1.3392
 9770TIP3   OH250724   5.985   0.987   5.349 -0.1750 -0.5613 -0.6209
 9770TIP3    H150725   5.889   0.984   5.349 -0.1719 -0.7494 -0.2348
 9770TIP3    H250726   6.007   1.069   5.305 -0.5411  0.1404  0.4532
 9771TIP3   OH250727   1.819   0.606  16.467 -0.8123 -0.1872  0.1899
 9771TIP3    H150728   1.850   0.696  16.453 -2.7512  0.2075 -2.1165
 9771TIP3    H250729   1.725   0.610  16.454 -1.3605 -2.1465  2.6745
 9772TIP3   OH250730   2.426   5.682   2.083  0.5976 -0.3276 -0.0987
 9772TIP3    H150731   2.513   5.691   2.121 -0.0715 -0.3644  1.4853
 9772TIP3    H250732   2.388   5.607   2.128 -0.0274 -0.7388 -1.2665
 9773TIP3   OH250733   4.193   2.852  13.194  0.2321  0.6481  0.6756
 9773TIP3    H150734   4.172   2.876  13.284  1.2195  1.6936  0.6490
 9773TIP3    H250735   4.176   2.931  13.142 -0.5541 -0.0139 -0.1025
 9774TIP3   OH250736   2.675   6.304   0.960 -0.1846 -0.0970 -0.3112
 9774TIP3    H150737   2.667   6.340   1.048  0.2841 -2.3611  0.7189
 9774TIP3    H250738   2.589   6.320   0.920 -0.5327  0.6164  0.6760
 9775TIP3   OH250739   3.359   5.671   5.842 -0.1063  0.1329  0.0941
 9775TIP3    H150740   3.362   5.656   5.937  1.6886  0.8122  0.1911
 9775TIP3    H250741   3.270   5.648   5.817 -0.2484 -1.3370  1.7337
 9776TIP3   OH250742   6.401   1.196   0.734  0.3981  0.2586 -0.4290
 9776TIP3    H150743   6.343   1.241   0.673  1.0337  0.2854 -1.0214
 9776TIP3    H250744   6.393   1.245   0.816  2.5234  2.7106 -1.5438
 9777TIP3   OH250745   2.297   6.241  15.823  0.5474  0.3556  0.6941
 9777TIP3    H150746   2.261   6.158  15.853  0.3873  0.5348  1.0035
 9777TIP3    H250747   2.380   6.218  15.781 -0.3664 -0.1876 -0.9059
 9778TIP3   OH250748   3.393   2.076   5.614  0.3788 -0.0008 -0.0550
 9778TIP3    H150749   3.473   2.076   5.561  0.2673 -1.1988 -0.2414
 9778TIP3    H250750   3.425   2.082   5.705  0.7781 -1.8764 -0.0351
 9779TIP3   OH250751   5.696   4.898  16.819 -0.2142 -0.6967 -0.0008
 9779TIP3    H150752   5.769   4.948  16.856 -1.9839  0.2023  2.5305
 9779TIP3    H250753   5.682   4.827  16.881 -1.4194 -0.9151 -0.5031
 9780TIP3   OH250754   5.049   6.374   5.189  0.2211  0.1220  0.1073
 9780TIP3    H150755   5.123   6.315   5.202 -1.0226 -1.7360 -0.7729
 9780TIP3    H250756   5.051   6.397   5.096 -2.0605 -2.6189 -0.7596
 9781TIP3   OH250757   3.779   5.544  11.476  0.3847  0.0493 -0.6179
 9781TIP3    H150758   3.694   5.585  11.489  0.1133  0.3627 -3.0017
 9781TIP3    H250759   3.835   5.582  11.545 -1.3574 -0.2260  1.0321
 9782TIP3   OH250760   0.297   0.979   5.077  0.0342 -0.0354  0.1109
 9782TIP3    H150761   0.258   0.921   5.143 -0.7448  0.0542 -0.2589
 9782TIP3    H250762   0.369   1.022   5.122 -0.3596 -0.1279  0.8458
 9783TIP3   OH250763   6.757   4.895   5.750 -0.0020 -0.8062 -0.2107
 9783TIP3    H150764   6.726   4.865   5.665 -1.6196 -0.3462  0.1867
 9783TIP3    H250765   6.788   4.815   5.794 -1.3674 -1.4354 -0.3400
 9784TIP3   OH250766   6.313   2.310  13.663  0.2592 -0.3859  0.2247
 9784TIP3    H150767   6.332   2.287  13.572 -0.5687 -1.5447  0.3221
 9784TIP3    H250768   6.396   2.295  13.709  1.0971  1.5737 -0.5458
 9785TIP3   OH250769   3.761   0.926  13.611 -0.1048 -0.2718 -0.3078
 9785TIP3    H150770   3.785   0.944  13.520 -1.2429 -1.1102 -0.7917
 9785TIP3    H250771   3.687   0.983  13.629  0.9448  0.8695  0.5497
 9786TIP3   OH250772   0.593   3.404   4.658  0.2543  0.0491 -0.2660
 9786TIP3    H150773   0.685   3.421   4.679  0.2291  0.5976 -0.5973
 9786TIP3    H250774   0.589   3.310   4.641  0.7261  0.0007 -0.1146
 9787TIP3   OH250775   2.706   3.616   2.151  0.2929 -0.1491  0.0797
 9787TIP3    H150776   2.782   3.612   2.209 -0.2834  0.1650  0.8803
 9787TIP3    H250777   2.631   3.619   2.210 -0.2463  1.9354 -0.6200
 9788TIP3   OH250778   2.080   0.013   3.322  0.4363  0.3605 -0.3941
 9788TIP3    H150779   2.168  -0.006   3.290  0.0050  0.8071 -1.8898
 9788TIP3    H250780   2.086   0.101   3.360  0.7499  0.1669  0.0144
 9789TIP3   OH250781   2.562   0.004  11.623  0.0397  0.1937 -1.0891
 9789TIP3    H150782   2.539  -0.072  11.570  0.9033 -0.0875 -1.0889
 9789TIP3    H250783   2.626   0.052  11.570  1.0697 -0.1994 -0.2532
 9790TIP3   OH250784   2.932   0.973   4.631  0.3361 -0.2975 -0.5228
 9790TIP3    H150785   2.940   1.007   4.720 -2.0957 -1.3415  0.1907
 9790TIP3    H250786   2.903   1.047   4.579 -1.0911 -0.3165  0.1996
 9791TIP3   OH250787   3.015   0.192  16.852  0.1418  0.0923 -0.1395
 9791TIP3    H150788   3.067   0.270  16.872  0.5378 -0.5964  1.7611
 9791TIP3    H250789   2.926   0.215  16.879 -0.1088  0.4893 -1.2711
 9792TIP3   OH250790   0.320   3.467   2.683 -0.1688 -0.2475  0.0429
 9792TIP3    H150791   0.416   3.463   2.687 -0.1509  0.0559 -0.0623
 9792TIP3    H250792   0.291   3.412   2.756  0.0964  0.4214  0.6770
 9793TIP3   OH250793   4.016   5.809   5.471 -0.5412  0.0264 -0.3206
 9793TIP3    H150794   4.101   5.816   5.429 -0.5727 -0.1389 -0.4130
 9793TIP3    H250795   3.956   5.856   5.413 -0.4611  0.4075 -0.1003
 9794TIP3   OH250796   5.806   3.883  13.736  0.6518  0.4368  0.7247
 9794TIP3    H150797   5.896   3.880  13.767  0.7626  3.7129  1.1439
 9794TIP3    H250798   5.781   3.975  13.745 -2.5596 -0.2358  0.0706
 9795TIP3   OH250799   5.951   3.220  12.914 -0.2393 -0.5626 -1.1378
 9795TIP3    H150800   6.036   3.225  12.870 -0.0595  0.1409 -0.7241
 9795TIP3    H250801   5.919   3.132  12.895  1.2229 -1.3414 -0.1103
 9796TIP3   OH250802   2.182   1.485  13.102  0.2197 -0.1973 -0.5542
 9796TIP3    H150803   2.167   1.575  13.132  0.3288 -0.1747 -0.5650
 9796TIP3    H250804   2.095   1.450  13.086  0.1933  0.0493 -0.9665
 9797TIP3   OH250805   3.751   0.791   5.804  0.0487 -0.3267  0.3855
 9797TIP3    H150806   3.709   0.775   5.888  1.4917 -0.8071  1.0354
 9797TIP3    H250807   3.800   0.873   5.817 -3.1649  2.1368 -1.3557
 9798TIP3   OH250808   0.812   1.073  14.278  0.0891  0.7132 -0.1775
 9798TIP3    H150809   0.879   1.050  14.213  1.8510 -0.3225  1.8985
 9798TIP3    H250810   0.843   1.155  14.316 -0.4000  0.7838  0.0751
 9799TIP3   OH250811   3.494   1.796  11.969  0.7123  0.0489 -0.0626
 9799TIP3    H150812   3.577   1.749  11.959  0.9944  0.3841  0.6498
 9799TIP3    H250813   3.510   1.881  11.927  0.6803  0.0611 -0.0493
 9800TIP3   OH250814   6.663   3.350  16.746  0.4561  0.0852 -0.2822
 9800TIP3    H150815   6.593   3.315  16.801  0.0051  0.9053 -0.3095
 9800TIP3    H250816   6.743   3.329  16.792  0.0426  1.6323  1.2474
 9801TIP3   OH250817   6.338   6.409   2.404 -0.2813  0.2839 -0.0551
 9801TIP3    H150818   6.390   6.373   2.476 -1.3930 -0.7657  0.2573
 9801TIP3    H250819   6.270   6.460   2.447 -0.3833  0.4438 -0.4025
 9802TIP3   OH250820   5.580   6.715  11.049 -0.1434 -0.1826 -0.1006
 9802TIP3    H150821   5.595   6.738  10.957 -2.1960  1.1261 -0.1616
 9802TIP3    H250822   5.603   6.622  11.054 -0.1932 -0.3356 -1.9739
 9803TIP3   OH250823   5.851   3.899   4.334 -0.3476 -0.0724  0.2336
 9803TIP3    H150824   5.769   3.890   4.285 -0.6168  0.9253  0.4759
 9803TIP3    H250825   5.891   3.979   4.300  0.4359 -0.4448  0.2589
 9804TIP3   OH250826   1.137   1.454  11.234  0.0489 -0.2659  0.4490
 9804TIP3    H150827   1.188   1.454  11.154 -0.2460 -0.4606  0.2606
 9804TIP3    H250828   1.122   1.547  11.253 -2.2589 -0.2027 -1.2454
 9805TIP3   OH250829   1.183   4.849   5.557 -0.3925 -0.3703 -0.1519
 9805TIP3    H150830   1.118   4.807   5.614 -1.1879  0.1525 -0.6481
 9805TIP3    H250831   1.145   4.842   5.469  0.0939  0.2056 -0.4090
 9806TIP3   OH250832   0.367   3.919  14.304 -0.8243 -0.6004  0.3216
 9806TIP3    H150833   0.437   3.854  14.300 -0.6675 -0.3712 -1.5151
 9806TIP3    H250834   0.332   3.923  14.215 -2.5642 -0.0292  0.9897
 9807TIP3   OH250835   5.693   0.113  15.699 -0.0413 -0.2354 -0.1167
 9807TIP3    H150836   5.716   0.020  15.705 -5.0842 -1.7389  0.8473
 9807TIP3    H250837   5.620   0.123  15.761 -2.0937  3.4654 -2.7759
 9808TIP3   OH250838   5.638   0.828   3.975 -0.0944 -0.1466  0.2688
 9808TIP3    H150839   5.565   0.798   4.029 -0.5046  1.0136  0.3886
 9808TIP3    H250840   5.696   0.873   4.037 -0.3449  0.7940 -0.1620
 9809TIP3   OH250841   3.318   5.448   1.485 -0.6503  0.5226  0.0969
 9809TIP3    H150842   3.265   5.503   1.428 -0.1767 -0.1184 -0.9747
 9809TIP3    H250843   3.304   5.359   1.454  1.2163  0.3540 -0.3727
 9810TIP3   OH250844   4.290   3.919   6.785 -0.1201  0.3131  0.4446
 9810TIP3    H150845   4.343   3.854   6.830 -1.1552  0.6026  2.1578
 9810TIP3    H250846   4.353   3.986   6.758  0.4651  0.4927  2.1421
 9811TIP3   OH250847   2.507   4.505   1.778  0.8390  0.6927 -0.2698
 9811TIP3    H150848   2.529   4.415   1.755 -0.3002  0.5538 -0.9111
 9811TIP3    H250849   2.524   4.555   1.699 -1.9462  0.4159 -1.1419
 9812TIP3   OH250850   0.955   3.077   1.786 -0.2921  0.3191  0.3831
 9812TIP3    H150851   0.973   3.120   1.703 -3.0908 -0.3031 -0.6671
 9812TIP3    H250852   0.951   3.149   1.850 -0.8760  1.1495 -0.5652
 9813TIP3   OH250853   4.792   0.360   5.831  0.3057 -0.0649  0.4613
 9813TIP3    H150854   4.744   0.433   5.869  1.2506  1.1535 -0.6122
 9813TIP3    H250855   4.724   0.302   5.795 -0.4656  0.0652  1.6437
 9814TIP3   OH250856   3.519   5.973   3.886 -0.0117  0.0708 -0.0928
 9814TIP3    H150857   3.605   5.982   3.845  1.9464  1.0298  3.7455
 9814TIP3    H250858   3.521   5.887   3.929 -1.3156 -0.2325 -0.5830
 9815TIP3   OH250859   2.420   4.765  14.333 -0.4371  0.0402 -0.5908
 9815TIP3    H150860   2.338   4.743  14.378 -1.3255  2.2792 -0.9780
 9815TIP3    H250861   2.393   4.791  14.245  0.5578  1.6001 -0.4787
 9816TIP3   OH250862   3.297   3.742  16.396 -0.6130  0.1837 -0.2062
 9816TIP3    H150863   3.306   3.713  16.487  0.4827  1.9436  0.2918
 9816TIP3    H250864   3.355   3.683  16.347 -1.4238 -0.9614  0.1436
 9817TIP3   OH250865   0.473   4.212  15.019 -0.6472 -0.6398  0.4718
 9817TIP3    H150866   0.430   4.218  14.934 -2.8530  1.5441  1.6176
 9817TIP3    H250867   0.441   4.130  15.056  2.1337 -2.8397 -1.5750
 9818TIP3   OH250868   2.968   5.901  12.203  0.0506  0.1519 -0.0453
 9818TIP3    H150869   2.946   5.965  12.271 -1.3120 -1.2334  0.8830
 9818TIP3    H250870   3.003   5.826  12.251  0.2547 -0.3738 -0.9816
 9819TIP3   OH250871   5.907   6.106  11.948 -0.4485 -0.5524  0.0373
 9819TIP3    H150872   5.832   6.047  11.955  1.2077 -2.5996  1.5521
 9819TIP3    H250873   5.960   6.070  11.876  0.6647 -1.0662  1.0850
 9820TIP3   OH250874   4.856   6.308  13.595 -0.2056  1.0682 -0.5194
 9820TIP3    H150875   4.869   6.329  13.502 -0.9915 -0.8176 -1.1075
 9820TIP3    H250876   4.787   6.369  13.623  1.1936  2.8149 -0.6523
 9821TIP3   OH250877   2.714   4.177  13.474  0.2202 -0.4224 -0.7053
 9821TIP3    H150878   2.622   4.202  13.472  0.2972 -0.1487 -1.8961
 9821TIP3    H250879   2.738   4.178  13.566 -1.0274 -0.7303 -0.3664
 9822TIP3   OH250880   3.188   3.664   1.251  0.0036  0.4192 -0.2096
 9822TIP3    H150881   3.096   3.681   1.274  0.3181  0.1688  1.3460
 9822TIP3    H250882   3.189   3.574   1.220 -0.1539  0.1318  0.5965
 9823TIP3   OH250883   4.706   3.922  14.115  0.1554  0.6260 -0.5322
 9823TIP3    H150884   4.690   3.999  14.061  1.7734  0.6032 -1.1158
 9823TIP3    H250885   4.643   3.857  14.084 -1.5346  1.8198  0.2764
 9824TIP3   OH250886   3.263   0.806   5.273  0.6822 -0.0766 -0.1969
 9824TIP3    H150887   3.287   0.858   5.197 -1.7913  0.9792 -0.3700
 9824TIP3    H250888   3.225   0.869   5.334 -0.4019 -1.3442  0.5044
 9825TIP3   OH250889   4.077   1.433  11.066 -0.4724 -0.0587 -0.6165
 9825TIP3    H150890   3.987   1.401  11.060 -0.5589 -0.6022  2.2546
 9825TIP3    H250891   4.131   1.354  11.074  0.2341  0.2839 -1.7000
 9826TIP3   OH250892   3.340   4.273   2.351  0.3597 -0.1411  0.3726
 9826TIP3    H150893   3.310   4.236   2.268  0.4585  1.7254 -0.5454
 9826TIP3    H250894   3.260   4.300   2.396  0.3524 -0.3722  0.4985
 9827TIP3   OH250895   2.197   0.360  14.751 -0.2825 -0.5526  0.1673
 9827TIP3    H150896   2.269   0.415  14.720 -0.0543 -1.7727 -1.6631
 9827TIP3    H250897   2.121   0.418  14.752  0.2240  0.1404 -0.3578
 9828TIP3   OH250898   2.555   0.635   4.680  0.2649  0.3744 -0.4034
 9828TIP3    H150899   2.546   0.600   4.769  0.9822 -0.4632 -0.6379
 9828TIP3    H250900   2.643   0.671   4.678 -0.5784  2.5850 -0.0699
 9829TIP3   OH250901   3.647   5.442  14.052 -0.0308 -0.6016  0.1394
 9829TIP3    H150902   3.613   5.411  13.969  0.0623  2.2781 -1.0609
 9829TIP3    H250903   3.573   5.433  14.113 -0.7498 -0.8071 -0.7418
 9830TIP3   OH250904   1.755   0.332   2.237 -0.1068  0.6182 -0.3777
 9830TIP3    H150905   1.826   0.385   2.271  0.6704 -0.3280 -0.4753
 9830TIP3    H250906   1.768   0.332   2.142  1.6625 -2.0629 -0.2289
 9831TIP3   OH250907   0.443   5.430  15.077  0.0831  0.2445 -0.6879
 9831TIP3    H150908   0.429   5.376  14.999  1.6502 -0.1625 -0.7316
 9831TIP3    H250909   0.474   5.514  15.043 -0.2690  0.4369 -0.5399
 9832TIP3   OH250910   5.695   3.494   4.027  0.5451  0.4791 -0.0549
 9832TIP3    H150911   5.701   3.551   3.950  2.4585  0.4125  0.0095
 9832TIP3    H250912   5.749   3.537   4.094  0.0302 -0.1703  0.8131
 9833TIP3   OH250913   5.232   5.714   5.014 -0.3979  0.4608 -0.0335
 9833TIP3    H150914   5.211   5.645   5.077  0.0424  0.3043 -0.0547
 9833TIP3    H250915   5.173   5.698   4.941  0.1094 -0.2672 -0.2999
 9834TIP3   OH250916   0.140   5.382   3.753 -0.1642  0.0501 -0.5860
 9834TIP3    H150917   0.197   5.437   3.806 -2.1019 -0.3678  2.1261
 9834TIP3    H250918   0.082   5.443   3.707 -2.1425  0.4762  2.2134
 9835TIP3   OH250919   1.735   3.349   4.352 -0.3942 -0.6852  0.0679
 9835TIP3    H150920   1.749   3.438   4.321  0.7887  0.3766  3.3297
 9835TIP3    H250921   1.787   3.295   4.292 -0.8453  0.7843 -1.7449
 9836TIP3   OH250922   3.733   1.627  11.215 -0.0022  0.5449  0.0692
 9836TIP3    H150923   3.712   1.716  11.188  2.1791  1.3970  0.9588
 9836TIP3    H250924   3.797   1.597  11.150 -1.9326 -1.0832 -1.2156
 9837TIP3   OH250925   1.522   5.701   5.339 -0.2038  0.4374 -0.2544
 9837TIP3    H150926   1.432   5.669   5.338 -0.3255  0.4712  2.6519
 9837TIP3    H250927   1.575   5.624   5.321 -0.7140 -0.4624  1.7911
 9838TIP3   OH250928   5.195   5.678  11.861 -0.7598 -0.0182  0.0793
 9838TIP3    H150929   5.222   5.650  11.774 -0.3777  0.2816  0.0961
 9838TIP3    H250930   5.127   5.744  11.846 -0.2887  0.4563 -0.0137
 9839TIP3   OH250931   2.172   1.879   1.782 -0.2028  0.1021  0.3892
 9839TIP3    H150932   2.101   1.933   1.816 -0.5027  0.3872 -0.6465
 9839TIP3    H250933   2.171   1.895   1.688 -0.6790 -2.1125 -0.0512
 9840TIP3   OH250934   5.924   2.316  11.699  0.0076 -0.2638  0.3232
 9840TIP3    H150935   5.860   2.276  11.758 -0.8878 -1.5429 -1.4106
 9840TIP3    H250936   5.988   2.247  11.683 -1.5772 -1.1911 -2.7478
 9841TIP3   OH250937   0.052   6.736  16.771 -0.0619 -0.7596  0.1429
 9841TIP3    H150938   0.002   6.745  16.689  0.5935 -0.1048 -0.1911
 9841TIP3    H250939   0.138   6.773  16.751 -0.0909 -0.0412  1.3124
 9842TIP3   OH250940   3.593   3.547  14.091  0.8134  0.3666  0.0030
 9842TIP3    H150941   3.562   3.459  14.069 -0.2016  0.7916 -0.3021
 9842TIP3    H250942   3.627   3.582  14.009  0.2470  0.6470 -0.1150
 9843TIP3   OH250943   3.247   4.028  16.627  0.1205 -0.6429  0.0029
 9843TIP3    H150944   3.184   4.057  16.693  0.9026  1.2776  0.0032
 9843TIP3    H250945   3.241   4.095  16.559  1.2476 -1.1113 -0.5748
 9844TIP3   OH250946   4.910   2.483  14.865  0.5442  0.0096 -0.1560
 9844TIP3    H150947   4.975   2.430  14.910 -0.1462 -0.6187  0.1333
 9844TIP3    H250948   4.922   2.463  14.773 -0.2573 -1.3186  0.0060
 9845TIP3   OH250949   6.352   1.735   1.044 -0.1795 -0.5779  0.3594
 9845TIP3    H150950   6.309   1.811   1.082 -0.1911 -0.4503  0.0960
 9845TIP3    H250951   6.429   1.770   1.000 -1.3861 -0.3928 -1.7347
 9846TIP3   OH250952   6.198   3.957   2.682 -0.1508 -0.7163 -0.0673
 9846TIP3    H150953   6.146   3.879   2.702  0.3190 -1.0656 -0.1889
 9846TIP3    H250954   6.150   3.999   2.610 -0.2493 -1.0480 -0.1982
 9847TIP3   OH250955   3.286   0.728   2.887  0.1441 -0.3068  0.2863
 9847TIP3    H150956   3.346   0.670   2.840 -1.9560 -0.5520 -2.3243
 9847TIP3    H250957   3.325   0.815   2.878  0.3108 -0.5039 -1.1165
 9848TIP3   OH250958   3.787   0.258  16.520  0.1614  0.1021  0.3460
 9848TIP3    H150959   3.807   0.194  16.589 -2.4097  0.0735  1.1744
 9848TIP3    H250960   3.692   0.252  16.509  0.3732  0.7110 -2.6517
 9849TIP3   OH250961   5.544   3.448   3.619 -0.2886  0.1070  0.1652
 9849TIP3    H150962   5.452   3.457   3.645 -0.5719 -0.1545 -0.7090
 9849TIP3    H250963   5.541   3.391   3.542  0.3255  2.3369 -1.6192
 9850TIP3   OH250964   5.543   5.367   1.149  0.4414  0.4309  0.1304
 9850TIP3    H150965   5.581   5.372   1.237 -0.3921  0.6539  0.4911
 9850TIP3    H250966   5.449   5.377   1.164  0.1566 -0.9641 -0.6603
 9851TIP3   OH250967   2.527   0.550  12.247 -0.3891  0.0498 -0.5744
 9851TIP3    H150968   2.478   0.538  12.328 -0.2337 -0.3917 -0.5421
 9851TIP3    H250969   2.478   0.501  12.181 -0.8506  0.9130 -0.8852
 9852TIP3   OH250970   1.926   0.477  12.905  0.2538  0.4524  0.1510
 9852TIP3    H150971   1.884   0.403  12.948  1.9348 -1.4010 -1.1713
 9852TIP3    H250972   2.009   0.488  12.952  0.7611  0.3512 -0.6906
 9853TIP3   OH250973   1.876   5.364   3.317  0.2706  0.3334 -0.9159
 9853TIP3    H150974   1.837   5.427   3.255 -0.2054 -1.0862 -2.1220
 9853TIP3    H250975   1.918   5.299   3.261 -0.4314 -1.1633  0.2470
 9854TIP3   OH250976   2.852   2.337  12.435  0.5744  0.5632 -0.0589
 9854TIP3    H150977   2.759   2.340  12.412  0.1746  1.9803  1.4876
 9854TIP3    H250978   2.898   2.360  12.355 -0.2981 -1.3932 -1.1962
 9855TIP3   OH250979   3.319   5.646   1.691  0.3215 -0.0683  0.1853
 9855TIP3    H150980   3.305   5.570   1.635  1.3505  0.3667 -0.6990
 9855TIP3    H250981   3.309   5.721   1.632 -1.6948  0.5787  1.2274
 9856TIP3   OH250982   1.398   1.490   0.956  0.4480 -0.6639  0.0429
 9856TIP3    H150983   1.391   1.585   0.953  2.1134 -0.4368  1.8306
 9856TIP3    H250984   1.386   1.468   1.048 -0.6662 -2.2981 -0.4404
 9857TIP3   OH250985   3.123   1.630   3.050 -0.2776  0.6839  0.1619
 9857TIP3    H150986   3.095   1.632   2.959  0.2828 -1.0186 -0.0746
 9857TIP3    H250987   3.217   1.651   3.047  0.4276 -2.1295 -0.0197
 9858TIP3   OH250988   0.973   6.039   0.614 -0.0260  0.2496 -0.3471
 9858TIP3    H150989   1.007   5.973   0.553 -1.0256 -1.0514  0.4372
 9858TIP3    H250990   0.882   6.051   0.588 -0.5430 -0.5267  1.0106
 9859TIP3   OH250991   6.056   4.609   4.871 -0.0400  0.0770 -0.4079
 9859TIP3    H150992   5.973   4.595   4.826  0.9959  1.0759 -2.8592
 9859TIP3    H250993   6.108   4.531   4.850  0.5420  0.6660 -1.2252
 9860TIP3   OH250994   4.896   5.198   5.396 -0.0980 -0.1110 -0.0330
 9860TIP3    H150995   4.911   5.250   5.475  3.1169 -0.3235 -0.3705
 9860TIP3    H250996   4.804   5.170   5.403 -0.6655  1.9515  2.3021
 9861TIP3   OH250997   4.937   3.110  13.912 -0.2786  0.3836  0.3476
 9861TIP3    H150998   4.877   3.069  13.974  0.3564 -1.3022 -0.0781
 9861TIP3    H250999   5.015   3.131  13.963 -0.2010  0.0521  0.3715
 9862TIP3   OH251000   6.510   4.324  11.010  0.0654 -0.0050 -0.5117
 9862TIP3    H151001   6.524   4.419  11.017  2.3526 -0.3475  0.0699
 9862TIP3    H251002   6.543   4.289  11.093 -1.7671 -1.2605 -0.2500
 9863TIP3   OH251003   0.160   3.034  14.568 -0.2094  0.3429  0.3262
 9863TIP3    H151004   0.073   3.073  14.560  0.0893  1.1415  0.8845
 9863TIP3    H251005   0.149   2.945  14.533 -1.5124  0.0262  1.4428
 9864TIP3   OH251006   3.100   5.770   1.119  0.0480 -0.1143 -0.5549
 9864TIP3    H151007   3.172   5.809   1.069  1.2928 -1.3333  0.2284
 9864TIP3    H251008   3.066   5.701   1.062  1.4371 -1.4744  0.1775
 9865TIP3   OH251009   4.701   2.359  11.743 -0.3879 -0.6675  0.2129
 9865TIP3    H151010   4.790   2.332  11.719  0.0157  0.0770  0.8084
 9865TIP3    H251011   4.653   2.276  11.752 -0.3490 -1.0135 -2.2052
 9866TIP3   OH251012   4.673   5.641  16.168  0.3152 -0.0064 -0.1257
 9866TIP3    H151013   4.681   5.546  16.170 -0.0476 -0.0473 -0.4621
 9866TIP3    H251014   4.690   5.665  16.077 -0.8676  0.1251 -0.3279
 9867TIP3   OH251015   6.486   6.255  11.364  0.2036  0.0365  0.0929
 9867TIP3    H151016   6.536   6.292  11.437 -0.2389 -1.7169  1.3458
 9867TIP3    H251017   6.552   6.237  11.297  1.0854 -0.9439  1.1732
 9868TIP3   OH251018   6.411   4.150   1.983 -0.1665  0.6422  0.3424
 9868TIP3    H151019   6.499   4.125   1.955 -0.3755 -0.0254  0.2456
 9868TIP3    H251020   6.357   4.073   1.963 -0.6336  0.7678  1.0534
 9869TIP3   OH251021   5.448   1.035   5.475 -0.8617  0.0342  0.9475
 9869TIP3    H151022   5.507   0.979   5.525 -2.2036 -0.1288  2.4252
 9869TIP3    H251023   5.378   0.976   5.445  0.2238 -0.0184 -1.7832
 9870TIP3   OH251024   5.662   3.780  12.877  0.1237  0.1778 -0.1079
 9870TIP3    H151025   5.682   3.794  12.785 -0.4337 -0.4386 -0.3288
 9870TIP3    H251026   5.744   3.800  12.923  0.2457  1.0301 -0.6784
 9871TIP3   OH251027   3.355   0.378   0.637 -0.2408 -0.1965 -0.8135
 9871TIP3    H151028   3.407   0.299   0.651  0.6362  0.6505  1.2447
 9871TIP3    H251029   3.264   0.349   0.645  0.0763 -0.9364  0.5151
 9872TIP3   OH251030   4.609   5.897   1.738  0.1366  0.0427 -0.2516
 9872TIP3    H151031   4.602   5.884   1.833 -0.6951  3.1372  0.2223
 9872TIP3    H251032   4.520   5.880   1.705  0.3882 -0.8749 -0.4852
 9873TIP3   OH251033   4.190   2.387  11.895 -0.0075 -0.3667 -0.6565
 9873TIP3    H151034   4.257   2.441  11.938  0.5617 -2.2235  0.9130
 9873TIP3    H251035   4.219   2.382  11.804  0.0378  1.7267 -0.8148
 9874TIP3   OH251036   4.376   2.275  12.818  0.0228  0.1012  0.5830
 9874TIP3    H151037   4.326   2.323  12.883 -0.2224 -0.1633  0.5910
 9874TIP3    H251038   4.386   2.336  12.745  1.8102  1.0483  1.5299
 9875TIP3   OH251039   5.989   4.476  12.362  0.2522  0.7605 -0.0462
 9875TIP3    H151040   6.002   4.539  12.433  1.8594  0.9982 -0.5248
 9875TIP3    H251041   6.007   4.526  12.282  1.9800 -0.3804 -0.4130
 9876TIP3   OH251042   6.074   0.267  16.847  0.5324  0.5975  0.9066
 9876TIP3    H151043   6.161   0.287  16.812  1.2572  0.6626  2.6354
 9876TIP3    H251044   6.061   0.174  16.829  1.8879  0.0618  2.4089
 9877TIP3   OH251045   3.960   5.831  14.984  0.0725  0.2536 -0.2260
 9877TIP3    H151046   3.960   5.817  14.889  0.5675  0.2448 -0.2286
 9877TIP3    H251047   3.933   5.747  15.021  1.5330 -0.2785 -0.3020
 9878TIP3   OH251048   3.044   0.670   3.262 -0.0388 -0.4924 -0.0491
 9878TIP3    H151049   3.019   0.729   3.333  1.9587  0.7647 -0.3194
 9878TIP3    H251050   2.975   0.682   3.196 -1.6943 -1.3688  1.4271
 9879TIP3   OH251051   2.256   2.038  14.174  0.1442  0.1584 -0.3011
 9879TIP3    H151052   2.349   2.054  14.156  0.0543  0.6678 -0.3278
 9879TIP3    H251053   2.214   2.040  14.087  0.1044 -0.0653 -0.2883
 9880TIP3   OH251054   5.067   1.973  13.198 -0.0808  0.4483 -0.2012
 9880TIP3    H151055   5.028   2.053  13.162 -0.1031  0.4731 -0.1225
 9880TIP3    H251056   5.153   2.002  13.230 -0.3707  0.5890  0.4628
 9881TIP3   OH251057   5.994   5.419   3.331  1.2405  0.4269 -0.4532
 9881TIP3    H151058   6.020   5.389   3.418  0.3917  0.2149 -0.2641
 9881TIP3    H251059   6.037   5.358   3.271  0.9220 -0.1115 -0.1388
 9882TIP3   OH251060   3.098   1.984   3.975 -0.0384  0.0018  0.2699
 9882TIP3    H151061   3.108   1.890   3.993  0.4880  0.3591  2.0738
 9882TIP3    H251062   3.029   2.013   4.034  0.9336  1.0404  0.9418
 9883TIP3   OH251063   4.374   1.296  14.860  0.7647 -0.1130  0.2552
 9883TIP3    H151064   4.282   1.286  14.836  1.1015 -0.9616 -0.7677
 9883TIP3    H251065   4.374   1.295  14.956 -0.3683  0.7422  0.2833
 9884TIP3   OH251066   6.542   0.002   0.326  0.2313  0.4187  0.0682
 9884TIP3    H151067   6.574   0.010   0.236 -1.4959  2.4412 -0.4555
 9884TIP3    H251068   6.593  -0.070   0.364  1.1905 -0.3068 -2.4231
 9885TIP3   OH251069   2.599   1.960  16.056  0.1686 -0.6993  0.1574
 9885TIP3    H151070   2.611   1.920  16.142  0.4693  0.1529  0.5202
 9885TIP3    H251071   2.682   2.006  16.039 -1.0835  2.0332  0.9487
 9886TIP3   OH251072   2.523   2.218   4.489 -0.3754 -0.0695  0.7484
 9886TIP3    H151073   2.463   2.272   4.540  1.0718  1.1611  1.1989
 9886TIP3    H251074   2.596   2.275   4.468  0.6258 -1.5049  0.1315
 9887TIP3   OH251075   4.461   6.665   2.021 -0.1341  0.0181  0.2145
 9887TIP3    H151076   4.502   6.654   2.107 -0.3154 -1.1928  0.1580
 9887TIP3    H251077   4.467   6.759   2.004 -1.2788  0.5135  2.1470
 9888TIP3   OH251078   2.185   2.979  11.384 -0.6586  0.3000 -0.1929
 9888TIP3    H151079   2.105   3.031  11.379  0.1778  1.5389 -1.4641
 9888TIP3    H251080   2.236   3.018  11.455 -0.0843  1.2061 -1.0680
 9889TIP3   OH251081   5.377   4.113   0.618 -0.0666  0.2575 -0.1715
 9889TIP3    H151082   5.350   4.194   0.574  0.4445 -0.2361 -1.4380
 9889TIP3    H251083   5.467   4.099   0.589  0.7908  0.6039  2.1128
 9890TIP3   OH251084   4.046   4.102  13.062  0.6200 -0.4230  0.3202
 9890TIP3    H151085   4.066   4.179  13.008  0.1284  0.8894  1.9349
 9890TIP3    H251086   4.073   4.127  13.150  1.1226 -2.4001  0.7865
 9891TIP3   OH251087   1.608   6.581   0.403 -0.0649 -0.0903 -0.7042
 9891TIP3    H151088   1.681   6.566   0.465 -0.4651 -0.2973 -0.2737
 9891TIP3    H251089   1.548   6.639   0.450 -0.9026 -1.1207 -0.4613
 9892TIP3   OH251090   4.820   0.781   4.596 -0.0994 -0.2588 -0.2919
 9892TIP3    H151091   4.825   0.722   4.671  1.4848 -0.1430 -0.2614
 9892TIP3    H251092   4.877   0.740   4.530 -1.0760 -0.1056 -1.2613
 9893TIP3   OH251093   5.279   2.839   5.012  0.4260 -0.1321 -0.0889
 9893TIP3    H151094   5.268   2.845   5.107  2.3501 -1.2352  0.2601
 9893TIP3    H251095   5.198   2.800   4.981 -0.2430  0.2486  1.0901
 9894TIP3   OH251096   4.982   0.593   4.473  0.2217 -0.0688 -0.4985
 9894TIP3    H151097   4.924   0.531   4.428  1.5190 -1.4848 -0.2861
 9894TIP3    H251098   5.042   0.538   4.522 -0.0047  1.4161  1.5543
 9895TIP3   OH251099   5.218   1.263   3.854 -0.2743  0.5734 -0.4009
 9895TIP3    H151100   5.222   1.321   3.930  1.1874 -0.1556  0.1177
 9895TIP3    H251101   5.234   1.175   3.889  0.3407  0.2103 -1.5371
 9896TIP3   OH251102   4.404   4.012  16.644 -0.0806 -0.7768 -0.1031
 9896TIP3    H151103   4.422   4.086  16.702 -1.6853  0.4987 -1.1651
 9896TIP3    H251104   4.490   3.973  16.629  0.7870  0.7451  0.6379
 9897TIP3   OH251105   1.289   2.370   2.393 -1.1205 -0.0346  0.1672
 9897TIP3    H151106   1.243   2.389   2.311 -1.0369  1.6062  0.4681
 9897TIP3    H251107   1.301   2.456   2.434  0.4627 -0.6302  1.0332
 9898TIP3   OH251108   0.769   4.598   5.130 -0.2122  0.8251  0.2134
 9898TIP3    H151109   0.785   4.647   5.211  0.4208  1.0430 -0.0370
 9898TIP3    H251110   0.750   4.509   5.160  2.5317  0.2450  0.5620
 9899TIP3   OH251111   0.935   3.587  11.520 -0.9000  0.1640  0.4204
 9899TIP3    H151112   0.958   3.680  11.516 -0.0059 -0.0662 -0.1818
 9899TIP3    H251113   0.842   3.585  11.501 -0.7585  0.8787 -0.4358
 9900TIP3   OH251114   0.429   6.348  12.566  0.3558 -0.0814 -0.3403
 9900TIP3    H151115   0.454   6.275  12.510  1.1933  0.1974 -0.3332
 9900TIP3    H251116   0.456   6.426  12.518  0.1612  0.1972 -0.0056
 9901TIP3   OH251117   3.146   2.616  13.579 -0.1814  0.1176  0.4244
 9901TIP3    H151118   3.229   2.582  13.546 -0.5375 -3.6267  2.7446
 9901TIP3    H251119   3.171   2.683  13.643  1.2937 -2.0914  2.3168
 9902TIP3   OH251120   4.751   3.322   1.887  0.3559 -0.2698 -0.0532
 9902TIP3    H151121   4.663   3.310   1.853  0.1534  0.0822  0.3351
 9902TIP3    H251122   4.800   3.362   1.815  0.1129 -0.1553 -0.1553
 9903TIP3   OH251123   1.488   1.384   2.842  0.2540  0.2828  1.0073
 9903TIP3    H151124   1.446   1.310   2.886 -1.1049  0.6491  0.3861
 9903TIP3    H251125   1.572   1.350   2.812 -1.2567 -1.7674 -1.3253
 9904TIP3   OH251126   0.949   0.391   2.562 -0.2774 -0.9578 -0.3233
 9904TIP3    H151127   0.896   0.469   2.580  0.8261 -0.5885  1.6499
 9904TIP3    H251128   0.920   0.327   2.627  2.3830 -0.3524  1.6179
 9905TIP3   OH251129   4.831   0.613   3.112  0.3473  0.3761 -0.6961
 9905TIP3    H151130   4.825   0.709   3.113 -1.7808  0.2861 -0.3758
 9905TIP3    H251131   4.847   0.590   3.204  2.8659  0.4583 -1.0516
 9906TIP3   OH251132   6.667   1.515   0.495  0.2112  0.1706  0.3869
 9906TIP3    H151133   6.626   1.525   0.409 -0.4726  0.0943  0.6994
 9906TIP3    H251134   6.761   1.515   0.476  0.2524  3.5579 -0.0427
 9907TIP3   OH251135   2.030   6.340  12.064 -0.2973 -0.0593 -0.1961
 9907TIP3    H151136   1.974   6.309  12.135  0.3101  0.6840  0.6234
 9907TIP3    H251137   2.069   6.260  12.028 -0.6441 -0.4501  0.2772
 9908TIP3   OH251138   1.329   0.560   6.033  0.2208  0.6644 -0.2747
 9908TIP3    H151139   1.357   0.510   6.109 -1.1072  0.3922  0.0671
 9908TIP3    H251140   1.233   0.557   6.036  0.1133 -0.1892 -2.4857
 9909TIP3   OH251141   4.170   5.274  16.418  0.3498  0.1660  0.1434
 9909TIP3    H151142   4.239   5.207  16.422  0.5954  0.3984 -0.1339
 9909TIP3    H251143   4.214   5.356  16.440  0.9919  0.9069 -3.2592
 9910TIP3   OH251144   0.462   0.912  11.777 -0.1440 -0.7288 -0.1561
 9910TIP3    H151145   0.411   0.991  11.756  1.0515  0.1074 -0.0174
 9910TIP3    H251146   0.526   0.906  11.705  1.5830  0.0497  1.2375
 9911TIP3   OH251147   2.603   4.715   1.614 -0.3895 -0.3620 -0.3013
 9911TIP3    H151148   2.643   4.736   1.530 -1.2802  0.8947 -0.4502
 9911TIP3    H251149   2.658   4.758   1.679 -0.5731 -0.0265 -0.3685
 9912TIP3   OH251150   6.763   0.056  16.514  0.1260 -0.1392  0.1195
 9912TIP3    H151151   6.760  -0.022  16.459  0.4870 -1.5203  1.9644
 9912TIP3    H251152   6.838   0.106  16.482  0.9091 -1.3910 -0.0191
 9913TIP3   OH251153   1.790   5.853   0.046 -0.4677  0.4557  0.0121
 9913TIP3    H151154   1.800   5.768   0.089  1.3826  0.0005 -1.2200
 9913TIP3    H251155   1.756   5.832  -0.041  0.8918  0.8593 -0.6409
 9914TIP3   OH251156   3.997   2.583  17.114 -1.1966  0.2207 -0.6741
 9914TIP3    H151157   4.012   2.630  17.196  0.0273 -0.1532 -0.6590
 9914TIP3    H251158   3.902   2.583  17.103 -1.3160  1.1334  0.2318
 9915TIP3   OH251159   1.620   3.377   2.909  0.1488 -0.0406 -0.0316
 9915TIP3    H151160   1.690   3.313   2.919  0.0343 -0.4751 -1.7427
 9915TIP3    H251161   1.563   3.362   2.985  0.0003 -2.1525 -0.5026
 9916TIP3   OH251162   0.827   2.766   0.339  0.3384  0.1834 -0.3927
 9916TIP3    H151163   0.868   2.685   0.369  0.9059  1.0444  1.3167
 9916TIP3    H251164   0.900   2.825   0.321 -0.0872  0.7578 -0.2738
 9917TIP3   OH251165   0.060   4.221  12.387 -0.2937 -0.3439  0.4289
 9917TIP3    H151166   0.031   4.307  12.418 -1.3440 -0.4538 -0.2034
 9917TIP3    H251167   0.020   4.159  12.448  0.1785 -0.4053  0.6786
 9918TIP3   OH251168   3.419   1.649   4.173  0.1511  0.0415 -0.2897
 9918TIP3    H151169   3.493   1.662   4.232 -0.0651 -0.6540  0.1587
 9918TIP3    H251170   3.358   1.595   4.224 -1.2010  1.5960 -0.1876
 9919TIP3   OH251171   5.917   0.517  13.564  0.1499  0.0275 -0.1298
 9919TIP3    H151172   5.839   0.485  13.610  0.0487  1.0516  0.4339
 9919TIP3    H251173   5.889   0.599  13.524  1.4887  1.5120  1.8476
 9920TIP3   OH251174   1.648   6.053  12.621 -0.4048 -0.0363 -0.0010
 9920TIP3    H151175   1.658   5.996  12.544  1.5922 -1.5117  1.2438
 9920TIP3    H251176   1.674   6.140  12.590  0.7618 -0.6787 -0.9270
 9921TIP3   OH251177   4.765   5.419   4.686  0.5576  0.0279 -0.4374
 9921TIP3    H151178   4.766   5.323   4.684  1.0650  0.0371 -0.7279
 9921TIP3    H251179   4.728   5.445   4.602 -0.5411  0.0796  0.0468
 9922TIP3   OH251180   2.167   3.150  13.346  0.4096  0.5393 -0.0922
 9922TIP3    H151181   2.256   3.137  13.378  0.3603 -1.9214 -0.7844
 9922TIP3    H251182   2.173   3.230  13.292  1.7658  1.3834  1.2341
 9923TIP3   OH251183   0.392   4.484   2.269 -0.0171  0.0499 -0.3248
 9923TIP3    H151184   0.415   4.573   2.241  1.8412 -0.4015 -0.3420
 9923TIP3    H251185   0.467   4.455   2.321  1.0864 -2.7426 -3.1259
 9924TIP3   OH251186   2.830   6.358  16.632 -1.0325 -0.2069 -0.0467
 9924TIP3    H151187   2.860   6.360  16.723 -0.5833  0.6663 -0.2041
 9924TIP3    H251188   2.887   6.294  16.589  0.5827  1.3183 -0.3069
 9925TIP3   OH251189   6.059   3.396   6.247  0.0033 -0.0805  0.3629
 9925TIP3    H151190   6.013   3.473   6.283 -0.9181 -0.3204 -0.2483
 9925TIP3    H251191   6.107   3.360   6.321  1.1885  1.6001  0.4607
 9926TIP3   OH251192   0.031   3.128   4.164 -0.3928 -0.1573  0.0808
 9926TIP3    H151193   0.082   3.051   4.140 -0.1693 -0.1953  0.6649
 9926TIP3    H251194  -0.051   3.092   4.199  0.4526 -0.2106  2.1087
 9927TIP3   OH251195   4.947   5.357  16.396 -0.0144  0.0927 -0.1947
 9927TIP3    H151196   4.968   5.296  16.325 -0.2964  1.5380 -1.5809
 9927TIP3    H251197   4.954   5.443  16.355  0.0042  0.9782  1.6107
 9928TIP3   OH251198   3.104   0.298   0.626 -0.0940  0.3543  0.4786
 9928TIP3    H151199   3.060   0.379   0.602  0.6484  0.5498 -0.2942
 9928TIP3    H251200   3.049   0.259   0.694 -0.1852  1.7552  1.2367
 9929TIP3   OH251201   2.455   1.148   1.160  0.2407  0.0711  0.5569
 9929TIP3    H151202   2.503   1.133   1.242  1.7374  1.7305  0.0523
 9929TIP3    H251203   2.463   1.242   1.145 -0.3363 -0.1456 -1.3265
 9930TIP3   OH251204   3.655   1.945  15.584  0.1734  0.6758 -0.1657
 9930TIP3    H151205   3.576   1.973  15.537  0.2805  1.9557  0.3568
 9930TIP3    H251206   3.622   1.906  15.665 -0.0126 -1.5377 -1.2287
 9931TIP3   OH251207   2.527   5.133   3.101  0.1504  0.1756  0.9464
 9931TIP3    H151208   2.599   5.078   3.072 -1.2273 -1.6112  0.7222
 9931TIP3    H251209   2.549   5.157   3.191  1.2671  0.1512  0.6892
 9932TIP3   OH251210   3.713   2.170  14.104 -0.0394 -0.7489  0.2155
 9932TIP3    H151211   3.743   2.093  14.151  2.2569  0.4116  0.8182
 9932TIP3    H251212   3.791   2.224  14.094 -1.8092  2.3387  1.4351
 9933TIP3   OH251213   6.600   5.395  11.508  0.6938 -0.2567 -0.3237
 9933TIP3    H151214   6.549   5.317  11.485 -0.4877  0.1907  0.6566
 9933TIP3    H251215   6.623   5.381  11.600  0.1593  0.7118 -0.0365
 9934TIP3   OH251216   4.465   0.373   2.515  0.5233  0.1284 -0.0987
 9934TIP3    H151217   4.556   0.356   2.539  0.3905 -1.7756 -0.8347
 9934TIP3    H251218   4.438   0.295   2.467 -1.1520  1.1611 -0.8956
 9935TIP3   OH251219   0.483   6.390   0.254  0.6160 -0.3760  0.1425
 9935TIP3    H151220   0.522   6.444   0.323  2.2926  1.6633 -2.1987
 9935TIP3    H251221   0.389   6.406   0.261  0.9922  2.3756  0.0437
 9936TIP3   OH251222   5.160   5.531  15.618 -0.4026 -0.3502 -0.6063
 9936TIP3    H151223   5.153   5.437  15.636  2.7370 -0.7181 -0.8144
 9936TIP3    H251224   5.155   5.537  15.523  0.0930 -0.4009 -0.6376
 9937TIP3   OH251225   5.559   5.547  13.388  0.5895 -0.6623  0.0109
 9937TIP3    H151226   5.474   5.588  13.402 -0.6561 -2.9147 -0.4583
 9937TIP3    H251227   5.550   5.499  13.306  1.7184 -2.3068  0.7673
 9938TIP3   OH251228   3.946   1.098   1.550 -0.2059 -0.3953 -0.0174
 9938TIP3    H151229   3.905   1.080   1.634  0.5601 -0.9827  0.2423
 9938TIP3    H251230   4.009   1.027   1.538  0.6418  0.4132 -0.4641
 9939TIP3   OH251231   2.678   6.062  16.636 -0.5165 -0.2398  0.2119
 9939TIP3    H151232   2.687   6.137  16.578  1.5988  0.4941  1.3835
 9939TIP3    H251233   2.718   5.990  16.589  0.6438  0.2163  0.4637
 9940TIP3   OH251234   4.264   2.751  15.262 -0.8687  0.1191  0.0331
 9940TIP3    H151235   4.303   2.833  15.294 -0.8291  0.3089 -0.5027
 9940TIP3    H251236   4.259   2.762  15.167  0.6217 -1.1458 -0.2201
 9941TIP3   OH251237   3.925   4.123   4.821  0.1239  0.1457 -0.0103
 9941TIP3    H151238   3.861   4.086   4.883 -0.4044  0.6258 -0.2569
 9941TIP3    H251239   3.961   4.200   4.867 -0.9585  1.0654 -0.6385
 9942TIP3   OH251240   4.107   0.480  11.546  0.1710  0.1956 -0.3025
 9942TIP3    H151241   4.135   0.478  11.455  0.0779 -0.3699 -0.3243
 9942TIP3    H251242   4.056   0.400  11.557 -1.0565  0.9685 -0.1454
 9943TIP3   OH251243   6.369   5.492  16.886 -0.2955  0.0434  0.2890
 9943TIP3    H151244   6.310   5.567  16.875 -0.1119  0.2261  0.5186
 9943TIP3    H251245   6.433   5.522  16.950 -1.2289 -0.9076  1.7250
 9944TIP3   OH251246   1.046   1.299   5.194  0.1255  0.4755 -0.9947
 9944TIP3    H151247   1.028   1.380   5.146 -1.9845  0.6161 -0.0738
 9944TIP3    H251248   1.048   1.326   5.286 -1.8936 -0.6532 -0.5711
 9945TIP3   OH251249   5.875   6.366   1.277  0.2304 -0.1459 -0.0135
 9945TIP3    H151250   5.955   6.369   1.225 -0.8449  0.5243 -1.7157
 9945TIP3    H251251   5.864   6.455   1.310  1.3843 -0.7605  2.2329
 9946TIP3   OH251252   4.518   1.134   2.585 -0.0021 -0.1247  0.1216
 9946TIP3    H151253   4.473   1.062   2.541 -1.5359  0.1414  1.1553
 9946TIP3    H251254   4.591   1.093   2.631 -1.4849 -1.2390  1.5851
 9947TIP3   OH251255   4.944   0.208   5.395 -0.2543  0.4356  0.9027
 9947TIP3    H151256   4.992   0.209   5.478  0.0101  0.7755  0.7516
 9947TIP3    H251257   4.856   0.179   5.418  0.1154 -0.5312  1.1349
 9948TIP3   OH251258   1.623   2.025  12.823  0.0216 -0.0191 -0.4951
 9948TIP3    H151259   1.718   2.022  12.810 -0.1398 -1.7624 -1.4319
 9948TIP3    H251260   1.611   2.004  12.916  0.5006 -0.8743 -0.6241
 9949TIP3   OH251261   0.124   2.236  16.463  0.1984 -0.2298  0.1161
 9949TIP3    H151262   0.080   2.294  16.402  0.4805 -0.1879 -0.0506
 9949TIP3    H251263   0.205   2.282  16.486  0.3891 -0.5227  0.0391
 9950TIP3   OH251264   4.908   2.827   0.860 -0.0642  0.6068  0.5564
 9950TIP3    H151265   4.841   2.889   0.831 -0.5931 -0.0377  0.3539
 9950TIP3    H251266   4.923   2.849   0.952 -0.4146  0.8919  0.5494
 9951TIP3   OH251267   1.378   2.080   2.391  0.0840  0.0848  0.0827
 9951TIP3    H151268   1.365   2.172   2.372  0.8152  0.3356  0.7534
 9951TIP3    H251269   1.470   2.063   2.371 -0.2648 -0.7319 -0.9279
 9952TIP3   OH251270   2.176   5.678  14.771 -0.3366 -0.5422 -0.5760
 9952TIP3    H151271   2.148   5.727  14.849  1.3285  0.8731 -0.7939
 9952TIP3    H251272   2.154   5.587  14.791  0.2672 -0.2690  1.6724
 9953TIP3   OH251273   0.066   4.662  13.641  0.3758  0.3720 -0.3303
 9953TIP3    H151274   0.010   4.586  13.632 -0.7286  1.0539  0.5517
 9953TIP3    H251275   0.076   4.673  13.736  1.7330  0.4654 -0.4638
 9954TIP3   OH251276   3.902   2.937  12.941 -0.0210  0.8869  0.1082
 9954TIP3    H151277   3.955   3.000  12.990 -0.1532  0.9983  0.1092
 9954TIP3    H251278   3.838   2.991  12.894  0.0382  0.7722 -0.1040
 9955TIP3   OH251279   1.537   0.979  14.977 -0.5263 -0.1960  0.6059
 9955TIP3    H151280   1.463   0.958  15.034  0.5826 -1.9467  1.5165
 9955TIP3    H251281   1.584   1.049  15.023  0.0738 -1.2423  1.6478
 9956TIP3   OH251282   6.488   0.561  13.192 -0.1885 -0.0533 -0.0057
 9956TIP3    H151283   6.580   0.535  13.187 -0.7656 -2.0992 -0.9763
 9956TIP3    H251284   6.463   0.579  13.101 -0.5016  1.5435  0.3669
 9957TIP3   OH251285   0.348   3.887   1.644  0.2007 -0.5009 -0.0100
 9957TIP3    H151286   0.290   3.843   1.706 -0.2160 -0.4968 -0.3941
 9957TIP3    H251287   0.420   3.920   1.698 -1.4625  1.8518  0.9502
 9958TIP3   OH251288   5.152   0.105  10.656 -0.1111 -0.0327 -0.0620
 9958TIP3    H151289   5.167   0.096  10.562  1.1288  0.9685  0.0179
 9958TIP3    H251290   5.230   0.150  10.688  0.6490 -2.4956  1.8492
 9959TIP3   OH251291   0.781   0.051  10.804  0.1449  0.4821  0.5465
 9959TIP3    H151292   0.738  -0.032  10.782  0.0568  0.5699  0.3863
 9959TIP3    H251293   0.861   0.025  10.849 -0.9341  0.3341  2.4908
 9960TIP3   OH251294   2.453   1.352  17.084  0.2829  1.1054 -0.1602
 9960TIP3    H151295   2.460   1.261  17.113  0.4260  1.0531 -0.3558
 9960TIP3    H251296   2.359   1.372  17.090  0.3476  1.2007  0.6421
 9961TIP3   OH251297   2.623   6.247   0.552  0.0780 -0.0029 -0.0539
 9961TIP3    H151298   2.671   6.191   0.613 -0.3502  0.3496  0.6105
 9961TIP3    H251299   2.652   6.336   0.574  0.1859  0.0999 -0.5998
 9962TIP3   OH251300   6.634   5.259  16.873  0.2280 -0.0384  0.3863
 9962TIP3    H151301   6.624   5.258  16.968 -1.6038 -1.9320  0.2273
 9962TIP3    H251302   6.715   5.210  16.857  2.3519  2.9508  1.0059
 9963TIP3   OH251303   5.837   4.987  15.288 -1.4468  0.0533  0.2859
 9963TIP3    H151304   5.841   5.015  15.379 -1.0627 -0.0755  0.3132
 9963TIP3    H251305   5.831   4.891  15.292 -1.1333  0.0278  0.1730
 9964TIP3   OH251306   6.229   6.621  12.733  0.1483  0.4710  0.7708
 9964TIP3    H151307   6.213   6.694  12.674  0.9790  1.3268  1.5726
 9964TIP3    H251308   6.145   6.607  12.777 -0.4950 -0.2263 -0.6436
 9965TIP3   OH251309   6.676   2.037  15.909 -0.1423  0.2446  0.3016
 9965TIP3    H151310   6.746   2.066  15.851 -0.5757 -0.4292 -0.5885
 9965TIP3    H251311   6.661   2.111  15.969  0.2891  0.9620 -0.4632
 9966TIP3   OH251312   4.943   2.857  11.281 -0.2344 -0.0343  0.1722
 9966TIP3    H151313   5.036   2.855  11.259 -0.1536 -0.2142  0.5339
 9966TIP3    H251314   4.923   2.950  11.290 -0.6156  0.1681 -2.1322
 9967TIP3   OH251315   5.863   6.137  12.924 -0.0493 -0.8632  0.1935
 9967TIP3    H151316   5.863   6.041  12.932 -0.0787 -1.1818 -2.5716
 9967TIP3    H251317   5.953   6.159  12.900 -0.4210 -0.4310 -0.8724
 9968TIP3   OH251318   3.565   5.232  11.686  0.6812 -0.2393 -0.9027
 9968TIP3    H151319   3.660   5.225  11.690  0.6529 -0.2756  0.5683
 9968TIP3    H251320   3.547   5.324  11.707  0.3151 -1.1348  3.8752
 9969TIP3   OH251321   5.963   2.381  16.243 -0.1265  0.7854  0.1885
 9969TIP3    H151322   5.970   2.289  16.217 -0.0563  1.0069 -0.5939
 9969TIP3    H251323   5.979   2.430  16.163 -2.5573  1.4739  0.0515
 9970TIP3   OH251324   3.552   6.600  11.134  0.0210  0.5482  0.2785
 9970TIP3    H151325   3.622   6.572  11.076 -0.9016 -2.6562  0.5114
 9970TIP3    H251326   3.566   6.552  11.215 -1.3013  1.4211  1.0776
 9971TIP3   OH251327   3.936   4.513   4.357 -0.7290 -0.0784  0.6538
 9971TIP3    H151328   3.903   4.455   4.288  0.6340  0.9133 -0.8874
 9971TIP3    H251329   3.945   4.455   4.433  1.4660 -2.1861 -1.0550
 9972TIP3   OH251330   5.582   5.461  13.120  0.0196 -0.0880 -0.0023
 9972TIP3    H151331   5.639   5.510  13.061 -0.5833  0.7874  0.1369
 9972TIP3    H251332   5.513   5.426  13.063 -0.9411  1.3203  0.2611
 9973TIP3   OH251333   4.186   5.971   1.916 -0.0776  0.1482  0.1366
 9973TIP3    H151334   4.246   6.012   1.854  1.1128  1.3712  1.9953
 9973TIP3    H251335   4.172   5.883   1.880  2.1848  0.0950 -0.8262
 9974TIP3   OH251336   3.034   2.107  15.210  1.2836 -0.6272 -0.4511
 9974TIP3    H151337   3.087   2.187  15.217  1.1883 -0.3608 -2.1436
 9974TIP3    H251338   3.036   2.068  15.297  1.2683  1.2680  0.4352
 9975TIP3   OH251339   3.448   2.022   0.952 -0.6081  0.1004 -0.2712
 9975TIP3    H151340   3.480   2.101   0.996 -0.5269 -0.3471  0.5054
 9975TIP3    H251341   3.527   1.978   0.920 -0.7389  0.9969 -1.9107
 9976TIP3   OH251342   0.710   6.279  11.576  0.0106  0.4961  0.3877
 9976TIP3    H151343   0.676   6.201  11.621 -1.6002 -0.1009 -1.7093
 9976TIP3    H251344   0.694   6.351  11.637  0.8334 -0.6645  2.0530
 9977TIP3   OH251345   5.567   0.970   0.206  0.4088 -0.0904  0.1196
 9977TIP3    H151346   5.514   0.916   0.147  0.0151  0.2438  0.1638
 9977TIP3    H251347   5.509   0.991   0.278  1.1515 -1.2170  1.0742
 9978TIP3   OH251348   2.253   5.090  13.807  0.0058  0.4481 -0.2670
 9978TIP3    H151349   2.314   5.159  13.782  0.5091  0.4843  0.9832
 9978TIP3    H251350   2.306   5.011  13.815  0.5257  1.0078  3.4757
 9979TIP3   OH251351   3.622   1.229   1.711  0.0858  0.3015  0.5311
 9979TIP3    H151352   3.618   1.223   1.806  0.9100 -0.0570  0.5484
 9979TIP3    H251353   3.634   1.322   1.693 -3.4970  0.9494  0.6115
 9980TIP3   OH251354   6.395   3.556  12.978 -0.2978 -0.1123 -0.2976
 9980TIP3    H151355   6.359   3.585  13.062  1.5769 -3.0021  1.6970
 9980TIP3    H251356   6.438   3.633  12.942 -1.1327  1.2185  1.4029
 9981TIP3   OH251357   1.315   5.240  12.211 -0.3071  0.6678  0.4301
 9981TIP3    H151358   1.254   5.301  12.170 -0.0223  0.7543  0.1359
 9981TIP3    H251359   1.379   5.220  12.143 -0.9608 -0.7448  0.1936
 9982TIP3   OH251360   1.011   3.719   1.750 -0.2922  0.2204  0.9229
 9982TIP3    H151361   1.098   3.759   1.745  0.9445 -2.3060  0.8723
 9982TIP3    H251362   0.951   3.794   1.756  1.6592  2.1331 -1.3008
 9983TIP3   OH251363   2.711   3.744   2.406 -0.0415 -0.1252 -0.0386
 9983TIP3    H151364   2.647   3.798   2.361  0.2460  0.6832  0.4935
 9983TIP3    H251365   2.783   3.804   2.426  1.0490 -1.0859 -0.9407
 9984TIP3   OH251366   5.276   2.552   1.636  0.3750 -0.3537 -0.3556
 9984TIP3    H151367   5.261   2.629   1.690 -0.5087 -0.8971  0.2025
 9984TIP3    H251368   5.278   2.479   1.698 -0.8465 -1.0108 -1.0398
 9985TIP3   OH251369   0.653   1.504   5.070  0.5613 -0.3277 -0.7481
 9985TIP3    H151370   0.632   1.488   4.978 -2.2045  1.9730 -0.6391
 9985TIP3    H251371   0.744   1.535   5.069 -0.1079  1.8770 -3.0584
 9986TIP3   OH251372   4.496   2.074  10.910  0.4452 -0.1915  0.1366
 9986TIP3    H151373   4.426   2.078  10.845 -0.0714  1.5938  0.7382
 9986TIP3    H251374   4.451   2.064  10.994  0.9762 -0.2585  0.4196
 9987TIP3   OH251375   2.754   1.027   1.065 -0.1353 -0.2028 -0.4367
 9987TIP3    H151376   2.688   0.970   1.104  1.8363  0.0807  3.9478
 9987TIP3    H251377   2.807   0.968   1.011 -0.0359 -1.9026  1.3994
 9988TIP3   OH251378   4.147   6.504  13.983 -0.3932 -0.5376  0.4117
 9988TIP3    H151379   4.071   6.518  13.926 -0.4745  1.2949  0.9207
 9988TIP3    H251380   4.217   6.556  13.942 -0.2782  0.2895  1.6287
 9989TIP3   OH251381   2.246   6.367   3.472  0.0137 -0.2447 -0.5524
 9989TIP3    H151382   2.270   6.357   3.380 -1.4431 -0.5421 -0.9240
 9989TIP3    H251383   2.172   6.307   3.484 -0.9732  1.0903  0.3322
 9990TIP3   OH251384   1.552   3.467  13.263  0.2800  0.3526 -0.2001
 9990TIP3    H151385   1.458   3.471  13.281  0.0840  1.8561 -1.4490
 9990TIP3    H251386   1.582   3.557  13.268  2.0411 -0.2465  1.8532
 9991TIP3   OH251387   6.422   5.682   1.358  0.0776 -0.3357  0.2131
 9991TIP3    H151388   6.455   5.755   1.305 -0.1329 -0.8008 -0.5691
 9991TIP3    H251389   6.336   5.712   1.387  0.1426 -0.1302  0.2016
 9992TIP3   OH251390   6.021   6.797  10.564  0.6524 -0.2984  0.0117
 9992TIP3    H151391   6.021   6.713  10.519 -0.7739  0.4691 -1.5219
 9992TIP3    H251392   6.093   6.846  10.524 -0.8877  0.5476 -1.9042
 9993TIP3   OH251393   1.862   4.673  15.890 -0.5716  0.0890 -0.4637
 9993TIP3    H151394   1.851   4.722  15.809 -1.6812 -2.4032 -1.9238
 9993TIP3    H251395   1.826   4.586  15.871  0.0095 -0.8866  2.4070
 9994TIP3   OH251396   2.363   4.826   3.892 -0.2769  0.3571  0.0385
 9994TIP3    H151397   2.368   4.739   3.933  0.0770 -0.3586 -1.4469
 9994TIP3    H251398   2.299   4.815   3.822  1.1452  0.7692 -1.3679
 9995TIP3   OH251399   2.903   3.023  11.883 -0.1862 -0.1103  0.1960
 9995TIP3    H151400   2.842   2.985  11.821  0.7597 -1.1572 -0.1152
 9995TIP3    H251401   2.897   3.117  11.867 -1.2309 -0.2337 -0.2603
 9996TIP3   OH251402   5.956   2.986   5.558 -0.2741 -0.4952  0.0129
 9996TIP3    H151403   6.040   2.981   5.604 -0.1151 -0.2900 -0.2549
 9996TIP3    H251404   5.906   2.911   5.592  0.2455 -0.9884 -0.2882
 9997TIP3   OH251405   2.996   3.370   1.201  0.2821 -0.4595 -0.3900
 9997TIP3    H151406   2.986   3.448   1.145  2.6414 -0.6091 -1.1374
 9997TIP3    H251407   3.088   3.346   1.192  0.0104 -2.3423  1.1964
 9998TIP3   OH251408   0.164   3.282   2.892 -0.4675  0.5571  0.2554
 9998TIP3    H151409   0.085   3.336   2.899 -0.0817  1.1571  0.0995
 9998TIP3    H251410   0.172   3.240   2.978 -1.0533  0.3474  0.2107
 9999TIP3   OH251411   4.909   0.776  13.976  0.1747 -0.1988  0.1281
 9999TIP3    H151412   4.828   0.823  13.956  0.3111 -0.3641 -0.8917
 9999TIP3    H251413   4.954   0.831  14.040 -0.4015  0.2636  0.1435
10000TIP3   OH251414   0.592   3.354  13.825  0.4249  0.1182  0.6955
10000TIP3    H151415   0.620   3.337  13.735 -0.8372  0.8741  0.1492
10000TIP3    H251416   0.497   3.365  13.820  0.2569 -0.3514  2.2027
10001TIP3   OH251417   0.147   4.189   0.068 -0.1009 -0.9614 -0.0058
10001TIP3    H151418   0.155   4.250  -0.006  2.7571 -0.3755  0.6853
10001TIP3    H251419   0.227   4.136   0.064  0.7407 -0.1302  3.3182
10002TIP3   OH251420   3.533   2.283  15.558 -0.1894 -0.1732  1.0044
10002TIP3    H151421   3.524   2.298  15.464  0.8534  0.5995  1.0007
10002TIP3    H251422   3.502   2.194  15.572  1.5290 -1.0630 -0.4115
10003TIP3   OH251423   0.898   4.302  13.535  0.0184  0.3452 -0.1643
10003TIP3    H151424   0.818   4.355  13.545  0.2663  1.0413 -1.5073
10003TIP3    H251425   0.893   4.269  13.445  0.6557 -0.6174  0.1447
10004TIP3   OH251426   4.046   1.914  16.495  0.0854 -0.0827  0.4475
10004TIP3    H151427   4.012   1.927  16.584 -0.5047  0.6246  0.1281
10004TIP3    H251428   4.007   1.830  16.467 -1.2629  0.6087  0.1724
10005TIP3   OH251429   1.611   3.271  14.933  0.1899  0.0007  0.3969
10005TIP3    H151430   1.576   3.342  14.879  2.6540  1.2667  0.3421
10005TIP3    H251431   1.695   3.250  14.894  0.5489 -1.3858  1.8025
10006TIP3   OH251432   4.701   4.585   6.575 -0.8183  0.0429  0.4662
10006TIP3    H151433   4.660   4.671   6.563  0.8568  0.7499 -0.5233
10006TIP3    H251434   4.770   4.600   6.639 -0.2353 -0.4471 -0.0358
10007TIP3   OH251435   4.229   4.143   0.087 -0.1835  0.1215 -0.2031
10007TIP3    H151436   4.149   4.091   0.085  0.7445 -1.3507 -0.5514
10007TIP3    H251437   4.256   4.149  -0.004 -0.4625  1.5667 -0.2146
10008TIP3   OH251438   4.692   1.683  16.745 -0.6879  0.4444  0.2284
10008TIP3    H151439   4.706   1.778  16.752  0.7032  0.1604  1.9796
10008TIP3    H251440   4.779   1.647  16.729 -1.4041 -0.4868 -1.9416
10009TIP3   OH251441   2.141   1.495   1.183 -0.0563 -0.0111 -0.3334
10009TIP3    H151442   2.115   1.588   1.179  0.3556  0.1063 -0.2523
10009TIP3    H251443   2.077   1.451   1.126 -0.2868  0.3131 -0.3328
10010TIP3   OH251444   1.381   0.358  16.203 -0.1961  0.0579 -1.0481
10010TIP3    H151445   1.445   0.425  16.178  0.9008 -0.7803 -0.5708
10010TIP3    H251446   1.320   0.354  16.129  0.5160  0.6139 -1.6769
10011TIP3   OH251447   2.616   5.629   4.131  0.2624 -0.1784 -0.4297
10011TIP3    H151448   2.538   5.584   4.166  0.3966 -0.3885 -0.4002
10011TIP3    H251449   2.624   5.596   4.042  0.7881 -0.7669 -0.1677
10012TIP3   OH251450   1.879   4.861  12.168  0.0460 -0.1197 -0.4028
10012TIP3    H151451   1.803   4.806  12.188  0.2637 -0.6080 -0.9043
10012TIP3    H251452   1.861   4.897  12.081 -0.6617  1.5977  0.4109
10013TIP3   OH251453   2.394   5.521   6.617  0.1969 -0.3093 -0.0336
10013TIP3    H151454   2.347   5.448   6.656  0.5407  0.5488  2.1027
10013TIP3    H251455   2.328   5.568   6.567 -0.4901 -0.9092  0.2936
10014TIP3   OH251456   4.397   0.560  16.182  0.8197  0.0280  0.1569
10014TIP3    H151457   4.393   0.528  16.091 -2.9580  2.2104 -0.6612
10014TIP3    H251458   4.319   0.523  16.223  0.8670  1.4630  1.6243
10015TIP3   OH251459   4.746   2.462  15.691  0.3297 -0.0781 -0.1996
10015TIP3    H151460   4.781   2.413  15.766  0.5636  0.4107  0.0171
10015TIP3    H251461   4.809   2.534  15.679 -0.0627  0.2229 -0.4492
10016TIP3   OH251462   4.897   6.024   5.652 -0.5747  0.0881  0.9174
10016TIP3    H151463   4.852   5.960   5.598 -1.1106 -1.6318  3.2312
10016TIP3    H251464   4.854   6.018   5.737  1.2984  1.4124  2.0475
10017TIP3   OH251465   2.961   6.319   5.393 -0.0114 -0.3007 -0.1270
10017TIP3    H151466   2.955   6.412   5.417  0.4010 -0.5765  1.0966
10017TIP3    H251467   2.869   6.291   5.384 -0.1811 -0.1216  0.9340
10018TIP3   OH251468   3.706   5.658   1.919  0.6804 -0.5009 -0.5540
10018TIP3    H151469   3.685   5.646   2.011 -2.2385  0.0594 -1.0520
10018TIP3    H251470   3.716   5.753   1.909 -1.8289 -0.2424 -1.2463
10019TIP3   OH251471   5.942   0.836  15.154  0.2264  0.0474  0.2220
10019TIP3    H151472   5.895   0.879  15.082  1.5389  0.5802 -0.3384
10019TIP3    H251473   6.007   0.899  15.181  0.7753 -0.7663  0.8354
10020TIP3   OH251474   2.046   4.009   5.226  0.5478 -0.1589  0.0989
10020TIP3    H151475   2.094   4.043   5.302  0.2966  0.7046 -0.1113
10020TIP3    H251476   1.963   4.058   5.227  0.1355 -0.8348 -0.1797
10021TIP3   OH251477   4.292   0.812  11.660  0.2092 -0.0323  0.4680
10021TIP3    H151478   4.387   0.814  11.658  0.2191 -0.1460  0.7436
10021TIP3    H251479   4.265   0.904  11.648  0.3728  0.1192  1.2421
10022TIP3   OH251480   5.318   0.613  10.925 -0.1032  0.1374 -0.4378
10022TIP3    H151481   5.387   0.646  10.983 -0.5937 -0.0161  0.2470
10022TIP3    H251482   5.353   0.532  10.888  0.3742  0.4527 -0.6792
10023TIP3   OH251483   1.642   3.061   5.026  0.0731 -0.0416  0.5029
10023TIP3    H151484   1.718   3.059   4.967  0.0880 -1.0507  0.5310
10023TIP3    H251485   1.625   3.154   5.040  0.3711  0.2118 -0.6967
10024TIP3   OH251486   1.757   4.623  16.495 -0.6092  0.3102 -0.0538
10024TIP3    H151487   1.803   4.615  16.412  0.8703 -0.1371  0.7831
10024TIP3    H251488   1.764   4.716  16.518  2.0008 -0.1070  1.1883
10025TIP3   OH251489   3.772   4.927   4.399 -0.6107  0.0750 -0.1794
10025TIP3    H151490   3.774   4.971   4.484  1.4420 -1.3134  0.5698
10025TIP3    H251491   3.848   4.963   4.352  0.0418 -1.3121 -0.2323
10026TIP3   OH251492   5.456   5.189   5.227 -0.4073  0.5991  0.3354
10026TIP3    H151493   5.525   5.193   5.294 -0.2513 -0.5360  0.2526
10026TIP3    H251494   5.385   5.140   5.268 -0.6670  0.6752 -0.0176
10027TIP3   OH251495   3.142   1.206   4.686  0.3301  0.2196 -0.3453
10027TIP3    H151496   3.196   1.141   4.730 -0.4894 -2.6383 -3.1828
10027TIP3    H251497   3.065   1.216   4.743 -0.0920 -2.3024 -0.3572
10028TIP3   OH251498   1.454   5.452  11.267  0.1711 -0.3429  0.4226
10028TIP3    H151499   1.426   5.476  11.355  0.6659  0.5601  0.3443
10028TIP3    H251500   1.433   5.528  11.213  2.2197  0.1672  0.2656
10029TIP3   OH251501   1.538   0.625  16.407 -0.3889  0.2048  0.6266
10029TIP3    H151502   1.447   0.655  16.400 -1.5182 -2.5453  1.8979
10029TIP3    H251503   1.554   0.622  16.501 -0.9670 -4.3174  0.7794
10030TIP3   OH251504   1.927   5.929  11.411  0.3869  0.4027  0.3229
10030TIP3    H151505   1.933   6.021  11.384 -1.3264  0.7892  1.0888
10030TIP3    H251506   2.007   5.889  11.377  0.6074  1.9011 -1.0935
10031TIP3   OH251507   1.392   5.255  10.862  0.0474 -0.0344 -0.3134
10031TIP3    H151508   1.323   5.307  10.904  0.5001 -0.3638  0.8715
10031TIP3    H251509   1.431   5.314  10.798 -0.5506  0.5344 -0.1669
10032TIP3   OH251510   5.299   4.958  12.729 -0.0780  0.2576  0.0146
10032TIP3    H151511   5.257   4.882  12.689  0.5249  0.1552 -0.4359
10032TIP3    H251512   5.325   4.928  12.816  0.8716 -0.3105 -0.4532
10033TIP3   OH251513   3.101   4.043  15.423 -0.1343  0.2206 -0.2702
10033TIP3    H151514   3.009   4.019  15.435  0.2806 -1.0456  0.5430
10033TIP3    H251515   3.148   3.994  15.490  0.9942  2.0422  0.3601
10034TIP3   OH251516   2.841   2.876   5.897  0.4187 -0.0498  0.0789
10034TIP3    H151517   2.904   2.823   5.848  0.2670 -1.6953  1.5529
10034TIP3    H251518   2.778   2.904   5.832  1.0343 -0.8984 -0.9233
10035TIP3   OH251519   5.738   0.364  16.056  0.7702 -0.1983  0.6094
10035TIP3    H151520   5.770   0.315  16.131 -0.6222 -1.7219  0.2547
10035TIP3    H251521   5.644   0.345  16.053  0.2720  2.0329  0.0937
10036TIP3   OH251522   4.055   2.901  14.275 -0.4612  0.5024  0.1141
10036TIP3    H151523   4.023   2.824  14.229 -0.4306 -0.3044  1.3751
10036TIP3    H251524   4.038   2.974  14.216 -2.2794 -0.2189 -0.3257
10037TIP3   OH251525   3.561   1.011  15.383 -0.0118 -0.0162  0.5796
10037TIP3    H151526   3.563   0.980  15.292  4.5906  0.6781  0.2124
10037TIP3    H251527   3.544   0.933  15.435 -0.8409 -0.7665 -0.7501
10038TIP3   OH251528   0.812   4.566  16.054 -0.1560  0.1042  0.1164
10038TIP3    H151529   0.802   4.565  16.149 -0.4426 -1.6621  0.0936
10038TIP3    H251530   0.904   4.547  16.038 -0.7678 -3.4268  0.0500
10039TIP3   OH251531   2.351   6.264   0.247  0.4271 -0.3978 -0.0604
10039TIP3    H151532   2.402   6.232   0.172 -0.2610 -0.7124 -0.4004
10039TIP3    H251533   2.261   6.263   0.216  0.1026 -0.8364  0.8898
10040TIP3   OH251534   2.710   4.970   0.231 -0.6672  0.5905  0.3288
10040TIP3    H151535   2.645   4.973   0.301 -0.8408  2.9118  0.1648
10040TIP3    H251536   2.748   5.058   0.230  1.9552 -0.4525 -0.0943
10041TIP3   OH251537   1.027   3.235  13.444 -0.4373 -0.4597 -0.2878
10041TIP3    H151538   0.984   3.177  13.381 -0.4946  0.0355 -0.7089
10041TIP3    H251539   0.999   3.323  13.419 -0.4142 -0.2506  0.3957
10042TIP3   OH251540   5.874   1.523   0.773  0.1663  0.2519  0.0257
10042TIP3    H151541   5.824   1.443   0.786  0.3486 -0.1121 -1.3740
10042TIP3    H251542   5.872   1.538   0.678  1.2507  1.1645  0.1230
10043TIP3   OH251543   6.358   4.221  14.193 -0.2249  0.0192 -0.4190
10043TIP3    H151544   6.420   4.196  14.261 -0.5259  0.1418 -0.0938
10043TIP3    H251545   6.291   4.152  14.195 -1.2491  0.9952  0.7220
10044TIP3   OH251546   0.747   1.211   4.674  0.0392 -0.4702 -0.2704
10044TIP3    H151547   0.776   1.207   4.765  2.4308 -1.3090 -0.9969
10044TIP3    H251548   0.824   1.238   4.624 -0.4010 -2.6539 -2.3487
10045TIP3   OH251549   6.766   0.703   4.760  0.0376  0.0014  0.4399
10045TIP3    H151550   6.701   0.752   4.810 -0.2822  1.0305 -0.9274
10045TIP3    H251551   6.732   0.701   4.671  0.7959 -1.4174  0.1385
10046TIP3   OH251552   5.690   1.937   2.172 -0.5503 -0.2704  0.6436
10046TIP3    H151553   5.739   1.916   2.252  0.0419  1.4740  0.7793
10046TIP3    H251554   5.741   1.896   2.102  0.2897  0.2559  0.9350
10047TIP3   OH251555   5.928   2.794   4.221 -0.3079 -0.2228 -0.0173
10047TIP3    H151556   6.022   2.800   4.242 -0.5884  0.3599  1.1498
10047TIP3    H251557   5.888   2.866   4.269 -1.3581 -0.4000 -0.5918
10048TIP3   OH251558   0.949   6.172   0.172  0.2046 -0.3110  0.5235
10048TIP3    H151559   0.857   6.197   0.183 -0.5959 -2.5476 -0.4258
10048TIP3    H251560   0.985   6.238   0.112 -1.0909 -0.0156  0.0327
10049TIP3   OH251561   1.855   0.117   2.994 -0.1728  0.3491  0.1282
10049TIP3    H151562   1.773   0.116   3.044 -1.3832  1.3000 -1.7166
10049TIP3    H251563   1.827   0.110   2.903  1.7831  1.2790 -0.5967
10050TIP3   OH251564   5.115   6.457  14.360 -0.2926 -0.3960  0.2884
10050TIP3    H151565   5.027   6.467  14.396  0.1150  3.4299  0.5497
10050TIP3    H251566   5.104   6.464  14.265 -0.1824  1.4931  0.3912
10051TIP3   OH251567   1.563   5.037  14.475  0.0082 -0.7558  0.9482
10051TIP3    H151568   1.539   5.120  14.516 -2.2688 -0.1447 -1.3428
10051TIP3    H251569   1.480   4.990  14.464  0.7279 -1.6697 -1.1626
10052TIP3   OH251570   1.867   1.485  10.613 -0.1778 -0.2654  0.3701
10052TIP3    H151571   1.888   1.393  10.596 -3.0559 -1.1023  0.7215
10052TIP3    H251572   1.920   1.508  10.689  1.9687 -0.9895 -0.8090
10053TIP3   OH251573   1.957   2.756  11.596 -0.5599  0.0442  0.4605
10053TIP3    H151574   1.969   2.838  11.644 -0.1924 -0.5324  1.3818
10053TIP3    H251575   2.021   2.696  11.634  1.0232  0.0496 -1.9637
10054TIP3   OH251576   0.867   6.508   6.571  0.4757 -0.4788 -0.6817
10054TIP3    H151577   0.875   6.422   6.528 -1.1428 -0.4566 -1.0610
10054TIP3    H251578   0.865   6.487   6.664  2.9210 -0.6016 -0.5685
10055TIP3   OH251579   4.043   3.874   6.612 -0.1899  0.0079 -0.2335
10055TIP3    H151580   4.029   3.781   6.598 -0.7661  0.0628 -0.0572
10055TIP3    H251581   4.131   3.880   6.650 -0.2235 -0.4763 -0.0774
10056TIP3   OH251582   0.187   4.220  16.937  0.0332  0.3575 -0.2613
10056TIP3    H151583   0.126   4.203  16.865 -0.5033 -2.5940  0.7212
10056TIP3    H251584   0.271   4.234  16.894 -1.0070  3.2013 -1.5908
10057TIP3   OH251585   3.032   1.392   3.179  0.0274  0.1662 -0.4278
10057TIP3    H151586   3.073   1.476   3.157 -0.6297  0.8996  0.9994
10057TIP3    H251587   3.092   1.352   3.242 -0.3913  0.2513  0.0240
10058TIP3   OH251588   2.779   0.964  15.498  0.0055  0.4173  0.1063
10058TIP3    H151589   2.809   1.052  15.524  0.2562  1.2920 -2.7552
10058TIP3    H251590   2.830   0.944  15.420 -0.2741 -2.2085  0.5104
10059TIP3   OH251591   5.881   6.773  13.191  0.4192 -0.2496  0.5877
10059TIP3    H151592   5.837   6.805  13.270 -0.2607  0.1454  0.0619
10059TIP3    H251593   5.810   6.738  13.137  1.0482 -1.9547  0.8058
10060TIP3   OH251594   4.236   0.571   0.694  0.0028 -0.2005 -0.2009
10060TIP3    H151595   4.280   0.486   0.687  0.9677  0.3920 -1.9232
10060TIP3    H251596   4.146   0.554   0.664  0.1796 -0.6193 -0.5017
10061TIP3   OH251597   4.554   5.710  13.110  0.2743  0.5236 -0.2057
10061TIP3    H151598   4.557   5.804  13.129 -1.8486  1.3764 -3.2843
10061TIP3    H251599   4.619   5.698  13.040 -0.7403  0.1370 -1.1111
10062TIP3   OH251600   3.121   3.369  15.697 -0.0015  0.0600 -0.4456
10062TIP3    H151601   3.123   3.462  15.718  1.8950 -0.1256  0.4759
10062TIP3    H251602   3.060   3.361  15.624 -1.8794  1.6966  0.8688
10063TIP3   OH251603   1.658   6.064  11.249  0.4057 -0.6787 -0.4113
10063TIP3    H151604   1.622   6.151  11.233 -0.3869 -1.0965 -0.9836
10063TIP3    H251605   1.752   6.078  11.261  0.1080  0.4218  0.9190
10064TIP3   OH251606   0.003   6.011  10.484  0.0775  0.0052  0.0115
10064TIP3    H151607   0.070   6.046  10.543  0.9167  0.1825 -1.0296
10064TIP3    H251608  -0.068   6.075  10.488  0.8738  0.9439 -0.5381
10065TIP3   OH251609   3.934   6.344  15.393  0.6143  0.1366 -0.2258
10065TIP3    H151610   4.003   6.389  15.443  1.1417 -0.8654 -0.0346
10065TIP3    H251611   3.914   6.266  15.444 -0.3909  0.2060 -0.4915
10066TIP3   OH251612   2.492   6.611  14.625  0.3430  0.4324  0.2037
10066TIP3    H151613   2.404   6.584  14.651  0.2745 -0.4763 -0.8546
10066TIP3    H251614   2.526   6.659  14.700 -1.0579  0.8207  0.6277
10067TIP3   OH251615   5.275   4.559   2.982 -0.1958  0.1019  0.6376
10067TIP3    H151616   5.196   4.582   3.030  0.5906  2.3707  0.9548
10067TIP3    H251617   5.338   4.627   3.005  1.5138 -1.0289 -0.4597
10068TIP3   OH251618   1.262   3.647   1.018  0.2490  0.0577  0.0538
10068TIP3    H151619   1.307   3.646   1.103 -0.3790  0.8448  0.4112
10068TIP3    H251620   1.253   3.555   0.995  1.1211 -0.1403  0.4728
10069TIP3   OH251621   2.423   4.721  11.283 -0.4335  0.2882 -0.0812
10069TIP3    H151622   2.500   4.755  11.237 -0.2109  0.9760  0.7738
10069TIP3    H251623   2.350   4.739  11.223  0.1445 -1.2458 -1.3409
10070TIP3   OH251624   6.768   0.048   5.877  0.0424  0.8412  0.0792
10070TIP3    H151625   6.834  -0.007   5.917 -0.1600  1.4838  1.3448
10070TIP3    H251626   6.809   0.080   5.796  0.4100 -0.5734 -0.3088
10071TIP3   OH251627   4.636   5.144  14.037 -0.5892 -0.3508  0.2045
10071TIP3    H151628   4.554   5.132  14.085 -1.3624  1.9616 -0.4153
10071TIP3    H251629   4.662   5.055  14.012 -1.7988 -1.3163  2.1668
10072TIP3   OH251630   3.798   6.804  11.710 -0.2800  0.0237  0.0513
10072TIP3    H151631   3.723   6.808  11.651 -0.6652 -3.5322  0.0792
10072TIP3    H251632   3.805   6.892  11.747 -4.2775  0.5902 -0.1490
10073TIP3   OH251633   1.448   5.253   2.007 -0.2001  0.1296  0.7660
10073TIP3    H151634   1.512   5.297   1.952  0.0723 -0.2125  0.8018
10073TIP3    H251635   1.367   5.253   1.956 -0.5003  1.6142  1.2006
10074TIP3   OH251636   2.587   6.804   3.815  0.0064 -0.2803  0.1911
10074TIP3    H151637   2.659   6.745   3.796  0.4669 -0.0457  1.1487
10074TIP3    H251638   2.575   6.797   3.910 -1.4209 -0.5330  0.0138
10075TIP3   OH251639   4.528   4.853   0.968  0.3306 -0.2116 -0.1353
10075TIP3    H151640   4.593   4.873   1.035 -0.5214  0.9963  0.3507
10075TIP3    H251641   4.500   4.763   0.987  1.2898 -0.4697  0.0994
10076TIP3   OH251642   4.792   2.516   5.430  0.3038 -0.2324 -0.4326
10076TIP3    H151643   4.782   2.558   5.516 -1.3471  1.5937 -1.4374
10076TIP3    H251644   4.713   2.463   5.420  1.5339 -2.2767  0.0483
10077TIP3   OH251645   3.844   3.533  13.464 -0.9431 -0.0287  0.0689
10077TIP3    H151646   3.860   3.614  13.513 -0.8013 -0.7432  1.2405
10077TIP3    H251647   3.833   3.561  13.373 -0.8164  1.2925  0.4497
10078TIP3   OH251648   0.596   2.096  11.677 -0.1605 -0.1600  0.5740
10078TIP3    H151649   0.504   2.073  11.665 -0.3868  0.8058  0.3449
10078TIP3    H251650   0.607   2.106  11.772 -0.3761  0.0195  0.5819
10079TIP3   OH251651   2.332   4.075   4.914  0.3088 -0.0624  0.6961
10079TIP3    H151652   2.297   3.995   4.954  1.8025 -0.0528  2.1234
10079TIP3    H251653   2.410   4.046   4.867 -0.4934  0.2062 -0.8661
10080TIP3   OH251654   6.490   3.346  12.615  0.0514 -0.4757  0.5878
10080TIP3    H151655   6.494   3.345  12.520 -0.7896  0.3665  0.5217
10080TIP3    H251656   6.423   3.281  12.637 -2.5087  1.8652  0.3428
10081TIP3   OH251657   3.211   6.369  15.635 -0.2281 -0.1809  1.1541
10081TIP3    H151658   3.254   6.395  15.717 -0.6704  0.9730  1.0468
10081TIP3    H251659   3.118   6.366  15.657 -0.2709 -0.7125  0.9019
10082TIP3   OH251660   2.443   4.967   2.327  0.5924  0.0801 -0.8326
10082TIP3    H151661   2.440   4.970   2.231  0.5841 -3.0841 -1.0367
10082TIP3    H251662   2.536   4.965   2.349  0.5935  0.7331 -0.7612
10083TIP3   OH251663   4.348   4.584  12.140 -0.2815  0.0663 -0.0299
10083TIP3    H151664   4.269   4.634  12.160 -0.9335 -1.1825  0.6263
10083TIP3    H251665   4.389   4.632  12.068 -2.2696  0.1040 -1.2328
10084TIP3   OH251666   2.124   1.326   5.781  0.4168  0.2285 -0.0892
10084TIP3    H151667   2.069   1.364   5.713 -0.1677  0.9896  0.7817
10084TIP3    H251668   2.168   1.401   5.821  0.4456 -0.1580  0.6269
10085TIP3   OH251669   3.873   2.759   3.192  0.8393  0.1529  0.3844
10085TIP3    H151670   3.789   2.801   3.211  0.2906 -0.4731 -0.5307
10085TIP3    H251671   3.859   2.717   3.106  1.2098 -2.1849  1.3878
10086TIP3   OH251672   0.888   4.512   5.502  0.0765  0.0889 -0.1754
10086TIP3    H151673   0.942   4.440   5.534 -1.2362 -1.1367 -0.6173
10086TIP3    H251674   0.800   4.475   5.495 -0.5614  1.6323 -0.7946
10087TIP3   OH251675   2.961   5.402   2.946  0.4308  0.2643 -0.1910
10087TIP3    H151676   2.983   5.317   2.984 -0.9433 -0.7095 -1.4682
10087TIP3    H251677   3.037   5.457   2.965  1.0087 -0.9974  1.3713
10088TIP3   OH251678   0.328   5.892   2.132 -0.1922  0.5642 -0.7677
10088TIP3    H151679   0.357   5.972   2.176 -0.5779  0.0728  0.4162
10088TIP3    H251680   0.240   5.912   2.100  0.2495  1.0604 -1.7188
10089TIP3   OH251681   6.069   6.368   2.256 -0.6482  0.4159 -0.2087
10089TIP3    H151682   6.087   6.372   2.350  1.3172 -0.6050 -0.4811
10089TIP3    H251683   6.083   6.457   2.224  2.6492  0.0561 -0.0973
10090TIP3   OH251684   5.417   5.780   3.830  0.7848 -0.4070  0.2818
10090TIP3    H151685   5.504   5.768   3.870  0.6417  0.9096  1.0427
10090TIP3    H251686   5.361   5.717   3.876  0.9207  0.1409  1.2278
10091TIP3   OH251687   1.645   1.414   0.406  0.4585  0.2708 -0.6123
10091TIP3    H151688   1.636   1.344   0.471 -0.4893  0.5136 -0.4642
10091TIP3    H251689   1.590   1.386   0.333 -1.1754  1.5254  0.0522
10092TIP3   OH251690   1.998   6.646   3.052 -0.2143 -0.7741 -0.5457
10092TIP3    H151691   1.999   6.740   3.034 -1.7207 -0.4356  0.9038
10092TIP3    H251692   2.016   6.606   2.967 -2.8871  0.7790 -1.9788
10093TIP3   OH251693   0.970   0.133  14.981 -0.5528 -0.2489 -0.8377
10093TIP3    H151694   1.055   0.094  14.961 -0.1724 -0.1768  0.5409
10093TIP3    H251695   0.913   0.105  14.909 -0.3564 -3.5067  0.1399
10094TIP3   OH251696   3.067   3.161  10.962  0.1027  0.5532  0.7556
10094TIP3    H151697   2.972   3.158  10.953  0.2390  0.8311 -1.0119
10094TIP3    H251698   3.100   3.103  10.893  1.2336  0.9220  0.9554
10095TIP3   OH251699   1.048   6.744  16.067 -0.3958  0.1996  0.1127
10095TIP3    H151700   1.082   6.665  16.026 -0.5740  0.9040 -1.4893
10095TIP3    H251701   0.953   6.734  16.064 -0.5663 -1.6317  4.3156
10096TIP3   OH251702   3.396   1.539  11.922  0.1425 -0.1503 -0.2081
10096TIP3    H151703   3.319   1.498  11.960 -0.3522  0.5392 -0.4413
10096TIP3    H251704   3.376   1.633  11.923  1.1710  0.0729  0.1565
10097TIP3   OH251705   1.828   1.347  13.396  0.6747 -0.1218 -0.2516
10097TIP3    H151706   1.795   1.404  13.326  0.5782  1.6952  1.2235
10097TIP3    H251707   1.901   1.300  13.355  0.5743  0.8287 -1.6054
10098TIP3   OH251708   4.770   3.473  12.811 -0.1307 -0.2924  0.1982
10098TIP3    H151709   4.771   3.384  12.848 -1.4367 -0.0557  0.8856
10098TIP3    H251710   4.679   3.485  12.783  0.0705  0.7808  0.0030
10099TIP3   OH251711   3.808   3.291  14.025 -0.3224  0.0989 -0.0355
10099TIP3    H151712   3.856   3.374  14.028  1.2351 -0.7674  0.4527
10099TIP3    H251713   3.741   3.304  13.958  0.7478  1.3231 -0.9160
10100TIP3   OH251714   5.369   0.067   2.906  0.0564  0.2771  0.4429
10100TIP3    H151715   5.296   0.129   2.919 -0.5779 -0.1087 -1.0728
10100TIP3    H251716   5.447   0.122   2.905 -0.4223  0.9731 -0.0628
10101TIP3   OH251717   3.662   0.563  11.409  0.3341 -0.0292  0.1275
10101TIP3    H151718   3.721   0.539  11.337  0.8635 -1.0212  0.8763
10101TIP3    H251719   3.718   0.613  11.469  0.2863 -0.5477  0.6025
10102TIP3   OH251720   5.890   2.400  17.051 -0.1811 -0.1192 -0.2140
10102TIP3    H151721   5.955   2.450  17.002 -0.2270 -0.8248 -1.0214
10102TIP3    H251722   5.858   2.461  17.117  0.2210  0.7148 -0.7658
10103TIP3   OH251723   2.899   4.182  15.032  0.1658  0.3382 -0.2236
10103TIP3    H151724   2.905   4.158  15.125  1.2687  1.7695  0.1281
10103TIP3    H251725   2.900   4.099  14.985 -0.0455 -0.4030  1.0321
10104TIP3   OH251726   1.264   5.238  15.271 -0.0066  0.1130 -0.2605
10104TIP3    H151727   1.329   5.169  15.286  0.9183  0.6466 -1.5384
10104TIP3    H251728   1.272   5.257  15.177 -1.1521  1.0588 -0.1809
10105TIP3   OH251729   4.499   0.740   1.528  0.6749  0.1730  0.1933
10105TIP3    H151730   4.542   0.679   1.588 -2.1710 -1.0913  1.1097
10105TIP3    H251731   4.465   0.810   1.584  0.7730  0.6956 -0.3885
10106TIP3   OH251732   4.775   0.249   2.765  0.0326  0.2319 -0.5760
10106TIP3    H151733   4.770   0.338   2.800  0.2045 -0.0960  0.3031
10106TIP3    H251734   4.725   0.196   2.826  1.2962 -0.5438 -0.1850
10107TIP3   OH251735   2.769   0.630  11.110  0.0454  0.0151  0.7686
10107TIP3    H151736   2.742   0.539  11.102 -0.2170  0.1655 -0.1644
10107TIP3    H251737   2.842   0.639  11.049 -0.9737  0.8149 -0.3909
10108TIP3   OH251738   1.175   1.101  15.145 -0.3116 -0.1560  0.0722
10108TIP3    H151739   1.128   1.074  15.224 -1.1871 -0.0635 -0.4073
10108TIP3    H251740   1.197   1.019  15.101 -2.0807 -0.1561 -0.8706
10109TIP3   OH251741   5.690   1.979   1.037 -0.3594 -0.0945 -0.0839
10109TIP3    H151742   5.616   2.021   1.080 -1.3216 -2.0082  0.2264
10109TIP3    H251743   5.652   1.927   0.966  0.6281 -1.2629  0.1852
10110TIP3   OH251744   1.665   1.132   4.333  0.3283 -0.2903 -0.2411
10110TIP3    H151745   1.731   1.192   4.366  1.5895 -2.3113  1.1734
10110TIP3    H251746   1.701   1.045   4.349 -1.4951 -1.4746 -1.9746
10111TIP3   OH251747   3.260   0.206   2.119 -0.2791 -0.0308 -0.1789
10111TIP3    H151748   3.169   0.214   2.148 -0.2409  0.1959 -0.1162
10111TIP3    H251749   3.256   0.222   2.025 -0.2407  0.4842 -0.0975
10112TIP3   OH251750   2.193   6.734   2.656  0.0412 -0.1101 -0.0352
10112TIP3    H151751   2.141   6.681   2.717  0.5007 -2.4616 -1.5588
10112TIP3    H251752   2.169   6.825   2.677  0.7601 -0.7046  4.1034
10113TIP3   OH251753   0.088   2.571  13.753  0.2346  0.2087 -0.1734
10113TIP3    H151754   0.106   2.647  13.698  0.7236 -0.9993 -1.7341
10113TIP3    H251755   0.054   2.505  13.693  0.0990 -0.9156  1.0997
10114TIP3   OH251756   3.322   4.894   4.450  0.2607  0.0819  0.3362
10114TIP3    H151757   3.308   4.892   4.545  1.2569 -0.3439  0.4856
10114TIP3    H251758   3.388   4.827   4.435  2.0463  1.9131 -0.3289
10115TIP3   OH251759   4.985   0.781   2.225 -0.8071 -0.0005  0.1065
10115TIP3    H151760   4.956   0.793   2.135  0.6459  0.9333 -0.2703
10115TIP3    H251761   5.005   0.869   2.256  1.6163 -0.5635  0.3028
10116TIP3   OH251762   1.825   3.745   3.685 -0.1800 -0.1402  0.2531
10116TIP3    H151763   1.774   3.773   3.609 -0.1959 -0.0355  0.3016
10116TIP3    H251764   1.911   3.723   3.650  0.6155  2.2481  0.5184
10117TIP3   OH251765   3.158   4.371  13.513  0.3274  0.1585  0.0557
10117TIP3    H151766   3.217   4.418  13.453 -0.8469  0.5211 -0.8653
10117TIP3    H251767   3.112   4.308  13.457 -0.3599  0.0785  0.6867
10118TIP3   OH251768   4.751   4.762   3.659  0.4198 -0.0988  0.2319
10118TIP3    H151769   4.691   4.693   3.633  2.1302 -1.6326  0.1515
10118TIP3    H251770   4.818   4.763   3.590  1.3914  0.3811  1.1417
10119TIP3   OH251771   3.525   1.004   1.564  0.4212 -0.3306 -0.0879
10119TIP3    H151772   3.596   0.976   1.505  0.4490 -0.8254  0.1800
10119TIP3    H251773   3.558   1.084   1.605  0.6337 -0.2997 -0.3175
10120TIP3   OH251774   3.681   6.733  15.176 -0.4418 -0.4610 -0.7186
10120TIP3    H151775   3.637   6.648  15.167  1.1468 -1.3884 -0.0437
10120TIP3    H251776   3.761   6.724  15.125 -0.0868  0.5238 -0.3543
10121TIP3   OH251777   5.759   1.613  13.570 -0.4452  0.8746  0.5447
10121TIP3    H151778   5.799   1.536  13.610 -1.1506 -0.1217 -0.5805
10121TIP3    H251779   5.803   1.621  13.485 -2.6588 -0.3861 -0.8221
10122TIP3   OH251780   5.580   5.489  15.831 -0.5772  0.1116 -0.1205
10122TIP3    H151781   5.593   5.420  15.767  0.8011  0.8403 -0.6780
10122TIP3    H251782   5.505   5.539  15.798  0.9278  1.2843 -1.9717
10123TIP3   OH251783   5.691   1.288  14.541 -0.1541 -0.3692  0.1610
10123TIP3    H151784   5.686   1.315  14.450 -1.9017  0.8951  0.5718
10123TIP3    H251785   5.783   1.265  14.555  0.2150 -0.2033 -1.7885
10124TIP3   OH251786   4.531   0.392   3.119  0.6856 -1.1082 -0.2824
10124TIP3    H151787   4.507   0.479   3.090  1.6448 -0.2639  1.2960
10124TIP3    H251788   4.622   0.381   3.091  0.9080 -1.1526  0.4162
10125TIP3   OH251789   3.790   3.771  16.085  0.6438  0.1507  0.0542
10125TIP3    H151790   3.762   3.689  16.044 -1.5900  0.9351 -0.1229
10125TIP3    H251791   3.857   3.806  16.027 -3.1306  1.7823 -3.8669
10126TIP3   OH251792   6.465   4.096   1.662  0.0462 -0.3064  0.6499
10126TIP3    H151793   6.495   4.007   1.647  1.2128  0.4549 -2.2836
10126TIP3    H251794   6.521   4.128   1.734  0.4047 -1.5445  0.9531
10127TIP3   OH251795   6.752   3.438   2.893  0.0465  0.1876 -0.2362
10127TIP3    H151796   6.659   3.415   2.903 -0.0716  1.3374  1.8499
10127TIP3    H251797   6.752   3.519   2.844 -0.0156 -0.0270 -0.5948
10128TIP3   OH251798   6.526   5.458  12.326  0.0621  0.4392  0.0426
10128TIP3    H151799   6.568   5.541  12.304  2.0180 -0.4710  0.1821
10128TIP3    H251800   6.474   5.478  12.404  2.6237  1.0201  1.7343
10129TIP3   OH251801   0.138   6.024  15.110 -0.0626 -0.5701  0.3839
10129TIP3    H151802   0.130   6.002  15.017  0.0739  0.7447  0.0405
10129TIP3    H251803   0.232   6.027  15.127 -0.0467  0.5987  0.1855
10130TIP3   OH251804   0.420   5.370   4.782  0.3411  0.5326  0.0983
10130TIP3    H151805   0.331   5.382   4.815 -0.1669 -0.0613 -0.9896
10130TIP3    H251806   0.436   5.276   4.791  1.0054  0.6901  0.6284
10131TIP3   OH251807   0.717   3.181  11.693  1.0149 -0.1261  0.2236
10131TIP3    H151808   0.645   3.244  11.696  0.9193 -0.2651  1.6215
10131TIP3    H251809   0.796   3.235  11.691  0.9010  0.0270 -0.3406
10132TIP3   OH251810   2.800   3.536   0.529 -0.1076  0.3556  0.4355
10132TIP3    H151811   2.739   3.586   0.583 -0.8870 -0.3345  0.2232
10132TIP3    H251812   2.825   3.596   0.459 -1.5243  0.2695 -0.1750
10133TIP3   OH251813   2.354   4.195  11.309 -0.4400  0.0994  0.4738
10133TIP3    H151814   2.291   4.174  11.378 -0.6017  0.8543  0.5646
10133TIP3    H251815   2.384   4.283  11.330  0.4750 -0.1582  0.2992
10134TIP3   OH251816   4.390   6.249   2.663 -0.3926 -0.5749  0.0456
10134TIP3    H151817   4.295   6.247   2.651 -0.0877 -1.2697 -3.0923
10134TIP3    H251818   4.412   6.342   2.659 -0.7784 -0.5198 -1.2477
10135TIP3   OH251819   3.149   2.104   0.824  0.3085  0.1618 -0.6828
10135TIP3    H151820   3.212   2.032   0.836 -0.1719 -0.2278 -0.4472
10135TIP3    H251821   3.136   2.108   0.729  1.3121  0.7962 -0.8048
10136TIP3   OH251822   5.282   2.330  11.777  0.0596  0.6176 -0.1852
10136TIP3    H151823   5.253   2.420  11.761  2.2606  1.7273  1.5314
10136TIP3    H251824   5.321   2.302  11.694 -2.1765  0.5386 -1.2738
10137TIP3   OH251825   6.772   3.135  13.474 -0.4798  0.3958  0.2050
10137TIP3    H151826   6.697   3.110  13.528 -1.3732 -2.3279 -2.0672
10137TIP3    H251827   6.734   3.167  13.393  0.8337  1.4126 -0.0468
10138TIP3   OH251828   4.291   4.584   5.664 -0.4417 -0.0049 -0.4910
10138TIP3    H151829   4.374   4.630   5.665 -0.7427  0.5527  0.3867
10138TIP3    H251830   4.313   4.495   5.634  0.5721 -0.0487  0.3285
10139TIP3   OH251831   3.456   3.681   5.753  0.2612  0.1673 -0.0887
10139TIP3    H151832   3.461   3.646   5.842 -0.3067 -0.7560 -0.4113
10139TIP3    H251833   3.384   3.633   5.712 -1.6115  2.7964 -0.0817
10140TIP3   OH251834   4.539   3.850   2.528  0.0648  0.2971  0.0251
10140TIP3    H151835   4.481   3.889   2.463  1.7246  0.2445 -1.5915
10140TIP3    H251836   4.523   3.756   2.521 -0.3509  0.3475  0.2912
10141TIP3   OH251837   2.494   4.970  12.061  0.3274  0.3565 -0.2369
10141TIP3    H151838   2.586   4.946  12.072  0.8776  0.6092 -3.4152
10141TIP3    H251839   2.467   4.926  11.981 -1.5874  2.3041 -0.7494
10142TIP3   OH251840   2.021   1.488   2.887 -0.2053  0.5286  0.1887
10142TIP3    H151841   2.011   1.486   2.791 -1.7025 -0.7293  0.3293
10142TIP3    H251842   1.959   1.422   2.918  0.6835  0.5087  2.0042
10143TIP3   OH251843   1.990   0.035   4.468 -0.1377  0.0370 -0.7189
10143TIP3    H151844   2.065   0.024   4.526  0.5336 -2.2370 -1.9108
10143TIP3    H251845   1.920   0.067   4.525  1.4628  1.3951  0.5824
10144TIP3   OH251846   1.506   3.225   4.233 -0.6194 -0.2279  0.1792
10144TIP3    H151847   1.588   3.256   4.272  0.3068  0.1509 -1.9104
10144TIP3    H251848   1.517   3.242   4.139 -3.2767  0.2058 -0.1164
10145TIP3   OH251849   0.761   6.383   5.813  0.1302  0.1952 -0.4137
10145TIP3    H151850   0.847   6.407   5.846  0.9207 -0.2623 -2.0792
10145TIP3    H251851   0.767   6.394   5.718 -1.9490  1.0999 -0.5019
10146TIP3   OH251852   0.811   1.232  15.320  0.4240  0.3849 -0.5260
10146TIP3    H151853   0.796   1.244  15.226 -0.5091  1.3776 -0.2684
10146TIP3    H251854   0.762   1.303  15.361  0.6928 -0.1363  0.7265
10147TIP3   OH251855   5.575   4.332  15.310  0.4018  0.3536 -0.2360
10147TIP3    H151856   5.482   4.310  15.315  0.4068  0.3180 -0.3004
10147TIP3    H251857   5.620   4.257  15.349  0.3344  0.9217  0.9914
10148TIP3   OH251858   5.096   5.761   2.210  0.5411  0.5953 -0.2008
10148TIP3    H151859   5.153   5.749   2.135 -0.3326  1.9242 -1.1181
10148TIP3    H251860   5.126   5.842   2.251  2.0621 -0.9360  1.9081
10149TIP3   OH251861   3.193   0.784   0.073 -0.3365  0.4785  0.1717
10149TIP3    H151862   3.285   0.797   0.049  0.0174 -0.4329  0.9604
10149TIP3    H251863   3.197   0.731   0.153 -1.5515  0.5591  0.2986
10150TIP3   OH251864   3.719   1.476   4.532 -0.5324  0.2415 -0.3099
10150TIP3    H151865   3.700   1.531   4.456  0.7729 -0.1799 -0.9761
10150TIP3    H251866   3.814   1.468   4.532 -0.4759  0.5991  1.6475
10151TIP3   OH251867   4.237   1.228   4.868 -0.2049  0.6421  0.5073
10151TIP3    H151868   4.197   1.296   4.922  0.0121  0.8318  0.4304
10151TIP3    H251869   4.176   1.215   4.795  1.1669  2.9225 -1.1478
10152TIP3   OH251870   3.857   3.035  10.455 -0.3283 -0.0456  0.4597
10152TIP3    H151871   3.842   2.947  10.491  0.8552 -0.4306  0.0782
10152TIP3    H251872   3.953   3.043  10.453 -0.3713  0.4945 -1.2880
10153TIP3   OH251873   2.735   3.631   3.001 -0.3287 -0.2419  0.3878
10153TIP3    H151874   2.725   3.648   2.907 -1.3660 -3.2599 -0.1679
10153TIP3    H251875   2.822   3.593   3.009 -0.4300 -0.4379  0.5672
10154TIP3   OH251876   0.343   3.088  14.108 -0.0207  0.3546 -0.0522
10154TIP3    H151877   0.312   2.999  14.126  2.1206 -0.6609 -1.0286
10154TIP3    H251878   0.276   3.126  14.052 -1.9688  0.1390  1.9789
10155TIP3   OH251879   4.510   5.214  11.681  0.0074  0.0967 -0.2668
10155TIP3    H151880   4.581   5.214  11.616  0.4688 -0.2063  0.2327
10155TIP3    H251881   4.441   5.162  11.641  0.6489 -0.8790 -0.1274
10156TIP3   OH251882   4.640   5.242   3.671 -0.1436  0.6037 -0.1199
10156TIP3    H151883   4.699   5.247   3.595 -0.3807 -1.0319 -0.4446
10156TIP3    H251884   4.617   5.150   3.677 -2.5741  1.1530  0.0924
10157TIP3   OH251885   1.312   6.184   3.130  0.5089 -0.9151 -0.5369
10157TIP3    H151886   1.374   6.115   3.109  0.8982 -0.2193 -1.7653
10157TIP3    H251887   1.248   6.183   3.059  0.7812  0.2731 -0.8220
10158TIP3   OH251888   2.032   2.088   0.159  0.0954  0.5730  0.1739
10158TIP3    H151889   1.950   2.088   0.209 -0.5922 -3.1519 -0.6513
10158TIP3    H251890   2.009   2.129   0.075 -0.9116 -0.2015  0.0475
10159TIP3   OH251891   1.433   6.202  15.304 -0.2304  0.2520 -0.3228
10159TIP3    H151892   1.434   6.219  15.399 -1.0165  0.8868 -0.4149
10159TIP3    H251893   1.419   6.108  15.297  1.5180 -0.0881  0.1874
10160TIP3   OH251894   5.588   3.065   4.510 -0.5701 -0.0400 -0.0989
10160TIP3    H151895   5.599   2.994   4.573 -1.0571  0.6609  0.8035
10160TIP3    H251896   5.493   3.079   4.506 -0.4110  1.6255  0.9799
10161TIP3   OH251897   0.338   0.305  15.218 -0.0422  0.5357 -0.0411
10161TIP3    H151898   0.339   0.231  15.157 -1.3174  0.7776 -0.3939
10161TIP3    H251899   0.430   0.322  15.237  0.3146 -0.4582 -0.7864
10162TIP3   OH251900   1.072   3.179   1.157  0.3112  0.0644 -0.1235
10162TIP3    H151901   0.999   3.123   1.180  0.2752 -1.7385 -3.9514
10162TIP3    H251902   1.033   3.266   1.146 -1.3384 -0.8261 -1.9576
10163TIP3   OH251903   1.986   6.089   5.845  0.2575 -0.6294  0.0927
10163TIP3    H151904   1.954   6.026   5.910  1.2663 -1.9300 -0.6087
10163TIP3    H251905   1.968   6.046   5.761 -0.3974  0.7179 -0.4829
10164TIP3   OH251906   1.659   0.436  11.907  0.0801 -0.5767 -0.0833
10164TIP3    H151907   1.665   0.399  11.819 -0.8788  0.1217 -0.4638
10164TIP3    H251908   1.728   0.502  11.909  2.1328 -2.6370  0.7727
10165TIP3   OH251909   1.961   6.255   1.936  0.6386 -0.5319  0.0262
10165TIP3    H151910   1.998   6.242   1.848 -1.7640  0.0492 -1.1583
10165TIP3    H251911   2.027   6.307   1.982  1.8674 -0.6555 -1.5061
10166TIP3   OH251912   5.412   2.344   2.628  0.2915 -0.1173  0.3474
10166TIP3    H151913   5.345   2.379   2.569  0.7403  1.3481  0.6643
10166TIP3    H251914   5.489   2.399   2.613 -0.0003  1.3074  3.2574
10167TIP3   OH251915   4.110   5.380  11.027  0.3355 -0.5655 -0.1571
10167TIP3    H151916   4.162   5.457  11.004  0.1889  0.1462  1.6815
10167TIP3    H251917   4.025   5.396  10.986  0.7313 -0.4219 -0.9357
10168TIP3   OH251918   6.205   5.661  14.181 -0.1489 -0.5783 -0.6753
10168TIP3    H151919   6.155   5.730  14.224 -0.4265 -1.3291  0.2240
10168TIP3    H251920   6.140   5.592  14.162  0.3461 -1.1222 -0.4251
10169TIP3   OH251921   2.717   5.293   3.942 -0.4092 -0.1381  0.3771
10169TIP3    H151922   2.649   5.359   3.927 -0.8434 -0.8611 -1.0250
10169TIP3    H251923   2.697   5.223   3.879 -0.5964 -2.1122  2.4792
10170TIP3   OH251924   6.290   3.903   3.066 -0.0809  0.1324  0.0713
10170TIP3    H151925   6.337   3.926   3.147  0.3775  0.7396 -0.3536
10170TIP3    H251926   6.237   3.827   3.090  2.1708 -1.4892  0.2028
10171TIP3   OH251927   5.671   4.441  16.413 -0.3337  0.1771 -0.0989
10171TIP3    H151928   5.650   4.516  16.468 -0.0715  0.7492 -0.7601
10171TIP3    H251929   5.655   4.471  16.324  1.7425  0.1421 -0.5411
10172TIP3   OH251930   0.119   5.643   0.904  0.5039  0.6713  0.2138
10172TIP3    H151931   0.042   5.603   0.863 -1.0984  0.5232  3.0213
10172TIP3    H251932   0.129   5.727   0.860 -2.4487  1.4793  0.7979
10173TIP3   OH251933   2.142   2.829   1.110  0.5689 -0.3217  0.4126
10173TIP3    H151934   2.188   2.899   1.064 -2.6803  0.7298 -1.6377
10173TIP3    H251935   2.097   2.874   1.182  0.1231 -0.6501  0.3439
10174TIP3   OH251936   2.955   1.219  14.778 -0.3060  0.0758  0.0007
10174TIP3    H151937   2.866   1.211  14.744 -0.4080  0.3403  0.1959
10174TIP3    H251938   3.012   1.202  14.703 -0.5134 -0.5569 -0.0242
10175TIP3   OH251939   5.990   4.445   3.737  0.3135  0.4108  0.1687
10175TIP3    H151940   5.909   4.489   3.761  0.2265  0.0111  0.6236
10175TIP3    H251941   5.983   4.433   3.642 -0.3345  0.0396  0.2592
10176TIP3   OH251942   4.226   2.629   4.665 -0.5194  0.0596  0.1144
10176TIP3    H151943   4.197   2.708   4.619 -0.9096  0.6357  1.3194
10176TIP3    H251944   4.312   2.609   4.627 -0.1571  1.3889  0.1853
10177TIP3   OH251945   1.220   2.654   0.106 -0.0809  0.2560 -0.0364
10177TIP3    H151946   1.223   2.649   0.202 -1.0410  1.0831  0.0558
10177TIP3    H251947   1.285   2.720   0.083  2.9118 -2.5140 -0.2887
10178TIP3   OH251948   5.853   6.217   6.264  0.1103 -0.4301  0.3819
10178TIP3    H151949   5.908   6.223   6.186  0.9947  0.5076  1.0425
10178TIP3    H251950   5.860   6.304   6.304  0.4535 -1.1728  2.0040
10179TIP3   OH251951   0.418   4.262   5.578 -0.1504  0.0475 -0.0489
10179TIP3    H151952   0.512   4.262   5.597 -0.1842  1.5486  0.2778
10179TIP3    H251953   0.377   4.289   5.661 -0.8596 -0.4446 -0.2324
10180TIP3   OH251954   2.459   1.776   2.153 -0.2807 -0.5390  0.2266
10180TIP3    H151955   2.533   1.785   2.092 -1.1505 -0.3909 -0.8315
10180TIP3    H251956   2.404   1.709   2.113 -1.5247  0.4866  0.1696
10181TIP3   OH251957   3.355   6.445  15.861  0.0302 -0.0839  0.4896
10181TIP3    H151958   3.450   6.447  15.850 -0.0854 -0.9582 -0.9009
10181TIP3    H251959   3.340   6.385  15.934  0.5729  0.9479  1.4818
10182TIP3   OH251960   1.271   5.669   2.140  0.0989  0.6609  0.1700
10182TIP3    H151961   1.343   5.606   2.138 -0.1491  0.3901 -0.9840
10182TIP3    H251962   1.262   5.693   2.232  2.1583  1.2805  0.2509
10183TIP3   OH251963   3.243   6.684   5.767  0.1706  0.0801 -0.3052
10183TIP3    H151964   3.183   6.718   5.701 -0.9242  0.1259  0.6836
10183TIP3    H251965   3.197   6.696   5.850  2.4112  2.1115  0.7730
10184TIP3   OH251966   4.582   2.605  14.800  0.3554 -0.2135  0.2895
10184TIP3    H151967   4.572   2.686  14.850  1.9242  1.0641 -1.3517
10184TIP3    H251968   4.514   2.610  14.733  1.2738  0.4023 -0.6128
10185TIP3   OH251969   1.895   4.771   4.711  0.2011  0.0001  0.4343
10185TIP3    H151970   1.807   4.759   4.676  0.0603 -0.6980  0.9958
10185TIP3    H251971   1.936   4.685   4.702  0.8412  0.3254  0.1563
10186TIP3   OH251972   2.234   0.291  16.552  0.2874 -0.4135 -0.2367
10186TIP3    H151973   2.243   0.196  16.559 -0.8282 -0.4465  1.2472
10186TIP3    H251974   2.147   0.309  16.586  1.3894  1.3650  1.8595
10187TIP3   OH251975   1.947   0.131   4.057 -0.3923 -0.1832 -0.1406
10187TIP3    H151976   1.943   0.225   4.070 -0.2316  0.0345 -1.4872
10187TIP3    H251977   1.968   0.095   4.143  0.3854  1.0741  0.2161
10188TIP3   OH251978   1.580   1.841   4.711 -0.2814  0.1565  0.2995
10188TIP3    H151979   1.536   1.858   4.794  0.5119  0.2574  0.7153
10188TIP3    H251980   1.582   1.746   4.704  0.2656  0.1305  0.7464
10189TIP3   OH251981   4.362   6.462  13.109 -0.1372  0.3485  0.3596
10189TIP3    H151982   4.355   6.522  13.183 -1.1766  1.2191 -0.4087
10189TIP3    H251983   4.331   6.378  13.143 -1.3776  0.9263  0.7241
10190TIP3   OH251984   3.367   3.479   1.509  0.2780 -0.3391  0.3651
10190TIP3    H151985   3.410   3.420   1.447 -0.5624  0.1991 -0.7755
10190TIP3    H251986   3.422   3.477   1.587  2.6643  0.7177 -1.1805
10191TIP3   OH251987   2.616   4.509   0.283  0.1446  0.2895 -0.3263
10191TIP3    H151988   2.642   4.593   0.321  0.2714 -0.4226  1.2230
10191TIP3    H251989   2.526   4.497   0.311  0.5987 -0.7766  0.7609
10192TIP3   OH251990   1.900   3.567   2.344  0.5725 -0.1746 -0.1958
10192TIP3    H151991   1.986   3.607   2.331 -0.0012  0.9693 -0.5984
10192TIP3    H251992   1.868   3.603   2.426  0.1545 -0.0076 -0.4298
10193TIP3   OH251993   3.886   4.770   5.180  0.3468 -0.1531 -0.0171
10193TIP3    H151994   3.822   4.744   5.113  2.1748 -1.2052 -1.4576
10193TIP3    H251995   3.936   4.840   5.138  1.7369 -1.0544  0.0987
10194TIP3   OH251996   3.756   0.612   0.815 -0.1028  0.4093 -0.9843
10194TIP3    H151997   3.809   0.647   0.887  0.6934 -1.8568 -0.3885
10194TIP3    H251998   3.754   0.683   0.751  1.2843  1.5901  0.1845
10195TIP3   OH251999   3.705   4.995  14.436  0.3025  0.0950 -0.2334
10195TIP3    H152000   3.691   4.923  14.498 -0.4088 -0.0379 -0.5480
10195TIP3    H252001   3.622   5.042  14.435  0.3127  0.0983 -1.0952
10196TIP3   OH252002   2.980   3.016  15.453  0.0323 -0.2276  0.1754
10196TIP3    H152003   2.990   2.938  15.399 -0.7077  0.2275 -0.6599
10196TIP3    H252004   2.904   3.061  15.416  0.4170  0.8625  0.6588
10197TIP3   OH252005   5.800   6.780   1.892 -0.3829  0.4087  0.6277
10197TIP3    H152006   5.845   6.854   1.852  0.4558 -1.0800 -1.3271
10197TIP3    H252007   5.868   6.713   1.901 -1.9399 -1.6965 -1.8146
10198TIP3   OH252008   2.858   3.873   5.213 -0.2592 -0.2190 -0.5510
10198TIP3    H152009   2.809   3.903   5.290 -1.3339 -2.5031 -0.2604
10198TIP3    H252010   2.930   3.936   5.205 -0.3216  0.3280  2.0772
10199TIP3   OH252011   3.270   5.352   4.122  0.3483 -0.5276 -0.0261
10199TIP3    H152012   3.188   5.316   4.088  0.8014 -0.9894 -0.6534
10199TIP3    H252013   3.254   5.366   4.215 -0.0415 -1.7739  0.1073
10200TIP3   OH252014   5.313   6.648   2.724  0.5876 -0.2931 -0.6295
10200TIP3    H152015   5.329   6.721   2.784 -1.4746 -0.3945  0.1311
10200TIP3    H252016   5.400   6.615   2.703  1.4956  1.4533  0.1625
10201TIP3   OH252017   2.685   3.883   0.561 -0.3706  0.0335  0.0778
10201TIP3    H152018   2.687   3.901   0.467  0.2154 -0.6149 -0.0462
10201TIP3    H252019   2.600   3.916   0.590  0.1214  1.8157 -0.3474
10202TIP3   OH252020   2.698   0.873  13.487  0.4359 -0.5609 -0.7606
10202TIP3    H152021   2.627   0.836  13.435  0.0009 -0.3621 -0.3207
10202TIP3    H252022   2.772   0.880  13.426 -0.0070 -0.5015 -1.2961
10203TIP3   OH252023   6.415   5.136  12.613 -0.5010 -0.4012  0.0065
10203TIP3    H152024   6.440   5.179  12.695  1.7113  2.2703 -1.8906
10203TIP3    H252025   6.493   5.086  12.588 -0.2248  0.7839 -1.6219
10204TIP3   OH252026   0.270   0.443   3.480  0.2341  0.2609 -0.2383
10204TIP3    H152027   0.182   0.481   3.488 -0.0036 -0.4188  0.5025
10204TIP3    H252028   0.256   0.362   3.430  0.2185 -0.5438  1.0369
10205TIP3   OH252029   2.522   0.455   5.630 -0.0255  0.2993  0.6115
10205TIP3    H152030   2.590   0.491   5.573  1.0513  0.9373  2.2298
10205TIP3    H252031   2.492   0.376   5.585  0.8910  0.6873 -0.7346
10206TIP3   OH252032   3.902   6.584   1.566  0.1479 -0.1406 -0.4331
10206TIP3    H152033   3.913   6.631   1.649  2.5963  1.0611 -1.3456
10206TIP3    H252034   3.883   6.652   1.502  1.0925 -0.6912 -1.3308
10207TIP3   OH252035   3.696   0.809   3.787  0.2835 -0.9011 -0.1459
10207TIP3    H152036   3.695   0.714   3.799  1.4173 -0.8295  0.6163
10207TIP3    H252037   3.688   0.844   3.876  4.3972 -0.3314  0.1635
10208TIP3   OH252038   0.828   3.286  15.393 -0.2600 -0.0096  0.0943
10208TIP3    H152039   0.836   3.236  15.475  0.3302 -0.0197  0.0297
10208TIP3    H252040   0.735   3.279  15.370  0.3167 -4.2284 -1.8717
10209TIP3   OH252041   0.788   0.575  11.299 -0.3926  0.3947  0.1863
10209TIP3    H152042   0.735   0.651  11.274  0.4852  1.5721  1.7035
10209TIP3    H252043   0.878   0.607  11.295 -0.0551 -0.3260  1.5807
10210TIP3   OH252044   3.261   6.039   6.588  0.0403  0.2291 -0.0417
10210TIP3    H152045   3.232   6.091   6.663 -0.2082 -1.0207  0.7497
10210TIP3    H252046   3.184   6.031   6.533 -0.7274 -1.6069  1.2018
10211TIP3   OH252047   3.209   3.683  13.183  0.3775  0.3563 -0.5655
10211TIP3    H152048   3.248   3.601  13.151  0.0216  0.0419 -0.2135
10211TIP3    H252049   3.248   3.696  13.269  0.7255  0.7678 -0.7841
10212TIP3   OH252050   3.930   6.396   6.236  0.2399  0.3660 -0.2951
10212TIP3    H152051   3.984   6.441   6.301  0.9672 -0.9006  0.0057
10212TIP3    H252052   3.840   6.415   6.263  0.5235 -0.2389  1.1590
10213TIP3   OH252053   5.523   1.271   1.365  0.3628  0.2094  0.2005
10213TIP3    H152054   5.589   1.260   1.296  0.1627  1.6181 -0.2586
10213TIP3    H252055   5.464   1.338   1.331 -0.8970 -0.5125  0.9207
10214TIP3   OH252056   3.383   1.970   2.213  0.1158  0.0835 -0.7219
10214TIP3    H152057   3.290   1.985   2.224  0.3139  2.5930 -1.7868
10214TIP3    H252058   3.418   1.968   2.302 -0.8835 -0.5320 -0.3307
10215TIP3   OH252059   4.598   0.634   0.324 -0.2706  0.2129  0.5451
10215TIP3    H152060   4.687   0.659   0.297 -0.9748 -1.4280 -4.1067
10215TIP3    H252061   4.542   0.703   0.289 -1.0584 -0.1615  1.0409
10216TIP3   OH252062   6.051   3.925   3.308 -0.1535  0.5462 -0.2516
10216TIP3    H152063   6.021   3.847   3.259 -1.4447 -0.1737  1.5718
10216TIP3    H252064   6.069   3.892   3.396 -1.1650  2.3842  0.6927
10217TIP3   OH252065   0.007   3.742  13.904  0.1742 -0.3772  0.1602
10217TIP3    H152066   0.062   3.784  13.970 -2.6883  1.5236  1.5661
10217TIP3    H252067  -0.022   3.813  13.848 -1.8237 -1.0478  0.2660
10218TIP3   OH252068   0.707   1.958   1.427 -0.2973 -0.5462  0.4171
10218TIP3    H152069   0.753   1.990   1.505  2.0401 -3.2619  0.3291
10218TIP3    H252070   0.614   1.971   1.447  0.2462 -0.4503  3.3259
10219TIP3   OH252071   5.166   5.024   1.953  0.2126 -0.7717 -0.5834
10219TIP3    H152072   5.098   4.972   1.996 -1.0609  0.2576 -1.2770
10219TIP3    H252073   5.148   5.114   1.981 -0.1608 -0.1851 -2.5582
10220TIP3   OH252074   5.687   4.818  16.549 -0.0169 -0.0526 -0.3294
10220TIP3    H152075   5.631   4.741  16.558 -3.4506  2.1358 -1.1717
10220TIP3    H252076   5.683   4.861  16.635  1.7480 -0.6014  0.0836
10221TIP3   OH252077   0.790   2.953  14.994  0.1140 -0.4484 -0.1916
10221TIP3    H152078   0.875   2.935  15.034 -0.4589 -2.2686  0.2848
10221TIP3    H252079   0.736   2.986  15.066 -0.0170 -0.7620 -0.1430
10222TIP3   OH252080   4.239   4.237  10.510  0.2723  0.0495 -0.7439
10222TIP3    H152081   4.193   4.300  10.455  2.0286  1.9478 -0.1621
10222TIP3    H252082   4.305   4.199  10.452 -0.0430 -0.4404 -0.7900
10223TIP3   OH252083   2.470   5.005  15.297  0.1164  0.5506  0.4661
10223TIP3    H152084   2.486   5.034  15.207  0.8722  0.3959  0.5436
10223TIP3    H252085   2.544   4.947  15.317 -0.0590  0.5622  1.1733
10224TIP3   OH252086   2.035   4.800   1.852 -0.3785 -0.2293  0.6350
10224TIP3    H152087   1.948   4.762   1.838 -0.8504  0.2924  1.9856
10224TIP3    H252088   2.081   4.736   1.906 -1.0525  0.9005  2.6160
10225TIP3   OH252089   6.360   4.716  14.032 -0.0682  0.3389 -0.3529
10225TIP3    H152090   6.387   4.703  14.123  0.5340  2.8711 -0.0923
10225TIP3    H252091   6.288   4.655  14.018 -1.3657  1.1125  2.3920
10226TIP3   OH252092   5.553   5.956  16.076  0.4020  0.2391  0.0371
10226TIP3    H152093   5.629   5.931  16.128  1.8185  0.6569 -1.7298
10226TIP3    H252094   5.573   5.925  15.987 -0.8729  1.5379 -0.7500
10227TIP3   OH252095   6.277   2.961  11.983 -0.1321  0.1493 -0.0386
10227TIP3    H152096   6.283   2.882  11.930 -1.0532  1.4414 -2.2464
10227TIP3    H252097   6.184   2.983  11.982 -0.1482  0.3353  2.0347
10228TIP3   OH252098   4.382   3.546  13.848 -0.3471 -0.1330 -0.4799
10228TIP3    H152099   4.358   3.590  13.930 -0.8576 -1.1729 -0.0605
10228TIP3    H252100   4.453   3.600  13.812  0.3038  0.0060  0.9439
10229TIP3   OH252101   4.186   5.072  14.057  0.0381  0.3891 -0.4663
10229TIP3    H152102   4.185   5.077  14.153  0.3850  1.5714 -0.5087
10229TIP3    H252103   4.094   5.079  14.032 -0.1573 -0.9229 -0.1995
10230TIP3   OH252104   1.619   3.413   2.455  0.1018  0.1104 -0.2433
10230TIP3    H152105   1.587   3.500   2.430  0.0411  0.9680  2.3912
10230TIP3    H252106   1.546   3.354   2.437 -0.1239  0.7144 -1.4028
10231TIP3   OH252107   0.130   2.847   4.921 -0.1871  0.0882  0.2227
10231TIP3    H152108   0.191   2.908   4.963  1.1396 -1.4453  0.6114
10231TIP3    H252109   0.175   2.762   4.923 -1.5492 -0.7257 -1.1928
10232TIP3   OH252110   2.985   1.995  11.824 -0.4489 -0.0259 -0.0370
10232TIP3    H152111   2.941   1.914  11.849  1.4733 -1.5272 -1.1323
10232TIP3    H252112   2.959   2.010  11.733 -1.5644  1.1893  0.4507
10233TIP3   OH252113   5.416   3.210   4.073  0.4284  0.0118 -0.1242
10233TIP3    H152114   5.405   3.128   4.122  0.5893 -0.5291 -0.9614
10233TIP3    H252115   5.327   3.236   4.049  0.3963 -0.0561 -0.0793
10234TIP3   OH252116   6.308   3.895   1.967  1.1874  0.0842 -0.1410
10234TIP3    H152117   6.213   3.898   1.979  1.3488  1.9499  1.0425
10234TIP3    H252118   6.320   3.868   1.876 -0.4978  0.3382 -0.4622
10235TIP3   OH252119   5.349   5.915   4.717  0.3832  0.2159  0.2248
10235TIP3    H152120   5.350   5.894   4.811 -0.8505 -2.2300 -0.2318
10235TIP3    H252121   5.329   6.009   4.714 -1.3317 -0.0049  2.3874
10236TIP3   OH252122   0.735   1.332  11.087 -0.1767 -0.0820 -0.1154
10236TIP3    H152123   0.747   1.288  11.171 -1.3196  0.5290  0.3809
10236TIP3    H252124   0.655   1.295  11.051  0.1407 -0.1215 -0.8137
10237TIP3   OH252125   4.068   4.325  15.610 -0.1081  0.5102 -0.4360
10237TIP3    H152126   4.076   4.308  15.704 -0.0749 -0.4152 -0.5960
10237TIP3    H252127   4.141   4.278  15.571 -1.9958 -1.9780 -1.2298
10238TIP3   OH252128   1.670   6.186  13.104 -0.0380  0.1882 -0.7934
10238TIP3    H152129   1.761   6.197  13.078  0.4280 -0.3085  0.5566
10238TIP3    H252130   1.625   6.159  13.024  0.9090  0.8315 -1.5628
10239TIP3   OH252131   0.332   2.412   5.058  0.7070 -0.1135 -0.6393
10239TIP3    H152132   0.347   2.449   5.145 -1.2322  1.5354 -0.9614
10239TIP3    H252133   0.417   2.374   5.035  1.5492  0.2473  1.5525
10240TIP3   OH252134   0.989   3.158   5.687 -0.2960  0.3976  0.1437
10240TIP3    H152135   0.986   3.253   5.674 -2.2355  0.4307  0.5412
10240TIP3    H252136   0.901   3.128   5.667  0.5357 -1.4861 -0.9481
10241TIP3   OH252137   1.304   0.495  15.744 -0.1048 -0.2493  0.1118
10241TIP3    H152138   1.233   0.520  15.685  0.5424 -1.1004 -1.0544
10241TIP3    H252139   1.381   0.542  15.710  0.7432 -2.3678 -1.0644
10242TIP3   OH252140   6.061   3.557   1.671  0.2460  0.0716 -0.6864
10242TIP3    H152141   6.084   3.585   1.759  1.4504 -0.7679 -0.6959
10242TIP3    H252142   6.007   3.628   1.636 -0.4108  0.3281  0.7746
10243TIP3   OH252143   5.582   3.709   0.415 -0.4820 -0.0902  0.1384
10243TIP3    H152144   5.491   3.727   0.440  0.3050  2.7642  1.3091
10243TIP3    H252145   5.630   3.710   0.498  0.8494 -0.1396 -0.6068
10244TIP3   OH252146   5.784   4.433  12.708  0.0096  0.1678  0.2669
10244TIP3    H152147   5.730   4.511  12.723 -0.8441 -0.2980 -0.2803
10244TIP3    H252148   5.737   4.363  12.753  1.1470  0.0821  1.3682
10245TIP3   OH252149   2.991   2.669   5.583 -0.1878 -0.3047 -0.3080
10245TIP3    H152150   2.993   2.732   5.512 -2.2136 -0.4632 -0.5560
10245TIP3    H252151   3.040   2.711   5.654  0.2903  0.6190 -1.1655
10246TIP3   OH252152   2.336   5.031   1.788 -0.2683  0.0084 -0.6105
10246TIP3    H152153   2.263   5.064   1.840  0.5765 -0.3481  0.8586
10246TIP3    H252154   2.328   5.076   1.704 -3.5350 -1.7023 -1.4008
10247TIP3   OH252155   2.442   3.345  13.302 -0.1842 -0.1024 -0.0565
10247TIP3    H152156   2.483   3.357  13.388 -2.3227 -0.6158  1.1016
10247TIP3    H252157   2.488   3.270  13.265  3.0090  2.0694 -0.8773
10248TIP3   OH252158   4.256   3.431   4.007  0.6071  0.2026  0.0059
10248TIP3    H152159   4.325   3.495   3.990 -0.0133  0.8279 -0.1938
10248TIP3    H252160   4.303   3.348   4.016  1.5258  0.8107  1.2202
10249TIP3   OH252161   1.967   4.786  12.568 -0.2189  0.7748  0.0646
10249TIP3    H152162   1.873   4.772  12.578 -0.0029 -1.1039 -0.1366
10249TIP3    H252163   1.993   4.723  12.500  1.6190 -0.7790  2.0717
10250TIP3   OH252164   6.734   3.704  15.055  0.0842 -0.4442  0.4535
10250TIP3    H152165   6.753   3.796  15.039  0.5469 -0.7236 -0.6556
10250TIP3    H252166   6.817   3.659  15.042  0.0209 -0.9545  1.6687
10251TIP3   OH252167   1.981   2.295   4.547 -0.4383 -0.0169 -0.7813
10251TIP3    H152168   1.988   2.201   4.564 -1.0465  0.3499  1.9261
10251TIP3    H252169   2.058   2.315   4.494  0.1389 -1.9049 -0.7274
10252TIP3   OH252170   3.711   4.633   3.986  0.3545  0.6208 -0.0268
10252TIP3    H152171   3.726   4.724   3.963 -2.1522  1.3967  0.9796
10252TIP3    H252172   3.705   4.633   4.082 -1.0842 -0.2939 -0.0819
10253TIP3   OH252173   5.968   1.528   0.176  0.3867  0.8278 -0.7257
10253TIP3    H152174   6.011   1.566   0.099 -0.3558 -1.3489 -2.2866
10253TIP3    H252175   5.910   1.597   0.207  2.4205  2.6048 -0.6149
10254TIP3   OH252176   3.117   1.742  14.719  0.3848  0.4812  0.0419
10254TIP3    H152177   3.190   1.797  14.747  0.3400  0.5469  0.0283
10254TIP3    H252178   3.121   1.742  14.623 -0.3177  1.4081 -0.0058
10255TIP3   OH252179   6.272   4.679   0.516  0.4725  0.0132  0.5853
10255TIP3    H152180   6.243   4.710   0.431 -3.7262  0.5736  1.9747
10255TIP3    H252181   6.340   4.741   0.543  0.4365  1.0225 -1.4752
10256TIP3   OH252182   5.464   1.339   4.252  0.2979  0.5057 -0.2823
10256TIP3    H152183   5.388   1.315   4.199  1.2412 -3.4805 -0.1736
10256TIP3    H252184   5.536   1.345   4.189  0.7235 -0.5539  0.0734
10257TIP3   OH252185   3.858   0.048   5.252  0.4217  0.2537  0.1074
10257TIP3    H152186   3.863   0.008   5.339  0.7243 -0.5785 -0.2768
10257TIP3    H252187   3.818  -0.020   5.197 -0.1141  0.9065 -0.3273
10258TIP3   OH252188   1.031   5.838   5.856 -0.3433  0.8260  0.4076
10258TIP3    H152189   1.082   5.758   5.868 -0.1177  1.2562  2.6976
10258TIP3    H252190   0.942   5.808   5.840 -0.5993  0.0468  2.9012
10259TIP3   OH252191   6.766   2.044  13.767 -0.2192  0.0218 -0.1766
10259TIP3    H152192   6.826   1.989  13.817 -0.3563  1.1707  1.3202
10259TIP3    H252193   6.823   2.099  13.713  0.0707  0.6999  0.7988
10260TIP3   OH252194   1.846   1.109   4.903 -0.2739  0.0000 -0.2040
10260TIP3    H152195   1.834   1.015   4.919 -2.3448  0.2900  0.2160
10260TIP3    H252196   1.886   1.114   4.816  0.6675 -1.2727  0.1222
10261TIP3   OH252197   0.707   0.010   3.506  0.3133  0.5532 -0.1130
10261TIP3    H152198   0.663  -0.026   3.583  0.5843  1.9162  0.6942
10261TIP3    H252199   0.790   0.043   3.538  0.1736  1.6841 -0.8738
10262TIP3   OH252200   5.390   1.453   0.016 -0.4480  0.3777 -0.3422
10262TIP3    H152201   5.456   1.465  -0.051 -0.1866  0.9431  0.0067
10262TIP3    H252202   5.439   1.448   0.098 -0.8693  1.5119 -0.0039
10263TIP3   OH252203   5.820   0.522   1.903 -0.4757 -0.2567  0.2574
10263TIP3    H152204   5.898   0.470   1.922  2.0625  2.2874 -2.3627
10263TIP3    H252205   5.793   0.493   1.816 -1.5871 -0.0443  0.5177
10264TIP3   OH252206   3.316   5.413  14.724 -0.5853  0.5117  0.1433
10264TIP3    H152207   3.399   5.443  14.686  0.2098 -1.5140  0.1691
10264TIP3    H252208   3.329   5.419  14.818 -0.5647  0.4406  0.1451
10265TIP3   OH252209   4.085   4.032   0.634  0.0789 -0.0688 -0.4301
10265TIP3    H152210   4.033   3.952   0.640  1.3211 -0.7937  1.8679
10265TIP3    H252211   4.083   4.055   0.541 -2.0406 -1.5636 -0.8329
10266TIP3   OH252212   2.903   3.185  10.692  0.0108  0.5301 -0.5200
10266TIP3    H152213   2.869   3.154  10.777  0.3619  1.3845 -0.0610
10266TIP3    H252214   2.827   3.224  10.649  0.3334  2.3459  0.4638
10267TIP3   OH252215   3.477   3.545  16.627  0.4995  0.1851 -0.1785
10267TIP3    H152216   3.424   3.513  16.700  1.3871 -0.5293  0.1773
10267TIP3    H252217   3.557   3.577  16.668 -0.0300  2.1777 -0.6096
10268TIP3   OH252218   5.909   1.890  10.525 -0.1511 -0.6548 -0.4286
10268TIP3    H152219   5.854   1.812  10.517 -1.6420  0.3842 -0.5465
10268TIP3    H252220   5.989   1.857  10.567 -0.5133 -2.3384 -0.9629
10269TIP3   OH252221   2.516   5.550  12.645  0.2739 -0.6128  0.5537
10269TIP3    H152222   2.566   5.497  12.707  0.6518  0.1790  0.9409
10269TIP3    H252223   2.476   5.618  12.698  0.0344 -0.3335  0.0259
10270TIP3   OH252224   6.469   3.163  13.634 -0.3197  0.5641  0.2350
10270TIP3    H152225   6.466   3.240  13.690  0.9769  0.5939  0.2805
10270TIP3    H252226   6.439   3.194  13.549 -2.2617  0.5322  0.8473
10271TIP3   OH252227   6.103   0.465   4.617 -0.6287  0.0771  0.0767
10271TIP3    H152228   6.035   0.513   4.571 -0.3497 -0.8289 -1.3323
10271TIP3    H252229   6.071   0.458   4.707 -1.9051  0.5629 -0.3213
10272TIP3   OH252230   6.321   5.907  17.079  0.5207  0.4189 -0.1918
10272TIP3    H152231   6.283   5.995  17.081  2.0739  1.1267 -0.6231
10272TIP3    H252232   6.372   5.901  17.159  0.3652 -0.1236 -0.1329
10273TIP3   OH252233   0.867   6.423  14.938  0.2090 -0.1999  0.1610
10273TIP3    H152234   0.905   6.337  14.919  0.3492  0.2155 -1.5315
10273TIP3    H252235   0.927   6.485  14.898  0.2422  0.7422  1.5878
10274TIP3   OH252236   0.337   0.968   3.821 -0.7691  0.6718 -0.7305
10274TIP3    H152237   0.411   0.940   3.875 -1.2832  0.5600 -0.0786
10274TIP3    H252238   0.374   1.035   3.763 -0.1495  0.5974 -0.4313
10275TIP3   OH252239   1.574   3.039   0.684 -0.0755  0.8475 -0.0972
10275TIP3    H152240   1.544   2.998   0.765 -3.2439  0.3596 -1.3980
10275TIP3    H252241   1.554   3.132   0.695  1.8959  1.2530  0.6015
10276TIP3   OH252242   1.375   0.432  15.358  0.3518  0.2248 -0.7902
10276TIP3    H152243   1.440   0.410  15.425 -0.4297 -1.1087 -0.4281
10276TIP3    H252244   1.322   0.353  15.349 -2.4069  1.8283  0.2847
10277TIP3   OH252245   6.527   5.304   2.846  0.1461 -0.0895  0.4197
10277TIP3    H152246   6.514   5.399   2.840 -0.5488 -0.2151 -0.3069
10277TIP3    H252247   6.622   5.292   2.839  0.1785  0.5042 -0.2806
10278TIP3   OH252248   5.264   6.669  15.122  0.4427 -0.5351 -0.3746
10278TIP3    H152249   5.250   6.690  15.030  1.2094  0.9512 -0.1762
10278TIP3    H252250   5.276   6.753  15.165 -1.4840 -1.0798  1.4096
10279TIP3   OH252251   3.125   0.815   4.224 -0.2270 -0.1739 -0.3251
10279TIP3    H152252   3.205   0.764   4.233  1.2299  1.8520 -0.8816
10279TIP3    H252253   3.117   0.829   4.129 -1.1997 -0.2687 -0.2637
10280TIP3   OH252254   2.026   2.983   3.710 -0.1121  0.2829  0.1489
10280TIP3    H152255   1.991   2.959   3.624  1.2089  0.2376 -0.4103
10280TIP3    H252256   2.037   3.078   3.706 -2.2395  0.6263  1.1568
10281TIP3   OH252257   3.988   3.755  14.568 -0.1022 -0.3947 -0.1996
10281TIP3    H152258   3.997   3.846  14.540  1.1946 -0.3073  0.3926
10281TIP3    H252259   3.911   3.755  14.625 -0.1750  0.3083 -0.2916
10282TIP3   OH252260   4.502   4.401   6.551 -0.0694  0.2547 -0.3816
10282TIP3    H152261   4.554   4.340   6.500 -1.9469  0.2344 -2.3919
10282TIP3    H252262   4.566   4.463   6.586  1.9041 -2.6567  1.6634
10283TIP3   OH252263   2.243   6.395  12.224  0.2661 -0.4584 -0.1866
10283TIP3    H152264   2.281   6.307  12.230  0.1992 -0.6913 -2.5755
10283TIP3    H252265   2.181   6.390  12.152  0.8984  1.7726 -0.9591
10284TIP3   OH252266   6.616   3.204  13.264  0.1695 -0.0071 -0.0315
10284TIP3    H152267   6.598   3.243  13.179 -0.6506  0.6309  0.4194
10284TIP3    H252268   6.554   3.131  13.271 -0.9653  0.9933  0.7116
10285TIP3   OH252269   0.100   6.248  14.273  0.3900  0.0683 -0.1872
10285TIP3    H152270   0.143   6.283  14.196 -1.2066  2.2832 -0.1426
10285TIP3    H252271   0.170   6.243  14.339  0.8158  2.9091 -0.3044
10286TIP3   OH252272   5.332   4.369  11.426  0.0007  0.4909 -1.1248
10286TIP3    H152273   5.396   4.379  11.496  0.1819  1.5252 -1.4130
10286TIP3    H252274   5.319   4.275  11.417  0.7458  0.3153 -0.4037
10287TIP3   OH252275   2.552   3.566   4.736 -0.1260  0.2369 -0.6024
10287TIP3    H152276   2.459   3.553   4.716  0.4739 -2.8379 -2.0088
10287TIP3    H252277   2.566   3.516   4.816  0.1511  1.6569  0.2730
10288TIP3   OH252278   5.393   0.500   2.804 -0.0227  0.1858 -0.5377
10288TIP3    H152279   5.430   0.578   2.762  0.3886  0.2492 -0.0681
10288TIP3    H252280   5.368   0.530   2.892  0.9066 -0.3993 -0.0569
10289TIP3   OH252281   6.774   5.491  11.918  0.4402  0.0788 -0.1534
10289TIP3    H152282   6.856   5.448  11.894  0.4871  1.0160 -1.8641
10289TIP3    H252283   6.710   5.457  11.855 -0.4613 -0.4870  1.0269
10290TIP3   OH252284   0.576   5.011  12.283 -0.0494  0.2482 -0.1183
10290TIP3    H152285   0.621   5.025  12.367 -0.8609 -1.1579  0.5848
10290TIP3    H252286   0.627   4.944  12.239 -0.9713 -0.7794  0.3375
10291TIP3   OH252287   0.089   3.889  16.101 -0.0834 -0.1828  0.5095
10291TIP3    H152288   0.095   3.968  16.155 -0.0547  0.3603 -0.2754
10291TIP3    H252289  -0.004   3.867  16.102 -0.3814  0.9293 -0.7533
10292TIP3   OH252290   2.766   5.295   0.993  0.3398 -0.7544 -0.2228
10292TIP3    H152291   2.828   5.296   1.065  1.0748 -0.7604 -0.8372
10292TIP3    H252292   2.680   5.301   1.034  0.8133  2.3729  0.5731
10293TIP3   OH252293   0.927   3.942   3.594  0.0071  0.0414  0.5015
10293TIP3    H152294   0.918   3.850   3.568  1.9169 -0.0405  0.0303
10293TIP3    H252295   0.996   3.977   3.537 -1.6046  2.1779 -0.3154
10294TIP3   OH252296   4.116   0.156   0.009  0.1052 -0.2657  0.5355
10294TIP3    H152297   4.027   0.134   0.035  0.0412 -0.4363  0.1888
10294TIP3    H252298   4.170   0.087   0.047 -0.0139 -0.6443  0.0281
10295TIP3   OH252299   5.275   3.201   5.489 -0.1179  0.0083  0.2683
10295TIP3    H152300   5.226   3.187   5.407  0.6517  0.1533 -0.2303
10295TIP3    H252301   5.263   3.293   5.509  1.3023  0.4545 -0.7743
10296TIP3   OH252302   3.784   5.912  14.722 -0.1949  0.9736 -0.4315
10296TIP3    H152303   3.849   5.848  14.693  0.2558  0.9969  0.5075
10296TIP3    H252304   3.775   5.971  14.647  0.8885  0.9825 -0.5754
10297TIP3   OH252305   2.424   0.922   5.471 -0.2215  0.4408 -0.4274
10297TIP3    H152306   2.452   0.830   5.478  1.1614  0.8120 -0.7933
10297TIP3    H252307   2.337   0.923   5.509 -0.5120 -1.1503 -0.9656
10298TIP3   OH252308   3.275   2.434   4.838 -0.4654  0.1871 -0.0779
10298TIP3    H152309   3.208   2.367   4.824 -0.4769  0.3115 -0.6712
10298TIP3    H252310   3.240   2.512   4.795  0.7914 -0.2008 -1.9363
10299TIP3   OH252311   5.843   4.033  13.433  0.0292 -0.6729 -0.5117
10299TIP3    H152312   5.845   4.073  13.519  0.0075  0.9938 -1.2530
10299TIP3    H252313   5.894   3.953  13.442 -1.0386 -1.1905  1.3462
10300TIP3   OH252314   1.645   0.430   0.012  0.4364 -0.1148  0.3624
10300TIP3    H152315   1.563   0.403   0.054 -0.1289  2.3460  1.0476
10300TIP3    H252316   1.624   0.515  -0.027  2.2487 -0.1920 -0.8883
10301TIP3   OH252317   3.486   0.909  15.127  0.7102 -0.0424  0.1903
10301TIP3    H152318   3.396   0.877  15.138  0.5819  0.5405  0.9506
10301TIP3    H252319   3.533   0.835  15.087 -0.1986 -0.2032 -0.6311
10302TIP3   OH252320   0.575   0.959   3.492 -0.3603  0.4108  0.2689
10302TIP3    H152321   0.534   0.875   3.477 -0.2048  0.1267  1.3362
10302TIP3    H252322   0.616   0.981   3.408 -1.1505 -0.1431 -0.2753
10303TIP3   OH252323   6.252   4.162  15.340 -0.4971 -0.4850 -0.3095
10303TIP3    H152324   6.223   4.089  15.284 -0.9097 -1.7421  1.4549
10303TIP3    H252325   6.345   4.146  15.354 -0.5425 -0.5592 -0.0896
10304TIP3   OH252326   1.387   1.737   3.331  0.3699 -0.0294  0.0133
10304TIP3    H152327   1.382   1.657   3.383 -0.7495  0.1462  0.2020
10304TIP3    H252328   1.350   1.805   3.387 -0.5420  0.2247 -0.8610
10305TIP3   OH252329   2.416   5.904  11.858 -0.1401  0.0751  0.0228
10305TIP3    H152330   2.353   5.836  11.837 -0.0798  0.0678 -0.1400
10305TIP3    H252331   2.411   5.914  11.953 -0.6719  0.3538 -0.0321
10306TIP3   OH252332   1.860   0.509   0.165 -0.4044 -0.2907  0.5494
10306TIP3    H152333   1.894   0.444   0.226  0.3149 -1.5384 -1.1086
10306TIP3    H252334   1.794   0.462   0.114 -0.3889  0.4742 -0.1937
10307TIP3   OH252335   4.173   2.900   5.695 -0.1016  0.0359  0.7970
10307TIP3    H152336   4.134   2.972   5.745 -0.8557 -1.1479  1.9734
10307TIP3    H252337   4.166   2.824   5.753  1.9159 -0.7133  0.1214
10308TIP3   OH252338   0.177   4.970   0.814 -0.5763 -0.0117  0.9284
10308TIP3    H152339   0.207   4.882   0.790 -0.8877 -0.1629  1.0840
10308TIP3    H252340   0.146   5.008   0.732 -0.4982 -0.0726  0.8709
10309TIP3   OH252341   1.296   4.684   6.182  0.2268 -0.5776  0.5460
10309TIP3    H152342   1.254   4.754   6.131  0.3845 -1.1591 -0.3882
10309TIP3    H252343   1.253   4.689   6.268 -2.1772 -1.4755 -0.4957
10310TIP3   OH252344   3.338   0.653   5.912  0.0476 -0.4317  0.3337
10310TIP3    H152345   3.259   0.684   5.955 -0.4528 -2.4310  0.9642
10310TIP3    H252346   3.307   0.588   5.849  0.8919  1.3914 -2.1375
10311TIP3   OH252347   4.194   2.319  15.722  0.1286  0.3925  0.2601
10311TIP3    H152348   4.287   2.334  15.740  0.5915 -1.8628  0.0356
10311TIP3    H252349   4.160   2.283  15.804  0.0992 -1.2913 -0.4758
10312TIP3   OH252350   6.702   2.134  12.339  0.8390  0.3485 -0.5764
10312TIP3    H152351   6.705   2.141  12.434 -1.0150 -0.6128 -0.3980
10312TIP3    H252352   6.729   2.220  12.307 -0.4980  1.3560  0.8809
10313TIP3   OH252353   0.457   0.030   1.143 -0.0467  0.0335  0.2765
10313TIP3    H152354   0.460   0.124   1.162 -1.0128  0.1170  0.0908
10313TIP3    H252355   0.382   0.020   1.085 -0.3172 -0.9317  0.7648
10314TIP3   OH252356   3.361   5.678   4.318  0.0670  0.3194 -0.1342
10314TIP3    H152357   3.370   5.762   4.362 -0.2485 -0.2012  0.9745
10314TIP3    H252358   3.292   5.692   4.252  1.0158  1.2910 -0.9544
10315TIP3   OH252359   1.591   5.232   2.460  0.2503 -0.1415 -0.3061
10315TIP3    H152360   1.527   5.220   2.390  0.8585 -0.4407 -0.8325
10315TIP3    H252361   1.591   5.149   2.507 -0.0417  0.0021 -0.0533
10316TIP3   OH252362   5.707   3.919   3.443 -0.3336 -0.5725 -0.7006
10316TIP3    H152363   5.732   3.940   3.353  2.6933 -0.3582  0.0834
10316TIP3    H252364   5.723   3.825   3.450  1.6609 -0.2224  0.1588
10317TIP3   OH252365   1.729   1.577   5.430  0.0718  0.3169 -0.1658
10317TIP3    H152366   1.731   1.661   5.475 -0.0298  0.0819  0.2836
10317TIP3    H252367   1.705   1.598   5.340  1.5564  0.9375 -0.4443
10318TIP3   OH252368   1.298   0.011  16.944 -0.2361  0.7640  0.5059
10318TIP3    H152369   1.278  -0.029  16.859 -0.4230  0.1724  0.8162
10318TIP3    H252370   1.254  -0.047  17.008  1.1719  0.3292  1.1116
10319TIP3   OH252371   3.293   3.990  10.231  0.2600  0.0673 -0.0723
10319TIP3    H152372   3.213   3.941  10.247  0.1363  0.1221 -0.5059
10319TIP3    H252373   3.267   4.082  10.239  0.5684  0.0668  1.0958
10320TIP3   OH252374   3.095   0.028   0.667 -0.9106  0.1224 -0.2653
10320TIP3    H152375   3.137   0.113   0.653  2.1192 -1.0438  0.8072
10320TIP3    H252376   3.118  -0.024   0.589 -0.5675 -0.4525  0.2073
10321TIP3   OH252377   2.366   6.750  11.083  0.0213 -0.0268 -0.7541
10321TIP3    H152378   2.281   6.706  11.095  0.0085  0.1505 -0.1750
10321TIP3    H252379   2.430   6.680  11.091 -0.0243 -0.0199 -0.2841
10322TIP3   OH252380   2.759   0.329   1.855  0.1367  0.3641  0.2007
10322TIP3    H152381   2.750   0.340   1.949  1.2180 -0.5724  0.4380
10322TIP3    H252382   2.673   0.354   1.819  0.1764  2.1822  1.2716
10323TIP3   OH252383   2.859   5.646   4.231  0.1174 -0.1900 -0.2791
10323TIP3    H152384   2.771   5.640   4.193 -0.6701  1.0620  1.2293
10323TIP3    H252385   2.875   5.740   4.239  2.1222 -0.3689 -1.6158
10324TIP3   OH252386   4.327   5.383   3.852  0.1602 -0.0517 -0.2338
10324TIP3    H152387   4.359   5.322   3.919  2.6708  1.0969 -0.2913
10324TIP3    H252388   4.250   5.424   3.892  0.8279 -0.3571  1.4359
10325TIP3   OH252389   6.226   6.572   4.641  0.4368 -0.1409 -0.1416
10325TIP3    H152390   6.163   6.572   4.570 -0.5863 -3.7728  0.5634
10325TIP3    H252391   6.173   6.577   4.720  1.1257 -1.4178  0.4260
10326TIP3   OH252392   1.282   5.427   0.455 -0.1416 -0.1680 -0.0203
10326TIP3    H152393   1.280   5.383   0.371  0.2355 -0.0945 -0.0709
10326TIP3    H252394   1.254   5.361   0.518  1.4131 -0.8045  0.0440
10327TIP3   OH252395   5.468   2.719  12.238 -0.0474 -0.2121 -0.5891
10327TIP3    H152396   5.499   2.643  12.288  0.0902  1.5459  2.1741
10327TIP3    H252397   5.432   2.681  12.158 -0.4470 -3.2491  0.8861
10328TIP3   OH252398   6.578   5.896  13.754 -0.2965  0.8749 -0.0039
10328TIP3    H152399   6.502   5.926  13.704 -1.2391 -1.0479  0.1871
10328TIP3    H252400   6.636   5.972  13.756 -1.6611  2.0270 -1.2031
10329TIP3   OH252401   0.246   3.845  16.832 -0.2369  0.7595 -0.0542
10329TIP3    H152402   0.318   3.844  16.894  0.4630  0.5644 -0.8538
10329TIP3    H252403   0.188   3.775  16.862  0.9709 -0.5235 -0.6160
10330TIP3   OH252404   1.985   6.740   0.439 -0.2589 -0.0619 -0.5217
10330TIP3    H152405   2.061   6.682   0.436 -0.2814 -0.3614  2.2255
10330TIP3    H252406   2.006   6.805   0.506 -1.3434  1.5370 -1.6370
10331TIP3   OH252407   2.387   3.496   3.272 -0.2915  0.3283  0.5442
10331TIP3    H152408   2.480   3.520   3.281 -0.4700  1.0790  0.4800
10331TIP3    H252409   2.340   3.563   3.322 -0.8180  0.1369  0.3137
10332TIP3   OH252410   0.606   3.292   0.657  0.4625  0.6181 -0.3405
10332TIP3    H152411   0.566   3.221   0.605  3.0594 -0.5602 -0.9315
10332TIP3    H252412   0.632   3.249   0.738  2.7368  0.6213 -1.0056
10333TIP3   OH252413   6.108   0.667   2.130  0.3489  0.6703  0.9525
10333TIP3    H152414   6.081   0.692   2.218 -0.2650  2.6147  0.2659
10333TIP3    H252415   6.041   0.704   2.072  1.5801  0.8715 -0.4285
10334TIP3   OH252416   6.295   1.189  13.154 -0.7953 -0.2865 -0.4100
10334TIP3    H152417   6.326   1.193  13.244  2.0979  0.5444 -1.3144
10334TIP3    H252418   6.325   1.104  13.121  0.5747  0.4941 -1.2874
10335TIP3   OH252419   1.438   5.660   2.662  0.0833  0.5111  0.0375
10335TIP3    H152420   1.379   5.587   2.682  0.6112  0.5519  1.9518
10335TIP3    H252421   1.480   5.636   2.580 -0.0362 -1.1638  0.4384
10336TIP3   OH252422   6.038   0.354  12.662 -0.2493 -0.1213 -0.7293
10336TIP3    H152423   6.019   0.336  12.754  0.0582  0.1206 -0.6145
10336TIP3    H252424   6.128   0.387  12.662  0.2598 -1.4605 -1.2902
10337TIP3   OH252425   3.449   3.384   4.052  0.0292 -0.2428  0.1196
10337TIP3    H152426   3.448   3.387   4.148 -1.5330  2.1706  0.0948
10337TIP3    H252427   3.444   3.290   4.031 -0.7795 -0.7662  2.3936
10338TIP3   OH252428   1.975   3.475  12.604  0.4711 -0.0935 -0.9124
10338TIP3    H152429   2.042   3.486  12.536  1.1676 -2.1921 -0.6557
10338TIP3    H252430   1.991   3.387  12.639 -0.6775  0.4375  1.1061
10339TIP3   OH252431   3.125   4.087  11.765 -0.0701  0.0047 -1.0190
10339TIP3    H152432   3.118   4.109  11.672 -0.6039 -0.0740 -0.9970
10339TIP3    H252433   3.207   4.129  11.793  1.3409 -1.8909 -2.0659
10340TIP3   OH252434   3.506   1.396   5.611 -0.6289 -0.4557  0.1289
10340TIP3    H152435   3.463   1.403   5.696 -3.2246 -0.0173 -1.1187
10340TIP3    H252436   3.457   1.457   5.555  0.6663 -1.1262 -1.8150
10341TIP3   OH252437   0.377   5.201   6.097 -0.1060 -1.0404 -0.4282
10341TIP3    H152438   0.429   5.268   6.053 -0.3798  0.9912  2.1236
10341TIP3    H252439   0.309   5.249   6.143 -1.9776 -3.3391 -0.5807
10342TIP3   OH252440   1.133   5.701  12.888  0.4641 -0.3473  0.9126
10342TIP3    H152441   1.178   5.619  12.907 -0.8950 -0.8803  1.9797
10342TIP3    H252442   1.050   5.695  12.935  0.2218  1.5427  0.8155
10343TIP3   OH252443   6.148   3.280   0.228  0.5616 -0.1342 -0.0210
10343TIP3    H152444   6.215   3.321   0.283 -1.0285  0.9316  1.2042
10343TIP3    H252445   6.082   3.250   0.290 -1.0209  0.5860 -1.2928
10344TIP3   OH252446   5.585   4.676   0.869  1.4939  0.3274 -0.0803
10344TIP3    H152447   5.606   4.679   0.963 -2.3404  2.1436  0.9226
10344TIP3    H252448   5.597   4.766   0.840  1.2394  0.0698 -0.9908
10345TIP3   OH252449   2.493   0.013  16.240 -0.1267  0.3931  0.2658
10345TIP3    H152450   2.564  -0.051  16.241 -0.6130 -0.1603  0.2241
10345TIP3    H252451   2.529   0.088  16.193 -0.0196 -0.4192 -1.0111
10346TIP3   OH252452   4.822   3.051  11.709  0.2102  0.1083 -0.7093
10346TIP3    H152453   4.769   2.987  11.661 -1.8700  1.4567 -0.3307
10346TIP3    H252454   4.758   3.111  11.747  2.0513  2.7527 -1.5116
10347TIP3   OH252455   0.444   5.804   4.355  0.4650 -0.2482 -0.1918
10347TIP3    H152456   0.432   5.742   4.427 -0.8300  0.5232  0.2940
10347TIP3    H252457   0.537   5.825   4.357  0.7105 -1.3252  0.3389
10348TIP3   OH252458   1.345   4.745   1.942 -0.8077 -0.1003  0.1202
10348TIP3    H152459   1.346   4.764   2.036  1.6095 -0.5605  0.2345
10348TIP3    H252460   1.313   4.826   1.902  0.5106  1.0039  1.1963
10349TIP3   OH252461   4.797   0.665   2.390  0.5941  0.3429  0.3339
10349TIP3    H152462   4.871   0.691   2.334  0.2867 -0.3288 -0.4078
10349TIP3    H252463   4.719   0.693   2.342  0.0274 -4.4284 -2.1193
10350TIP3   OH252464   3.504   3.296  14.140 -0.1777 -0.0086 -0.1513
10350TIP3    H152465   3.461   3.260  14.217  0.4864 -0.8146 -0.1451
10350TIP3    H252466   3.525   3.220  14.086 -0.7334  0.5497 -1.1900
10351TIP3   OH252467   5.141   4.561  11.430  0.6146  0.1778  0.0816
10351TIP3    H152468   5.195   4.627  11.475 -0.4768  1.1423  0.0287
10351TIP3    H252469   5.194   4.481  11.433  2.2146  1.1605 -0.3027
10352TIP3   OH252470   1.138   6.653   0.198 -0.1223 -0.0187 -0.1304
10352TIP3    H152471   1.098   6.735   0.225  0.9732  0.5420 -0.1600
10352TIP3    H252472   1.142   6.600   0.278  1.8038  1.0881  0.5917
10353TIP3   OH252473   1.930   3.607  13.329 -0.0045  0.2610 -0.2083
10353TIP3    H152474   1.885   3.691  13.324 -1.2194 -0.4304 -3.3115
10353TIP3    H252475   2.019   3.628  13.357  0.2450  2.8814 -2.5772
10354TIP3   OH252476   4.820   0.805  10.880 -0.3142 -0.3711 -0.1050
10354TIP3    H152477   4.792   0.887  10.839 -1.2768 -0.8586 -0.4454
10354TIP3    H252478   4.828   0.826  10.973  0.1239  0.2776 -0.2756
10355TIP3   OH252479   3.324   3.548   3.558  0.4146  0.4808  0.8389
10355TIP3    H152480   3.369   3.633   3.552 -0.0589  0.7010  0.3129
10355TIP3    H252481   3.390   3.485   3.532  0.7507  0.6920  1.1625
10356TIP3   OH252482   0.341   3.761  14.782  0.2518  0.5292 -0.4888
10356TIP3    H152483   0.316   3.850  14.808  0.7771  0.5357  0.0094
10356TIP3    H252484   0.290   3.745  14.702  0.6166  1.5107 -0.9370
10357TIP3   OH252485   2.514   0.688   0.907 -0.5129  0.1566 -0.3877
10357TIP3    H152486   2.431   0.649   0.935 -2.1321  3.4808 -0.0584
10357TIP3    H252487   2.557   0.713   0.989  0.2785 -0.4595 -0.6052
10358TIP3   OH252488   6.129   3.660   3.803 -0.4479  0.3209  0.0031
10358TIP3    H152489   6.183   3.592   3.843 -1.9108 -1.0437 -0.1949
10358TIP3    H252490   6.082   3.699   3.876  0.4622  1.2080  0.1272
10359TIP3   OH252491   1.407   6.688  13.550  0.1489 -0.2433  0.1463
10359TIP3    H152492   1.411   6.597  13.519  0.5822  0.5980 -2.5377
10359TIP3    H252493   1.498   6.710  13.569  0.1058 -0.2260  0.3315
10360TIP3   OH252494   5.058   6.654  17.101  0.2814  0.0980 -0.0767
10360TIP3    H152495   5.033   6.563  17.085  0.0912  0.0423  0.5384
10360TIP3    H252496   5.001   6.683  17.172 -0.1347  0.9161 -0.7269
10361TIP3   OH252497   5.043   5.952  14.762 -0.2424 -0.2784 -0.1125
10361TIP3    H152498   5.106   6.002  14.813 -0.4417 -0.4519  0.3136
10361TIP3    H252499   5.052   5.984  14.672 -0.3466  0.4904  0.1502
10362TIP3   OH252500   0.212   0.645   2.914 -0.0231  0.4308 -0.8991
10362TIP3    H152501   0.274   0.613   2.848  0.1433 -1.8346  0.2780
10362TIP3    H252502   0.136   0.673   2.863  0.9640  0.8693 -2.1940
10363TIP3   OH252503   5.117   6.377   2.842 -0.5298  0.0146  0.3562
10363TIP3    H152504   5.039   6.398   2.790  1.4880  1.2894 -2.3697
10363TIP3    H252505   5.171   6.324   2.784  0.7563 -0.6726  2.1030
10364TIP3   OH252506   1.882   1.007   2.087 -0.2269 -0.6120  0.7782
10364TIP3    H152507   1.877   1.033   2.179  1.7050 -0.7257  0.9679
10364TIP3    H252508   1.791   0.998   2.059 -0.9271  1.7280  2.0130
10365TIP3   OH252509   0.453   0.583  14.197  0.5719 -0.1873  0.3967
10365TIP3    H152510   0.438   0.649  14.264  2.4341  1.0509 -0.3431
10365TIP3    H252511   0.434   0.627  14.114 -0.1503 -1.2226 -0.0251
10366TIP3   OH252512   2.498   5.002   0.444  0.6716 -0.1449 -0.1935
10366TIP3    H152513   2.426   5.045   0.397  0.3473  0.1580  0.5754
10366TIP3    H252514   2.459   4.923   0.482  0.5691  0.3759  0.8041
10367TIP3   OH252515   4.405   4.491   4.612  0.6307  0.3941 -0.1509
10367TIP3    H152516   4.471   4.559   4.627  0.6035  0.2105  0.8653
10367TIP3    H252517   4.350   4.493   4.691 -1.6823  1.7322 -1.6559
10368TIP3   OH252518   3.459   6.083   0.552 -0.0592  0.5635 -0.0339
10368TIP3    H152519   3.518   6.089   0.477 -0.0060 -1.4345 -0.2004
10368TIP3    H252520   3.386   6.030   0.521 -0.9890  1.3664  0.7558
10369TIP3   OH252521   6.346   1.376   4.913  0.7380 -1.0170 -0.3533
10369TIP3    H152522   6.259   1.414   4.900  1.5674  0.7264 -1.1961
10369TIP3    H252523   6.367   1.332   4.831  1.4889  0.4372 -0.9797
10370TIP3   OH252524   6.567   5.219  15.967  0.0486  0.1267  0.3763
10370TIP3    H152525   6.639   5.201  15.906 -1.0372  0.2747 -1.0144
10370TIP3    H252526   6.508   5.145  15.957  0.1426 -0.1604  1.7568
10371TIP3   OH252527   1.457   0.849  12.870  0.0644  0.2441  0.5485
10371TIP3    H152528   1.504   0.769  12.846  0.8291  0.8674 -0.0712
10371TIP3    H252529   1.426   0.886  12.787 -0.1409  0.6760  0.8117
10372TIP3   OH252530   0.386   5.698   3.544 -0.2641 -0.1423  0.3930
10372TIP3    H152531   0.469   5.652   3.530  0.6187  1.4693  0.0162
10372TIP3    H252532   0.333   5.675   3.468  1.2624  1.6593 -1.3453
10373TIP3   OH252533   5.592   2.646  13.128  0.1157  0.2538 -0.2289
10373TIP3    H152534   5.587   2.565  13.078  1.4956  0.5978 -0.9506
10373TIP3    H252535   5.681   2.648  13.163  0.5534  2.0753 -1.3281
10374TIP3   OH252536   1.957   6.042   0.107 -0.4921 -0.7724  0.3312
10374TIP3    H152537   1.897   5.968   0.101 -1.2054 -0.4422  2.5262
10374TIP3    H252538   1.910   6.115   0.066 -0.3385 -1.1819 -0.6090
10375TIP3   OH252539   3.666   1.949  11.395 -0.1743 -0.4269 -0.2650
10375TIP3    H152540   3.577   1.929  11.367 -0.3106  0.4118 -0.4625
10375TIP3    H252541   3.681   2.038  11.364  1.2044 -1.0046 -1.3824
10376TIP3   OH252542   5.188   1.500  12.971  0.0128 -0.1389  0.6730
10376TIP3    H152543   5.183   1.595  12.955 -0.7399 -0.1491  0.8210
10376TIP3    H252544   5.130   1.485  13.045  0.7481 -0.6122  1.1692
10377TIP3   OH252545   3.435   6.359  16.175  0.0125 -0.4223 -0.5209
10377TIP3    H152546   3.464   6.444  16.208 -1.8647  0.2331 -0.4099
10377TIP3    H252547   3.344   6.351  16.206 -0.0614 -2.1830 -1.0721
10378TIP3   OH252548   6.554   1.180   0.296  0.6585 -0.6032 -0.1490
10378TIP3    H152549   6.513   1.132   0.224  0.0960 -2.0010  1.0450
10378TIP3    H252550   6.512   1.265   0.296 -2.0757 -1.8538  0.8132
10379TIP3   OH252551   0.067   3.800  12.265 -0.1998  0.2841 -0.3209
10379TIP3    H152552   0.049   3.715  12.305  0.2657  0.5995  0.5859
10379TIP3    H252553   0.146   3.786  12.213 -0.0359  0.1876 -0.0504
10380TIP3   OH252554   4.429   3.410   5.278  0.6976 -0.1659 -0.4782
10380TIP3    H152555   4.505   3.414   5.220 -1.0234 -0.4864 -2.9782
10380TIP3    H252556   4.410   3.316   5.285 -0.7204 -0.0402 -1.8361
10381TIP3   OH252557   1.519   2.476   5.646 -0.3764  0.0136 -0.1540
10381TIP3    H152558   1.572   2.397   5.656  1.2159  1.0961  0.4840
10381TIP3    H252559   1.525   2.498   5.553 -1.3881 -0.9678 -0.4630
10382TIP3   OH252560   6.289   3.382   1.091 -0.1512 -0.2125 -0.3763
10382TIP3    H152561   6.201   3.362   1.061  0.0669 -0.7725 -0.6689
10382TIP3    H252562   6.284   3.471   1.124  0.1941  1.6249 -4.6881
10383TIP3   OH252563   3.733   3.845  15.072  0.4339  0.3046  0.1118
10383TIP3    H152564   3.672   3.901  15.024  0.9670  0.1355 -0.7965
10383TIP3    H252565   3.746   3.889  15.156 -0.2687  0.7801 -0.0201
10384TIP3   OH252566   3.582   1.139  13.037  0.2929 -0.3268  0.5034
10384TIP3    H152567   3.612   1.112  13.123 -0.7915  0.1264  1.0463
10384TIP3    H252568   3.631   1.085  12.976  1.7688  0.0018  1.3585
10385TIP3   OH252569   5.482   3.055  15.374 -0.9698 -0.2246  0.1959
10385TIP3    H152570   5.415   3.060  15.442 -2.0558  0.3414 -0.8757
10385TIP3    H252571   5.443   3.098  15.298  0.9001  0.8026 -0.2535
10386TIP3   OH252572   2.109   6.160  12.317  0.0834 -0.8863  0.1766
10386TIP3    H152573   2.111   6.240  12.369  1.1459 -0.8188  0.0505
10386TIP3    H252574   2.031   6.114  12.348 -1.2278  0.7188 -0.5638
10387TIP3   OH252575   1.616   1.251   4.962  1.0022 -0.0771  0.2890
10387TIP3    H152576   1.679   1.190   4.924  0.4690 -0.2903 -0.2586
10387TIP3    H252577   1.626   1.240   5.056 -0.3311 -2.3149  0.2216
10388TIP3   OH252578   0.810   1.597   1.783 -0.3406 -0.0292  0.0041
10388TIP3    H152579   0.848   1.542   1.715 -0.8106 -0.2280 -0.1008
10388TIP3    H252580   0.755   1.660   1.734 -0.8621 -0.3190  0.2106
10389TIP3   OH252581   4.995   3.169  15.299  0.4605  0.5049  0.2622
10389TIP3    H152582   4.954   3.083  15.305  0.5693  0.3506 -1.0830
10389TIP3    H252583   5.016   3.192  15.390  1.9618 -1.6446  0.5364
10390TIP3   OH252584   4.304   3.801  12.339  0.2913  0.3053  0.8184
10390TIP3    H152585   4.223   3.827  12.383  0.2803  0.2976  0.8028
10390TIP3    H252586   4.334   3.724  12.387 -0.0283 -0.0501  0.4531
10391TIP3   OH252587   4.627   4.692  17.019  0.2006  0.0147 -0.1144
10391TIP3    H152588   4.571   4.768  17.031 -1.0654 -1.2178  2.9625
10391TIP3    H252589   4.567   4.619  17.004  1.2391 -0.7572 -0.7129
10392TIP3   OH252590   3.072   2.085   3.414 -0.0117 -0.1580 -0.1121
10392TIP3    H152591   3.136   2.047   3.353 -0.1287 -0.8970  0.2170
10392TIP3    H252592   3.045   2.167   3.373  1.5685  0.4536  0.0008
10393TIP3   OH252593   1.025   2.702  15.921  0.0618  0.0214  0.2213
10393TIP3    H152594   1.063   2.779  15.964 -1.1894  1.1219 -0.5634
10393TIP3    H252595   1.023   2.725  15.828 -0.8363 -0.7371  0.0413
10394TIP3   OH252596   1.009   6.351  17.104 -0.4181  0.6625 -0.1531
10394TIP3    H152597   0.921   6.370  17.137 -0.3210  1.3208 -0.2664
10394TIP3    H252598   0.994   6.311  17.019 -0.6583 -0.7329  0.5191
10395TIP3   OH252599   2.740   4.345  15.831  0.5391  0.3772  0.2321
10395TIP3    H152600   2.669   4.353  15.895  0.3252  1.7550 -0.1441
10395TIP3    H252601   2.712   4.399  15.757  2.2749  1.5361  0.3630
10396TIP3   OH252602   6.143   5.885   3.511 -0.1549  0.4636  0.5031
10396TIP3    H152603   6.129   5.947   3.439  1.9399  0.5163  0.0950
10396TIP3    H252604   6.083   5.812   3.492  0.0367  0.6876 -1.0504
10397TIP3   OH252605   4.949   3.453  14.009 -0.4591  0.3729  0.0073
10397TIP3    H152606   4.914   3.385  14.066  0.4506  2.0689  2.7694
10397TIP3    H252607   4.880   3.520  14.006  1.1709  2.4193  3.1416
10398TIP3   OH252608   2.692   4.671   0.755  0.0748 -0.1413 -0.1799
10398TIP3    H152609   2.713   4.704   0.668 -1.9758  1.2740 -0.2043
10398TIP3    H252610   2.598   4.656   0.753  0.1826 -1.3227  1.4245
10399TIP3   OH252611   0.428   1.168  15.449  0.1901  0.3478 -0.0875
10399TIP3    H152612   0.481   1.106  15.500 -0.5717 -0.2482 -0.0026
10399TIP3    H252613   0.392   1.116  15.378 -1.1781  0.4733  0.4855
10400TIP3   OH252614   2.847   3.350  14.739 -0.2038 -0.0576  0.1720
10400TIP3    H152615   2.922   3.360  14.680 -2.7278 -0.5329 -3.3956
10400TIP3    H252616   2.807   3.267  14.714 -3.1407  1.1741  0.3420
10401TIP3   OH252617   0.509   2.916   5.590  0.7452  0.2064 -0.0001
10401TIP3    H152618   0.561   2.835   5.596 -0.6831 -0.8502 -1.0217
10401TIP3    H252619   0.426   2.887   5.552 -0.8317  1.7211  2.0991
10402TIP3   OH252620   6.049   3.432   4.072 -0.4488 -0.6758  0.6865
10402TIP3    H152621   6.044   3.510   4.018  0.3164 -1.1931 -0.1642
10402TIP3    H252622   6.121   3.449   4.133 -1.4913  0.0223  1.7838
10403TIP3   OH252623   2.311   1.011   1.773 -0.0091 -0.2855  0.0035
10403TIP3    H152624   2.356   1.032   1.855  0.4000  1.3006 -0.5860
10403TIP3    H252625   2.374   1.036   1.705 -0.3932 -1.4562 -0.7978
10404TIP3   OH252626   1.858   6.526  15.773  0.1441  0.1219  0.4700
10404TIP3    H152627   1.844   6.498  15.864  2.5013 -1.0774  0.5468
10404TIP3    H252628   1.953   6.524  15.762  0.1312  2.9841 -1.2197
10405TIP3   OH252629   1.354   5.507   1.664 -0.0750  0.1782  0.2063
10405TIP3    H152630   1.338   5.598   1.689 -0.1771  0.6239 -1.3724
10405TIP3    H252631   1.439   5.487   1.702 -0.7052  0.4316  1.8256
10406TIP3   OH252632   2.130   1.665  17.141 -0.2634  0.5258 -0.0385
10406TIP3    H152633   2.139   1.685  17.048 -1.2533 -0.2146 -0.3005
10406TIP3    H252634   2.127   1.569  17.145 -2.8794  0.5770  0.4783
10407TIP3   OH252635   0.210   4.431   5.047  0.1871  0.0624 -0.1721
10407TIP3    H152636   0.149   4.388   4.986 -0.3759 -0.3199  0.6525
10407TIP3    H252637   0.292   4.438   4.997  0.1273 -1.4621 -0.5342
10408TIP3   OH252638   0.547   1.413  15.380 -0.7859  0.2989 -0.2999
10408TIP3    H152639   0.533   1.321  15.401 -0.1565  0.3694  0.4862
10408TIP3    H252640   0.460   1.448  15.364 -0.9928 -0.5250 -1.0184
10409TIP3   OH252641   0.792   5.175   3.312  0.7750  0.0289 -0.3571
10409TIP3    H152642   0.761   5.185   3.222 -1.5553  1.0247  0.4540
10409TIP3    H252643   0.865   5.236   3.319  0.3851  0.6369 -1.3272
10410TIP3   OH252644   3.032   0.856  14.677 -0.5657 -0.0161  0.8371
10410TIP3    H152645   3.027   0.796  14.602  0.6821  1.7796 -0.7705
10410TIP3    H252646   2.979   0.931  14.650  0.1105  0.7658  1.6531
10411TIP3   OH252647   5.860   2.372   4.536  0.0486 -0.8584  0.7186
10411TIP3    H152648   5.858   2.416   4.620 -0.7917 -1.1849  0.8837
10411TIP3    H252649   5.928   2.417   4.486  0.2620 -0.3937  1.4188
10412TIP3   OH252650   0.036   6.486   4.772 -0.1543 -0.7300  0.1875
10412TIP3    H152651   0.051   6.407   4.720 -0.9227 -0.0519 -1.1114
10412TIP3    H252652  -0.058   6.503   4.763 -0.2471 -0.4044  1.5560
10413TIP3   OH252653   6.146   2.039  13.612 -0.4965  0.5129  0.1659
10413TIP3    H152654   6.222   2.042  13.670 -0.5293 -0.5989  0.2756
10413TIP3    H252655   6.138   2.129  13.578 -0.5422  1.2144  1.9540
10414TIP3   OH252656   2.682   6.366  14.834  0.6876 -0.1396 -0.0865
10414TIP3    H152657   2.670   6.275  14.808  1.7005 -0.4788  0.5577
10414TIP3    H252658   2.703   6.361  14.927 -0.3176  0.8457  0.2215
10415TIP3   OH252659   4.141   3.458  12.244  0.2730 -0.4430 -0.3236
10415TIP3    H152660   4.080   3.507  12.188 -0.2041 -0.9053 -0.2129
10415TIP3    H252661   4.111   3.368  12.238  0.3375 -0.5243  0.5343
10416TIP3   OH252662   0.111   1.768  13.475  0.2697 -0.0309 -0.5844
10416TIP3    H152663   0.096   1.824  13.399  1.2515 -2.2130 -2.5233
10416TIP3    H252664   0.204   1.745  13.469  0.3061 -0.4872  1.1535
10417TIP3   OH252665   4.995   1.752  13.773  0.1875  0.2569 -0.0823
10417TIP3    H152666   5.040   1.684  13.723  0.5729  0.8615 -0.5774
10417TIP3    H252667   5.029   1.834  13.737  2.1300  0.7582  2.5924
10418TIP3   OH252668   5.087   0.934  12.678 -0.4800 -0.3291 -0.1078
10418TIP3    H152669   4.993   0.954  12.670 -0.1736  0.5857 -1.9250
10418TIP3    H252670   5.117   0.926  12.588  1.7547  2.1122  0.3130
10419TIP3   OH252671   3.602   5.648  16.096 -1.1908  0.2314 -0.7284
10419TIP3    H152672   3.621   5.588  16.168  0.0489 -1.4105 -2.3233
10419TIP3    H252673   3.508   5.667  16.104 -1.4540 -1.3297  0.2871
10420TIP3   OH252674   3.799   0.407  12.114  0.4206  0.4182 -0.6923
10420TIP3    H152675   3.703   0.401  12.114  0.4384 -0.1844  0.6694
10420TIP3    H252676   3.824   0.383  12.025 -0.6532 -0.0867 -0.8765
10421TIP3   OH252677   1.764   0.429   4.558 -0.0853 -0.1404 -0.1812
10421TIP3    H152678   1.848   0.415   4.602  0.2438  1.0882 -0.3850
10421TIP3    H252679   1.699   0.397   4.620  0.5407 -1.7927 -0.3106
10422TIP3   OH252680   0.504   3.544  14.808  0.4007  0.7284  0.9432
10422TIP3    H152681   0.451   3.621  14.792 -1.8486 -0.2531  3.1013
10422TIP3    H252682   0.584   3.559  14.757 -1.9624  2.1374 -2.7684
10423TIP3   OH252683   0.962   2.960  10.471  0.2730 -0.4446  0.4827
10423TIP3    H152684   0.906   2.931  10.400  0.4988  0.8600 -0.2617
10423TIP3    H252685   1.011   3.034  10.434  0.7614 -0.0663  1.8318
10424TIP3   OH252686   3.459   1.044   0.680  0.0766 -0.3151  0.3852
10424TIP3    H152687   3.393   1.095   0.727  0.4274  1.5120 -0.9988
10424TIP3    H252688   3.516   1.109   0.640  1.5945 -1.8429 -0.0435
10425TIP3   OH252689   1.517   1.927   4.459  0.2936 -0.1725  0.4708
10425TIP3    H152690   1.512   1.942   4.553 -0.2184 -3.1061  1.0060
10425TIP3    H252691   1.446   1.980   4.422  0.4267  0.9238  1.7307
10426TIP3   OH252692   2.955   6.544   4.476  0.4087 -0.3342  0.4224
10426TIP3    H152693   3.037   6.568   4.432 -0.9069  2.0932 -0.9241
10426TIP3    H252694   2.904   6.625   4.476 -1.5627 -1.4849  2.2591
10427TIP3   OH252695   2.542   0.547  16.687 -0.7084 -0.0829 -0.9252
10427TIP3    H152696   2.510   0.633  16.713  2.9003  1.1909 -0.0358
10427TIP3    H252697   2.581   0.560  16.601  0.3648 -0.6339 -0.5514
10428TIP3   OH252698   6.639   2.426   0.465  0.1169 -0.1178  0.1100
10428TIP3    H152699   6.624   2.363   0.535  1.2738 -2.4362 -1.5808
10428TIP3    H252700   6.561   2.421   0.409  0.6542 -0.8693 -0.5899
10429TIP3   OH252701   1.496   6.155   6.197  0.1303 -0.0405  0.8205
10429TIP3    H152702   1.571   6.169   6.255  0.0653  1.9980  0.4836
10429TIP3    H252703   1.517   6.073   6.151  1.0907 -0.6769  2.2789
10430TIP3   OH252704   4.126   1.585   4.664  0.1610  0.1082  0.5907
10430TIP3    H152705   4.140   1.657   4.602 -0.9058  0.8419  1.1756
10430TIP3    H252706   4.055   1.616   4.720 -1.5228 -2.0999 -0.2118
10431TIP3   OH252707   5.810   5.276  14.047 -0.2854 -0.2297 -0.3416
10431TIP3    H152708   5.809   5.289  14.142 -0.8062 -1.4921 -0.1471
10431TIP3    H252709   5.757   5.347  14.012  0.4418  0.6202  0.2528
10432TIP3   OH252710   0.866   6.680   5.409  0.1576  0.0376  0.3275
10432TIP3    H152711   0.829   6.767   5.427  0.3231  0.2275 -0.2135
10432TIP3    H252712   0.890   6.645   5.495 -1.9173 -0.3860  0.7816
10433TIP3   OH252713   6.710   6.279   0.209  0.1061 -0.1013 -0.0327
10433TIP3    H152714   6.699   6.245   0.297 -0.3164 -1.1002 -0.4548
10433TIP3    H252715   6.620   6.294   0.177  0.2742  1.3231  0.0952
10434TIP3   OH252716   1.304   2.722   2.893 -0.3990 -0.0959 -0.8633
10434TIP3    H152717   1.217   2.681   2.890 -0.0704 -1.0344  0.9143
10434TIP3    H252718   1.365   2.652   2.874  0.0571  0.0919 -0.1442
10435TIP3   OH252719   5.202   4.406   3.691 -0.4035  0.7860 -0.2088
10435TIP3    H152720   5.125   4.429   3.743  0.3320  0.3373  1.1218
10435TIP3    H252721   5.167   4.356   3.617 -1.2362 -1.7028  1.7298
10436TIP3   OH252722   4.372   4.585  13.118  0.3580 -0.9606  0.9359
10436TIP3    H152723   4.375   4.656  13.181  2.0610 -0.5951  0.4986
10436TIP3    H252724   4.394   4.506  13.168  0.5224 -0.8587  1.0221
10437TIP3   OH252725   4.333   3.266  14.515  0.6876  0.1973 -0.3146
10437TIP3    H152726   4.289   3.184  14.538 -0.0502  0.3451 -1.1718
10437TIP3    H252727   4.379   3.292  14.595 -0.9235  0.1286  0.6693
10438TIP3   OH252728   0.284   2.351  12.819  0.1632  0.5502  0.3732
10438TIP3    H152729   0.314   2.383  12.904  1.1430  0.2427  0.1491
10438TIP3    H252730   0.351   2.379  12.757 -1.7126  2.9728 -0.7456
10439TIP3   OH252731   6.097   5.675   2.130  0.1520  0.6083 -0.1317
10439TIP3    H152732   6.093   5.716   2.217  2.4182  0.6100  0.0209
10439TIP3    H252733   6.049   5.592   2.141  0.9519  0.3073  1.3110
10440TIP3   OH252734   2.876   3.517   2.520 -0.2713  0.0966 -0.3845
10440TIP3    H152735   2.833   3.482   2.442  1.0577 -2.1809 -0.1809
10440TIP3    H252736   2.917   3.598   2.490 -2.7291  1.1652 -1.1112
10441TIP3   OH252737   4.869   2.180   2.473 -0.2075  0.2604  0.2126
10441TIP3    H152738   4.915   2.099   2.451  0.2333  0.0838  1.6575
10441TIP3    H252739   4.859   2.226   2.389  0.8838 -0.5868 -0.4101
10442TIP3   OH252740   0.797   2.300   0.053 -0.3172  0.1912  0.1542
10442TIP3    H152741   0.882   2.343   0.061  0.2763 -0.9376  0.0386
10442TIP3    H252742   0.817   2.209   0.032 -1.4885 -0.5374  1.8778
10443TIP3   OH252743   3.174   2.872  12.112 -0.0471 -0.1188  0.1860
10443TIP3    H152744   3.178   2.909  12.024  0.7119 -0.8140 -0.0873
10443TIP3    H252745   3.111   2.927  12.159 -0.0703  0.5726 -0.6401
10444TIP3   OH252746   0.062   3.693  16.978  0.6865 -0.3630  0.7801
10444TIP3    H152747  -0.004   3.629  17.005 -0.9228  0.6585 -0.5933
10444TIP3    H252748   0.059   3.691  16.882  0.0295  2.2997  0.6829
10445TIP3   OH252749   6.333   2.011  13.793  0.0399  0.1570  0.5737
10445TIP3    H152750   6.343   2.081  13.858  0.0041  0.8148 -0.1215
10445TIP3    H252751   6.422   1.978  13.780  0.1085  0.3136  0.6416
10446TIP3   OH252752   1.936   5.595  16.021  0.7311 -0.6005 -0.0602
10446TIP3    H152753   1.995   5.626  15.953 -0.3716  0.3944 -0.6052
10446TIP3    H252754   1.889   5.522  15.981  1.8190 -1.6291  0.4953
10447TIP3   OH252755   1.974   2.062   1.378  0.0400  0.0612  0.0277
10447TIP3    H152756   1.955   2.069   1.284 -1.1516 -1.8399  0.0905
10447TIP3    H252757   2.058   2.015   1.382  0.8092  1.3559 -0.0655
10448TIP3   OH252758   6.690   4.878   0.388  0.1885  0.0666 -0.3592
10448TIP3    H152759   6.660   4.788   0.388  0.6907 -0.1023 -1.2119
10448TIP3    H252760   6.612   4.929   0.412  0.3245 -0.7052  1.9742
10449TIP3   OH252761   4.748   6.244  15.856  0.5626  0.2401 -0.2662
10449TIP3    H152762   4.724   6.317  15.914  0.7979  0.3878 -0.3512
10449TIP3    H252763   4.710   6.268  15.771 -0.3285 -0.2820 -0.0244
10450TIP3   OH252764   3.628   4.719  14.845  0.5060 -0.5724 -0.1045
10450TIP3    H152765   3.634   4.623  14.841  1.5104 -0.5979  1.3453
10450TIP3    H252766   3.539   4.737  14.874  0.8632 -1.1630  1.4471
10451TIP3   OH252767   1.966   5.101   1.952  0.7933 -0.4177  0.1942
10451TIP3    H152768   2.044   5.113   2.008  0.2572 -1.3317  1.1756
10451TIP3    H252769   1.951   5.007   1.953  0.4613 -0.3959 -1.1186
10452TIP3   OH252770   2.629   4.294   5.273  0.2131  1.0005 -0.3642
10452TIP3    H152771   2.662   4.382   5.256  0.3762  0.9889 -0.1218
10452TIP3    H252772   2.596   4.263   5.189  0.0836  1.3231 -0.4311
10453TIP3   OH252773   4.546   5.115  11.941  0.3984 -0.3309 -0.5980
10453TIP3    H152774   4.551   5.103  11.846  2.5247 -0.7429 -0.4762
10453TIP3    H252775   4.580   5.203  11.956  2.0513 -1.0284 -0.0905
10454TIP3   OH252776   0.108   5.240  13.384  0.2132 -0.1178  0.2807
10454TIP3    H152777   0.074   5.151  13.380  0.7718 -0.4577  2.1417
10454TIP3    H252778   0.039   5.290  13.428  0.3752  0.1269  0.2556
10455TIP3   OH252779   2.299   4.686   1.623 -0.3181  0.1881 -0.1822
10455TIP3    H152780   2.252   4.766   1.597 -0.1768 -0.1006 -1.3547
10455TIP3    H252781   2.391   4.713   1.627 -0.1492 -0.1166 -1.5069
10456TIP3   OH252782   3.257   6.106  14.344 -0.4845  0.4061  0.2830
10456TIP3    H152783   3.330   6.077  14.399 -1.1916  1.7579  2.0405
10456TIP3    H252784   3.298   6.135  14.263  0.5219 -2.4856 -0.3659
10457TIP3   OH252785   3.417   0.624  10.955 -0.2603 -0.6396 -0.4683
10457TIP3    H152786   3.412   0.712  10.991  2.0441  0.5660 -2.8223
10457TIP3    H252787   3.406   0.636  10.861  2.3302 -2.5220 -1.1113
10458TIP3   OH252788   3.973   4.268  11.758 -0.0724  0.7554 -1.1330
10458TIP3    H152789   3.996   4.223  11.677 -1.6373  0.4419 -1.4301
10458TIP3    H252790   3.925   4.346  11.730 -0.6816  0.6166 -0.5254
10459TIP3   OH252791   3.564   4.299   4.892 -0.7291 -0.0305  0.2680
10459TIP3    H152792   3.625   4.369   4.917 -0.7840 -0.6991  2.5069
10459TIP3    H252793   3.596   4.222   4.939 -1.8356 -1.0321 -0.5712
10460TIP3   OH252794   5.577   6.446  11.220  0.1002 -0.0194  0.0573
10460TIP3    H152795   5.483   6.429  11.214  0.2623 -0.7185 -0.5821
10460TIP3    H252796   5.592   6.463  11.313 -0.2960 -2.2462  0.5823
10461TIP3   OH252797   3.656   1.400   2.348  0.4739  0.0374 -1.0286
10461TIP3    H152798   3.647   1.458   2.424  1.0849  0.3310 -1.1675
10461TIP3    H252799   3.675   1.459   2.275  0.7699 -0.3081 -1.2379
10462TIP3   OH252800   0.720   0.849  14.446  0.5057  0.5943  0.3793
10462TIP3    H152801   0.801   0.900  14.438  1.9931 -1.5862  0.7012
10462TIP3    H252802   0.744   0.773  14.499 -1.6751 -0.3349  0.1646
10463TIP3   OH252803   0.951   6.214  16.892  0.7929  0.0323 -0.0607
10463TIP3    H152804   0.883   6.154  16.862  0.0036  0.4281  0.8993
10463TIP3    H252805   1.031   6.161  16.891  0.5375 -0.3668 -1.4380
10464TIP3   OH252806   5.378   0.779   3.427 -0.3910  0.0609  0.4048
10464TIP3    H152807   5.385   0.791   3.332 -3.5268  2.4497  0.2988
10464TIP3    H252808   5.452   0.723   3.450  2.4591  2.0172 -2.9588
10465TIP3   OH252809   1.443   6.806   3.605 -0.7364  0.3878  0.3003
10465TIP3    H152810   1.453   6.745   3.532 -1.5470 -0.0541  0.5450
10465TIP3    H252811   1.507   6.777   3.670 -0.5461  0.3077  0.0748
10466TIP3   OH252812   2.981   5.607  13.240  0.0968  0.3384 -0.3235
10466TIP3    H152813   2.971   5.655  13.322 -1.5980  2.1407 -1.4815
10466TIP3    H252814   2.898   5.560  13.229 -0.8096  2.1991 -2.1661
10467TIP3   OH252815   0.219   3.686  13.015  0.0398  0.0453  0.3720
10467TIP3    H152816   0.217   3.737  13.096  0.4703  0.9645 -0.1834
10467TIP3    H252817   0.304   3.642  13.016 -0.0747 -0.1766  0.5497
10468TIP3   OH252818   1.514   3.664   5.008  0.5724  0.0630 -0.7394
10468TIP3    H152819   1.535   3.756   4.993 -0.7622  0.6064  0.4166
10468TIP3    H252820   1.581   3.633   5.070  1.0375  0.2506 -1.1503
10469TIP3   OH252821   4.759   6.582  12.625 -0.0839  0.3341  0.3634
10469TIP3    H152822   4.673   6.612  12.657  0.1314 -0.2639  1.5687
10469TIP3    H252823   4.739   6.533  12.546 -0.8584  0.2377  0.6107
10470TIP3   OH252824   6.320   4.688   4.283 -0.2536 -0.1298  0.5152
10470TIP3    H152825   6.297   4.777   4.256  0.8723  0.3007  0.9405
10470TIP3    H252826   6.274   4.631   4.221 -1.9425  0.6966  0.9521
10471TIP3   OH252827   2.824   2.758   4.720  0.3249 -0.1997 -0.1280
10471TIP3    H152828   2.752   2.820   4.707 -0.3287 -1.3724 -2.6957
10471TIP3    H252829   2.903   2.811   4.717 -0.3344  0.8860  0.9981
10472TIP3   OH252830   0.917   3.783   5.888 -0.3999 -0.7530  0.1276
10472TIP3    H152831   0.923   3.738   5.972 -0.2362 -0.9138  0.0305
10472TIP3    H252832   0.998   3.760   5.843  0.1585  0.4439  0.4738
10473TIP3   OH252833   0.833   3.934  13.194  0.6311  1.0025  0.0478
10473TIP3    H152834   0.840   3.909  13.286  0.0386  0.9053  0.0659
10473TIP3    H252835   0.904   3.885  13.151  0.9869  1.1417  0.4653
10474TIP3   OH252836   6.767   3.817   3.379 -0.4204 -0.8177  0.3521
10474TIP3    H152837   6.699   3.822   3.446 -0.0261 -0.3578  0.7253
10474TIP3    H252838   6.801   3.727   3.387 -0.6273 -0.8832  0.5170
10475TIP3   OH252839   0.136   0.147  16.088  0.1115 -0.3602 -0.4152
10475TIP3    H152840   0.184   0.106  16.160  0.3135 -0.7067 -0.7437
10475TIP3    H252841   0.186   0.226  16.068  0.8409 -0.9610 -1.0747
10476TIP3   OH252842   3.666   1.773   3.169 -0.3547 -0.0889  0.3946
10476TIP3    H152843   3.650   1.863   3.197 -0.5220  0.5295 -1.4977
10476TIP3    H252844   3.681   1.724   3.250  0.9178  1.8610  1.4127
10477TIP3   OH252845   0.785   1.506  15.508 -0.3221  0.0552  0.4844
10477TIP3    H152846   0.805   1.447  15.580  1.0588 -0.4577 -0.2937
10477TIP3    H252847   0.699   1.477  15.477 -1.4447  0.9745  2.5663
10478TIP3   OH252848   0.843   3.843   4.033  0.0409  0.6029 -0.2555
10478TIP3    H152849   0.814   3.840   4.124 -0.6330  0.5354 -0.4684
10478TIP3    H252850   0.787   3.909   3.992  0.3421  0.6354 -0.6250
10479TIP3   OH252851   2.395   3.138  15.329  0.2899  0.1229  0.4012
10479TIP3    H152852   2.363   3.149  15.240  0.1962 -2.0293  0.1164
10479TIP3    H252853   2.466   3.074  15.321  0.4632  0.1031  1.8449
10480TIP3   OH252854   2.373   0.227   3.204 -0.1871  0.4051 -0.5067
10480TIP3    H152855   2.327   0.183   3.133 -2.7831  0.6317  0.8863
10480TIP3    H252856   2.411   0.156   3.256  0.0408  0.1267 -1.0540
10481TIP3   OH252857   0.289   6.622   6.198 -0.1661  0.8476 -0.0629
10481TIP3    H152858   0.221   6.672   6.243 -0.5359  0.4171 -0.1424
10481TIP3    H252859   0.310   6.550   6.258 -2.5374 -1.3065 -1.6159
10482TIP3   OH252860   5.417   0.942   4.789  0.2249  0.2365 -0.3785
10482TIP3    H152861   5.394   0.978   4.704  0.8735 -2.5399 -1.8606
10482TIP3    H252862   5.513   0.937   4.787  0.4364  2.1500  1.4847
10483TIP3   OH252863   0.717   2.165   4.329 -0.7352 -0.8026  0.4083
10483TIP3    H152864   0.709   2.244   4.276 -1.5603 -1.5470 -0.6199
10483TIP3    H252865   0.639   2.165   4.384 -0.9792 -1.1393  0.0654
10484TIP3   OH252866   5.660   0.073  16.365 -0.3895 -0.4318  0.2943
10484TIP3    H152867   5.592   0.037  16.421 -1.2555 -0.6204 -0.8424
10484TIP3    H252868   5.735   0.014  16.378 -1.6706 -2.5590 -1.3015
10485TIP3   OH252869   1.397   6.288  10.685  0.7983 -0.1218  0.3778
10485TIP3    H152870   1.346   6.369  10.693  1.3269  0.2044  0.4632
10485TIP3    H252871   1.470   6.299  10.746  2.8004  0.8018 -2.0239
10486TIP3   OH252872   3.393   3.854   1.070  0.2896  0.4516  0.4931
10486TIP3    H152873   3.391   3.947   1.094 -1.3869  0.5194  0.1939
10486TIP3    H252874   3.336   3.812   1.134 -0.3111 -0.0959 -0.3792
10487TIP3   OH252875   5.373   3.074  13.837 -0.1539  0.8014  0.4165
10487TIP3    H152876   5.467   3.067  13.821 -0.2861  1.2434 -0.6460
10487TIP3    H252877   5.345   3.148  13.784 -0.9938  1.1086  1.2530
10488TIP3   OH252878   6.095   5.442  14.085 -0.1043  0.4572 -0.8933
10488TIP3    H152879   6.086   5.449  13.990 -1.5475 -0.4775 -0.8551
10488TIP3    H252880   6.019   5.390  14.113 -2.3501  4.4715  1.3261
10489TIP3   OH252881   2.585   6.006   5.884 -0.0357  0.1151  0.2813
10489TIP3    H152882   2.663   6.050   5.917  0.5033 -0.9018  0.4166
10489TIP3    H252883   2.616   5.920   5.855 -0.9240  0.0731 -0.6351
10490TIP3   OH252884   3.308   3.853   3.810  0.1698  0.3788 -0.0664
10490TIP3    H152885   3.363   3.785   3.848  0.7178  0.2600 -1.0412
10490TIP3    H252886   3.303   3.831   3.717 -0.4827  1.1050 -0.2158
10491TIP3   OH252887   4.270   4.103  14.983  0.6322  1.1880 -0.2676
10491TIP3    H152888   4.199   4.144  14.932  0.9436  1.5490 -0.4143
10491TIP3    H252889   4.279   4.016  14.944 -0.1662  0.8981  0.1751
10492TIP3   OH252890   5.523   2.852   1.143 -0.3330  0.4043  0.2231
10492TIP3    H152891   5.592   2.804   1.096 -0.7295  0.5306 -0.5020
10492TIP3    H252892   5.446   2.796   1.135 -0.6743  0.9360 -0.2096
10493TIP3   OH252893   4.291   6.549  16.360  0.6687 -0.3538  0.0080
10493TIP3    H152894   4.238   6.514  16.431  0.7601 -2.4818 -0.9048
10493TIP3    H252895   4.294   6.643  16.376 -1.0904 -0.5224  1.6039
10494TIP3   OH252896   1.157   1.517   5.047  0.0407 -0.8641  0.3800
10494TIP3    H152897   1.209   1.462   4.989  1.2227  1.3888 -0.8188
10494TIP3    H252898   1.220   1.551   5.111 -0.9127 -1.8617  1.9416
10495TIP3   OH252899   3.679   2.753  15.163 -0.2844  0.3537  0.3167
10495TIP3    H152900   3.753   2.803  15.196 -0.1458  0.2989  0.0941
10495TIP3    H252901   3.714   2.665  15.149 -0.4640  0.2565  0.4799
10496TIP3   OH252902   6.234   3.337  14.355 -0.5222  0.1947 -0.3962
10496TIP3    H152903   6.170   3.322  14.285 -2.0770 -2.1417  1.3690
10496TIP3    H252904   6.183   3.381  14.423  0.1769 -0.2739  0.4325
10497TIP3   OH252905   2.694   5.017   5.523  0.2286  0.4350  0.7074
10497TIP3    H152906   2.783   5.020   5.489 -0.6877  0.1176 -2.0186
10497TIP3    H252907   2.642   5.067   5.459 -1.7841 -0.7932  1.2811
10498TIP3   OH252908   5.611   6.764  12.025 -0.0421 -0.2349  0.0519
10498TIP3    H152909   5.692   6.732  12.067 -0.0476 -0.5343 -0.1662
10498TIP3    H252910   5.612   6.723  11.939 -1.7048 -2.3185  0.9272
10499TIP3   OH252911   0.155   3.054  14.853  0.2828 -0.1624  0.1035
10499TIP3    H152912   0.195   3.071  14.768  0.2779 -0.0474  0.1251
10499TIP3    H252913   0.066   3.023  14.833 -0.2955  1.4105  0.1133
10500TIP3   OH252914   5.939   4.750  10.607 -0.2428  0.3686  0.6651
10500TIP3    H152915   6.031   4.751  10.631 -0.2408 -1.4479  0.8866
10500TIP3    H252916   5.894   4.715  10.684 -0.9584  0.1225  0.1525
10501TIP3   OH252917   2.512   5.873   6.867  0.2422 -0.1878 -0.3590
10501TIP3    H152918   2.440   5.931   6.890 -0.5250 -1.5755  0.8911
10501TIP3    H252919   2.486   5.834   6.784 -1.4441 -2.1258  0.9880
10502TIP3   OH252920   1.482   4.336   5.571 -0.3785  0.1361 -0.1903
10502TIP3    H152921   1.524   4.257   5.602 -1.4242 -0.3354  0.0672
10502TIP3    H252922   1.389   4.313   5.564 -0.4066  0.6547 -2.2645
10503TIP3   OH252923   0.863   1.953   0.359  0.2458  0.2263 -0.0287
10503TIP3    H152924   0.847   1.880   0.299  0.2885 -0.8294  1.1865
10503TIP3    H252925   0.905   1.912   0.435 -1.6153  1.1593  1.5977
10504TIP3   OH252926   3.776   1.023  17.114 -0.1644 -0.2458 -0.7196
10504TIP3    H152927   3.821   1.044  17.032  0.9961  1.1563  0.2231
10504TIP3    H252928   3.732   1.104  17.139  1.2847  0.0288  1.1167
10505TIP3   OH252929   1.048   1.775  12.443 -0.6977  0.2398 -0.0776
10505TIP3    H152930   1.010   1.706  12.497 -0.6318 -0.8908 -1.4404
10505TIP3    H252931   1.001   1.770  12.360 -0.9358  2.0876 -0.0839
10506TIP3   OH252932   5.993   4.115   1.171 -0.2241 -0.4045 -0.4998
10506TIP3    H152933   6.042   4.192   1.143 -1.8522  0.0616 -2.3126
10506TIP3    H252934   5.975   4.068   1.090 -3.8337  0.1771 -0.2088
10507TIP3   OH252935   5.555   0.009  15.025  0.2040  0.2405 -0.1861
10507TIP3    H152936   5.480   0.052  15.067 -0.5458 -0.8570 -0.3619
10507TIP3    H252937   5.566   0.056  14.942  0.3814  1.0776  0.2964
10508TIP3   OH252938   2.440   0.853   5.977 -0.0623 -0.4127  0.2784
10508TIP3    H152939   2.475   0.784   5.921 -0.9032 -0.9392  0.3856
10508TIP3    H252940   2.498   0.928   5.961 -0.5930 -0.3715 -1.7146
10509TIP3   OH252941   2.417   6.583   2.595 -0.5521 -0.3229  0.0766
10509TIP3    H152942   2.399   6.517   2.662  1.1559 -0.0599  0.8546
10509TIP3    H252943   2.354   6.653   2.611  0.2120  0.0014  1.8201
10510TIP3   OH252944   1.956   1.689   0.742 -0.2988 -0.2748  0.1872
10510TIP3    H152945   1.936   1.647   0.825 -0.7612 -0.2773  0.0759
10510TIP3    H252946   1.993   1.619   0.688  2.2102  0.2153  1.1479
10511TIP3   OH252947   3.011   2.378  12.200 -0.2105 -0.4495 -0.2049
10511TIP3    H152948   3.032   2.286  12.182 -1.9264 -0.8072 -0.6533
10511TIP3    H252949   3.060   2.428  12.135  1.5096 -0.9349  0.6562
10512TIP3   OH252950   2.138   3.807   5.552  0.4438 -0.2704  0.4953
10512TIP3    H152951   2.194   3.731   5.536 -0.5016 -0.8591 -0.1050
10512TIP3    H252952   2.074   3.777   5.616  0.8953  0.4473  1.2984
10513TIP3   OH252953   4.366   0.446  14.422 -0.0721  0.3525 -0.4159
10513TIP3    H152954   4.355   0.432  14.328  0.3681  0.5638 -0.4989
10513TIP3    H252955   4.401   0.535  14.429  1.0990 -0.1144 -0.1224
10514TIP3   OH252956   0.444   3.384   3.181 -0.1197 -0.4002 -0.2132
10514TIP3    H152957   0.520   3.439   3.201 -0.3525 -0.6666  1.5884
10514TIP3    H252958   0.482   3.299   3.157  0.1771 -0.6204  0.9610
10515TIP3   OH252959   3.609   1.243   0.089 -0.6445 -0.0913  0.2288
10515TIP3    H152960   3.570   1.268   0.005  0.4902  1.3114  0.0889
10515TIP3    H252961   3.554   1.287   0.154 -0.4584  0.2939  0.1288
10516TIP3   OH252962   5.660   2.764   2.111 -0.6606  0.0235  0.1409
10516TIP3    H152963   5.633   2.678   2.142  1.4907 -0.3065  1.3286
10516TIP3    H252964   5.689   2.749   2.021 -0.0891 -0.5623  0.4157
10517TIP3   OH252965   3.115   3.861   3.547 -0.2522 -0.3689 -0.3164
10517TIP3    H152966   3.047   3.819   3.599  2.0648 -0.9595  2.4919
10517TIP3    H252967   3.099   3.955   3.558 -0.7528 -0.5026  0.1309
10518TIP3   OH252968   2.615   2.616  12.596 -0.1242  0.0762 -0.2189
10518TIP3    H152969   2.600   2.590  12.505  1.0090  0.3184 -0.4845
10518TIP3    H252970   2.657   2.540  12.637  0.9699  0.5954 -0.3619
10519TIP3   OH252971   3.348   1.706  13.902 -0.4230  0.0177 -0.6529
10519TIP3    H152972   3.305   1.675  13.822 -1.6031  1.5059 -0.6379
10519TIP3    H252973   3.343   1.801  13.897  1.0709  0.1919  0.3751
10520TIP3   OH252974   6.571   0.893   2.806  0.1573  0.8685 -0.4231
10520TIP3    H152975   6.492   0.858   2.847  0.6621  0.3858  0.1497
10520TIP3    H252976   6.604   0.956   2.869  0.9804  0.0658 -0.0364
10521TIP3   OH252977   5.628   4.702  16.974 -0.2296 -0.1749 -0.2034
10521TIP3    H152978   5.547   4.726  17.019 -0.3742 -0.4117 -0.3389
10521TIP3    H252979   5.671   4.641  17.035  0.6170  1.1765  0.5988
10522TIP3   OH252980   3.656   0.330  11.614  0.6279 -0.0770 -0.3089
10522TIP3    H152981   3.653   0.247  11.566  1.3787  0.1530 -0.7736
10522TIP3    H252982   3.725   0.317  11.679 -0.8015 -0.6122  1.1881
10523TIP3   OH252983   2.383   6.020   3.431 -0.4984  0.1940 -0.1064
10523TIP3    H152984   2.382   5.987   3.520 -0.1685  2.0256  0.6085
10523TIP3    H252985   2.390   5.941   3.376  2.6568 -0.8478  1.5648
10524TIP3   OH252986   5.479   1.831   0.271 -0.2769  0.0423 -0.5576
10524TIP3    H152987   5.408   1.770   0.291 -1.3459  0.3066 -3.1787
10524TIP3    H252988   5.437   1.903   0.225  1.6421  0.2508 -2.1206
10525TIP3   OH252989   0.438   4.658  11.955 -0.1989 -0.3164 -0.2499
10525TIP3    H152990   0.352   4.618  11.940 -0.3407 -0.4124  0.8016
10525TIP3    H252991   0.436   4.688  12.046  0.8801 -0.3037 -0.2185
10526TIP3   OH252992   3.772   3.432   3.368  0.3801 -1.0196  0.5529
10526TIP3    H152993   3.818   3.354   3.400 -0.3825 -2.0681 -0.8164
10526TIP3    H252994   3.790   3.434   3.274 -2.6379 -1.7266 -0.1494
10527TIP3   OH252995   0.357   2.644   1.812 -0.1041 -0.9816  0.7232
10527TIP3    H152996   0.333   2.669   1.902 -1.1833 -1.7464  0.6702
10527TIP3    H252997   0.369   2.727   1.766  0.3452 -0.5804  1.5393
10528TIP3   OH252998   4.999   5.753  16.022 -0.4614 -0.2300  0.5801
10528TIP3    H152999   5.022   5.764  16.114  1.9026 -1.2184  0.1876
10528TIP3    H253000   5.047   5.823  15.977 -2.0410  0.5905  0.1128
10529TIP3   OH253001   2.556   3.574  16.901  0.3076  0.7901 -0.1929
10529TIP3    H153002   2.605   3.588  16.820  2.2775 -0.6287  0.6626
10529TIP3    H253003   2.593   3.638  16.962 -0.0919  0.8301  0.0078
10530TIP3   OH253004   6.023   6.625  12.904 -0.0603  0.2551  0.2509
10530TIP3    H153005   6.073   6.620  12.986 -0.6207  0.4115  0.6076
10530TIP3    H253006   5.932   6.622  12.932 -0.2657  1.0550 -0.3175
10531TIP3   OH253007   2.023   1.644  10.486  0.0206  0.3914 -0.4116
10531TIP3    H153008   2.085   1.583  10.445 -1.4482 -1.0161 -0.6770
10531TIP3    H253009   1.956   1.587  10.525 -0.5145  1.8122  0.8497
10532TIP3   OH253010   6.066   0.526   1.470  0.3803 -0.3593 -0.2044
10532TIP3    H153011   6.054   0.617   1.497  0.8365 -0.6160  0.8976
10532TIP3    H253012   5.977   0.490   1.467  0.2383 -0.0225 -0.1248
10533TIP3   OH253013   2.040   5.785   2.174  0.0865 -0.0217 -0.6694
10533TIP3    H153014   2.056   5.872   2.136 -0.9663  0.1743 -0.6780
10533TIP3    H253015   2.102   5.728   2.128  1.1221  0.7897 -0.3318
10534TIP3   OH253016   5.783   1.043  13.029  0.1377 -0.0874 -0.0956
10534TIP3    H153017   5.876   1.037  13.049  0.3006 -0.8122 -0.9771
10534TIP3    H253018   5.779   1.085  12.943 -0.3113 -0.5503 -0.3101
10535TIP3   OH253019   6.407   5.564   4.660  0.1861  0.2003  0.9478
10535TIP3    H153020   6.398   5.651   4.701 -0.9161  0.4076  0.3207
10535TIP3    H253021   6.490   5.568   4.613 -0.2112  1.2144  0.2880
10536TIP3   OH253022   3.725   5.481   3.897  0.0851  1.0053  0.0313
10536TIP3    H153023   3.631   5.493   3.881 -0.2621 -2.6290 -1.4718
10536TIP3    H253024   3.729   5.419   3.969  1.3591  0.8869 -0.1327
10537TIP3   OH253025   5.339   2.029  11.506  0.2068 -0.3455  0.4674
10537TIP3    H153026   5.404   2.098  11.517  1.0471 -1.1585  0.6990
10537TIP3    H253027   5.259   2.076  11.480  0.5799  0.7712  1.2432
10538TIP3   OH253028   6.019   2.251  12.835 -0.0579  0.5759 -0.0691
10538TIP3    H153029   5.973   2.331  12.809 -0.8020  0.2436  0.2028
10538TIP3    H253030   5.950   2.184  12.838  0.4413  0.0769  0.3740
10539TIP3   OH253031   2.651   4.596   3.565 -0.1950 -0.0558 -0.3070
10539TIP3    H153032   2.628   4.529   3.630  0.2171 -2.1933 -2.2408
10539TIP3    H253033   2.569   4.644   3.551 -1.0300 -1.3742 -0.1926
10540TIP3   OH253034   3.733   1.012   0.995  0.6914 -0.2019 -0.3294
10540TIP3    H153035   3.826   1.000   0.979  1.0217 -0.1619  1.3450
10540TIP3    H253036   3.700   0.924   1.015  1.2929  0.1921  3.1576
10541TIP3   OH253037   2.520   1.067  15.524  0.1597 -0.4675 -0.2426
10541TIP3    H153038   2.508   0.976  15.496  0.0098 -0.2348 -0.9681
10541TIP3    H253039   2.615   1.082  15.517  0.2191 -0.6552  0.1614
10542TIP3   OH253040   3.762   2.896  13.279  0.1691 -0.3023  0.8924
10542TIP3    H153041   3.851   2.930  13.284  0.7151 -1.4993  0.0289
10542TIP3    H253042   3.737   2.881  13.370  0.6388  0.5461  1.1713
10543TIP3   OH253043   5.671   4.769  12.256 -0.2894 -0.5449  0.8763
10543TIP3    H153044   5.709   4.799  12.339 -0.5735 -1.5511  1.3937
10543TIP3    H253045   5.746   4.760  12.197 -0.2101  1.2304  0.6627
10544TIP3   OH253046   1.036   1.596   0.540 -0.3973 -0.5151  0.1547
10544TIP3    H153047   1.122   1.630   0.517 -0.1644 -2.3058 -1.9162
10544TIP3    H253048   1.012   1.643   0.621  2.2917  0.3231  0.5476
10545TIP3   OH253049   2.906   5.265  12.245  0.1473  0.2560  0.5276
10545TIP3    H153050   2.904   5.169  12.239 -2.0849  0.2781  0.1273
10545TIP3    H253051   2.864   5.284  12.329  0.3870  0.8908  0.5063
10546TIP3   OH253052   5.552   5.171  13.688 -0.6482 -0.3234  0.3855
10546TIP3    H153053   5.508   5.204  13.610 -0.0275 -0.2491  0.0612
10546TIP3    H253054   5.643   5.198  13.677 -0.8621  1.1770  1.9468
10547TIP3   OH253055   4.236   4.302  11.866  0.1142 -0.7152 -0.5222
10547TIP3    H153056   4.229   4.393  11.835 -1.3261 -0.4553  0.4733
10547TIP3    H253057   4.166   4.256  11.821  0.3077 -1.1492 -0.3837
10548TIP3   OH253058   0.764   3.724   5.578  0.0523  0.3611 -0.5101
10548TIP3    H153059   0.748   3.723   5.672  0.3125  0.6314 -0.4627
10548TIP3    H253060   0.677   3.716   5.539 -0.0915  0.6392 -0.2487
10549TIP3   OH253061   5.574   0.256   2.921 -0.0086 -0.3240 -0.4547
10549TIP3    H153062   5.659   0.254   2.966  0.4384 -0.8804 -1.3080
10549TIP3    H253063   5.556   0.349   2.908 -0.0689 -0.1533  0.7115
10550TIP3   OH253064   0.694   6.101   5.742 -0.6799 -0.3198 -0.1400
10550TIP3    H153065   0.651   6.171   5.792 -0.3091 -0.5964  0.5878
10550TIP3    H253066   0.788   6.117   5.755 -0.5348  0.3725 -1.8467
10551TIP3   OH253067   0.093   2.600  12.153  0.3914  0.0818 -0.8000
10551TIP3    H153068   0.041   2.652  12.090  0.0452  0.1394 -0.4683
10551TIP3    H253069   0.161   2.661  12.182 -0.2861  0.5071 -0.0687
10552TIP3   OH253070   5.691   5.917  16.340 -0.1803 -0.0841  0.6930
10552TIP3    H153071   5.695   5.937  16.434 -1.1706  1.1446  0.4930
10552TIP3    H253072   5.778   5.939  16.308  0.5753 -1.6834  1.5109
10553TIP3   OH253073   6.125   3.657  13.778 -0.4725  0.1824 -0.4599
10553TIP3    H153074   6.142   3.585  13.839  1.9463  1.1908  0.1748
10553TIP3    H253075   6.103   3.732  13.834 -3.5156 -0.0833 -1.1318
10554TIP3   OH253076   3.465   6.125  15.954 -0.1565  0.2922  0.3360
10554TIP3    H153077   3.438   6.119  16.046  0.3255  0.3679  0.4842
10554TIP3    H253078   3.546   6.176  15.956  0.5472 -0.7884  0.0029
10555TIP3   OH253079   0.569   1.068  12.633  0.2734  0.4604 -0.2085
10555TIP3    H153080   0.489   1.113  12.607 -0.1581 -0.3610 -0.3495
10555TIP3    H253081   0.639   1.110  12.583  0.0284  1.6078  0.3899
10556TIP3   OH253082   0.397   0.622  11.824 -0.1573  0.3317  0.6287
10556TIP3    H153083   0.326   0.584  11.771 -0.7097  0.4307  1.2728
10556TIP3    H253084   0.367   0.711  11.844  0.9664  1.0176 -0.5688
10557TIP3   OH253085   2.113   5.841  10.685 -0.0352 -0.6320 -0.7762
10557TIP3    H153086   2.208   5.834  10.696 -0.1346 -1.5387 -0.3597
10557TIP3    H253087   2.095   5.935  10.690  0.6309 -0.5532  1.0610
10558TIP3   OH253088   5.655   6.769  12.344  1.0639  0.8291 -0.0750
10558TIP3    H153089   5.740   6.803  12.316  1.7804 -1.0220 -0.2431
10558TIP3    H253090   5.660   6.675  12.329 -0.7474  0.5783  0.6390
10559TIP3   OH253091   4.527   2.122   0.286  0.0005 -0.3174  0.3390
10559TIP3    H153092   4.485   2.176   0.219  1.6078  1.9344  0.9979
10559TIP3    H253093   4.455   2.074   0.327 -1.1845 -0.6063 -1.9612
10560TIP3   OH253094   1.640   4.082  11.574 -0.1593  0.0327  0.0356
10560TIP3    H153095   1.562   4.082  11.519  0.7123 -2.5324 -1.3683
10560TIP3    H253096   1.647   3.993  11.607  2.4073  0.0290 -0.2637
10561TIP3   OH253097   2.240   0.938   0.498 -0.2488 -0.9711 -0.0903
10561TIP3    H153098   2.290   1.014   0.527  1.5644 -2.7380  1.7612
10561TIP3    H253099   2.148   0.963   0.508  0.1605  1.8287 -2.0617
10562TIP3   OH253100   2.056   1.937  11.851 -0.0212  0.4623 -0.7813
10562TIP3    H153101   2.089   1.975  11.770  0.8556  1.9039  0.1959
10562TIP3    H253102   2.133   1.895  11.891 -0.8100 -1.7302 -1.4672
10563TIP3   OH253103   3.905   2.628   5.125 -0.5000  0.3818  0.6766
10563TIP3    H153104   3.816   2.610   5.155  0.1321 -0.3574  2.1803
10563TIP3    H253105   3.934   2.545   5.085 -0.1540  0.3166  1.0573
10564TIP3   OH253106   4.378   1.071  15.457  0.6932 -0.2198  0.6467
10564TIP3    H153107   4.291   1.045  15.489 -0.0313  1.3104  0.0497
10564TIP3    H253108   4.366   1.080  15.362  0.2787  3.8600  0.8664
10565TIP3   OH253109   3.140   2.221   1.428  0.5998 -0.1613  0.0262
10565TIP3    H153110   3.212   2.277   1.401 -0.2793  2.0033  1.8172
10565TIP3    H253111   3.061   2.270   1.405 -0.2312 -0.9791  1.0109
10566TIP3   OH253112   2.314   0.777  12.464 -0.1106 -0.5942  0.4907
10566TIP3    H153113   2.340   0.692  12.501  0.4810  0.3894  2.4269
10566TIP3    H253114   2.388   0.801  12.407  1.0517 -0.1206  2.1191
10567TIP3   OH253115   2.071   0.625   4.178  0.3864  0.6928 -0.5344
10567TIP3    H153116   2.115   0.708   4.162  1.3617 -0.0300 -1.8549
10567TIP3    H253117   2.053   0.625   4.272  0.2990  2.4052 -0.5206
10568TIP3   OH253118   5.126   2.113   3.115 -0.0830  0.3364  0.0947
10568TIP3    H153119   5.201   2.061   3.145 -0.0220  1.0781  1.3056
10568TIP3    H253120   5.080   2.056   3.054  0.4323 -0.8389  0.7735
10569TIP3   OH253121   2.562   3.850  14.308 -0.2427  0.3043  0.0402
10569TIP3    H153122   2.554   3.849  14.404  0.2666 -0.9002  0.0869
10569TIP3    H253123   2.648   3.811  14.291 -0.6420 -0.1943 -0.9279
10570TIP3   OH253124   3.149   1.583  15.227  0.9457  0.6247  1.0456
10570TIP3    H153125   3.236   1.544  15.214  0.9303  1.0817 -0.7714
10570TIP3    H253126   3.115   1.539  15.305  2.5703  0.0206  1.4719
10571TIP3   OH253127   0.070   0.241  13.634 -0.4538  0.9883 -0.9307
10571TIP3    H153128   0.126   0.230  13.711  0.6980 -0.4337 -1.9072
10571TIP3    H253129   0.115   0.307  13.581 -2.3106  3.5449  0.4634
10572TIP3   OH253130   3.387   2.059   0.170 -1.0904  0.0311  0.3933
10572TIP3    H153131   3.446   2.005   0.222 -0.8338 -0.2632 -0.2018
10572TIP3    H253132   3.427   2.064   0.083 -1.0694  1.2412  0.4519
10573TIP3   OH253133   2.329   0.081  11.966 -0.5507  0.2907  0.0060
10573TIP3    H153134   2.282   0.002  11.937 -2.9257  1.6745 -0.1747
10573TIP3    H253135   2.270   0.153  11.943  0.6874  1.9824  1.8829
10574TIP3   OH253136   4.775   4.491   0.295  0.3411  0.2012 -0.0661
10574TIP3    H153137   4.856   4.441   0.305  0.3040  0.3601  1.2665
10574TIP3    H253138   4.766   4.504   0.201  1.3595 -0.6393 -0.3017
10575TIP3   OH253139   0.049   2.010  15.312  0.2583 -0.7590  0.1667
10575TIP3    H153140   0.037   2.095  15.354 -0.8270 -1.4124  1.2315
10575TIP3    H253141   0.032   1.946  15.381 -2.3914 -1.8904 -1.3912
10576TIP3   OH253142   6.216   0.552  13.985 -0.0745 -0.1347  0.2493
10576TIP3    H153143   6.245   0.465  13.956  0.8175  0.3917 -0.4948
10576TIP3    H253144   6.258   0.613  13.924  0.4135  0.9062  1.5833
10577TIP3   OH253145   5.856   2.946  11.511 -0.6589 -0.4461  0.3136
10577TIP3    H153146   5.916   2.962  11.437  0.0593 -0.1165  0.9504
10577TIP3    H253147   5.896   2.993  11.584 -0.8294 -1.5867  1.1669
10578TIP3   OH253148   6.192   5.420  15.030 -0.3124  0.0669 -0.3947
10578TIP3    H153149   6.107   5.405  14.987 -0.4470 -1.2404  0.2856
10578TIP3    H253150   6.181   5.383  15.118  0.5431  1.0851  0.1647
10579TIP3   OH253151   2.266   1.137   0.740  0.4239  0.0600 -0.2665
10579TIP3    H153152   2.239   1.051   0.771  0.8802 -0.0046 -0.0260
10579TIP3    H253153   2.360   1.128   0.724  0.4135  0.4251 -0.5475
10580TIP3   OH253154   6.266   2.864  17.118  0.0323  0.3970 -0.4615
10580TIP3    H153155   6.340   2.815  17.153  0.2263  1.5617  0.8848
10580TIP3    H253156   6.223   2.901  17.196 -1.5462  0.3430 -1.2591
10581TIP3   OH253157   0.909   6.439  10.864  0.2225 -0.2122  0.0396
10581TIP3    H153158   0.868   6.439  10.951 -0.7829  0.5692 -0.4203
10581TIP3    H253159   0.861   6.373  10.814 -0.4174  0.6139 -0.4611
10582TIP3   OH253160   2.796   3.837  16.147  0.4198  0.3624 -0.5102
10582TIP3    H153161   2.834   3.924  16.139  1.4150 -0.0602 -0.5558
10582TIP3    H253162   2.706   3.847  16.117  0.5325  1.3634 -0.5447
10583TIP3   OH253163   4.774   4.516   0.042  0.5722  0.5215  0.0463
10583TIP3    H153164   4.720   4.572  -0.014 -1.4802 -0.7697  0.6010
10583TIP3    H253165   4.843   4.483  -0.016 -0.6624  0.3328 -1.3865
10584TIP3   OH253166   2.734   1.276  16.954  0.7187 -0.0585  0.0309
10584TIP3    H153167   2.733   1.354  16.898 -0.2526 -1.0251 -1.3442
10584TIP3    H253168   2.657   1.285  17.010 -1.0884 -1.3633 -2.1077
10585TIP3   OH253169   6.372   6.456   0.075 -0.5514  0.3006  0.7193
10585TIP3    H153170   6.341   6.524   0.135 -1.4887  2.9603 -2.5378
10585TIP3    H253171   6.450   6.494   0.034  0.4635 -1.7268  0.6202
10586TIP3   OH253172   0.658   4.359  16.456 -0.3805  0.6408 -0.4515
10586TIP3    H153173   0.592   4.400  16.400 -0.4318 -0.8469 -1.5517
10586TIP3    H253174   0.632   4.267  16.460  0.4179  0.4551  0.9063
10587TIP3   OH253175   5.271   0.888  16.708  0.4091 -0.3359  0.1443
10587TIP3    H153176   5.332   0.958  16.729  1.1720 -0.9571  0.0333
10587TIP3    H253177   5.313   0.839  16.637 -0.8571  0.0574 -0.9279
10588TIP3   OH253178   5.925   3.223  16.121  0.0073 -0.6446  0.1217
10588TIP3    H153179   5.944   3.160  16.051 -0.1977  0.7715 -1.2823
10588TIP3    H253180   5.830   3.221  16.130  0.0622 -1.1184  0.6747
10589TIP3   OH253181   2.989   1.662   6.017 -0.5177  0.2372  0.3566
10589TIP3    H153182   2.904   1.700   5.992  0.7719  1.9959 -1.7923
10589TIP3    H253183   3.019   1.718   6.089 -2.1354 -1.9005  2.8812
10590TIP3   OH253184   1.404   1.478   2.070  0.1879 -0.4012  0.2194
10590TIP3    H153185   1.466   1.456   2.141 -0.6696 -0.0493  1.1030
10590TIP3    H253186   1.320   1.488   2.115 -0.8888 -2.5652 -1.1788
10591TIP3   OH253187   2.361   4.879   4.471 -0.4834  0.2877 -0.4874
10591TIP3    H153188   2.421   4.804   4.473  0.2921  0.8458 -1.6818
10591TIP3    H253189   2.306   4.868   4.549  0.5095 -0.7772  0.0928
10592TIP3   OH253190   3.285   2.535   4.449 -0.2214 -0.3458 -0.0922
10592TIP3    H153191   3.275   2.440   4.446  2.1826 -0.6445 -2.8926
10592TIP3    H253192   3.345   2.551   4.521  0.2515 -1.0663 -0.3178
10593TIP3   OH253193   1.722   1.329  17.009 -0.2886 -0.4324  0.4471
10593TIP3    H153194   1.738   1.378  16.929  1.0783  0.3680  1.1864
10593TIP3    H253195   1.635   1.358  17.038 -0.1057  0.4807  0.1115
10594TIP3   OH253196   6.094   4.660   4.527 -0.6079  0.3002 -0.4421
10594TIP3    H153197   6.131   4.745   4.504 -0.4899  0.6959  1.0614
10594TIP3    H253198   6.033   4.679   4.598 -2.5062 -0.5636 -1.7725
10595TIP3   OH253199   4.582   5.132   3.208  0.3995  0.5492 -0.1368
10595TIP3    H153200   4.595   5.040   3.229 -0.3188 -0.4069 -3.3869
10595TIP3    H253201   4.661   5.159   3.163 -0.6104  0.5327 -2.0232
10596TIP3   OH253202   2.206   6.002   2.412 -0.2616  0.0098 -0.2693
10596TIP3    H153203   2.118   5.965   2.401 -0.4434  0.0369  0.9020
10596TIP3    H253204   2.226   5.989   2.505  0.7391  0.5289 -0.3919
10597TIP3   OH253205   6.678   6.177   0.493  0.1409  0.0193  0.1351
10597TIP3    H153206   6.697   6.136   0.578  0.0710 -0.6082 -0.1443
10597TIP3    H253207   6.682   6.271   0.510  1.5567 -0.0886  0.5271
10598TIP3   OH253208   2.356   5.819   3.240  0.1784 -0.1168 -0.1866
10598TIP3    H153209   2.279   5.762   3.247  1.0569 -1.0642  4.4660
10598TIP3    H253210   2.429   5.759   3.230  0.6477  0.7424 -3.1887
10599TIP3   OH253211   3.285   0.554  14.406 -0.0886  0.1282 -0.1074
10599TIP3    H153212   3.201   0.511  14.393  0.3317 -0.6222 -0.3945
10599TIP3    H253213   3.334   0.496  14.464  0.4791  0.2293 -0.4755
10600TIP3   OH253214   4.874   3.597   2.495 -0.3030  0.0446  0.0717
10600TIP3    H153215   4.826   3.623   2.416  0.3384  1.3035  0.0803
10600TIP3    H253216   4.931   3.526   2.465  0.9264  1.4224 -0.9415
10601TIP3   OH253217   2.632   1.376  14.335  0.3953 -0.5222 -0.1039
10601TIP3    H153218   2.641   1.282  14.321 -1.0378 -0.6144 -0.5187
10601TIP3    H253219   2.572   1.405  14.267  0.0111  0.5209  0.6521
10602TIP3   OH253220   2.151   2.430   2.501 -0.1901  0.6263 -0.0972
10602TIP3    H153221   2.144   2.335   2.494 -0.9586  0.7039 -0.4008
10602TIP3    H253222   2.232   2.451   2.456  1.3551 -0.1320  2.1376
10603TIP3   OH253223   1.133   4.107   2.236 -0.0577 -0.6561  0.4843
10603TIP3    H153224   1.203   4.122   2.299 -0.2465  1.5667  0.2645
10603TIP3    H253225   1.175   4.118   2.151 -0.4389 -0.3778  0.3261
10604TIP3   OH253226   3.476   5.554  12.961 -0.1602  0.0804 -0.4054
10604TIP3    H153227   3.401   5.591  13.007 -0.5350 -1.4496  0.2853
10604TIP3    H253228   3.514   5.492  13.023 -0.0352 -1.2537 -1.7494
10605TIP3   OH253229   3.738   4.486   2.929 -0.4805  0.1458  0.5146
10605TIP3    H153230   3.743   4.391   2.938 -0.6290  0.1652  0.8187
10605TIP3    H253231   3.757   4.503   2.837  0.1990 -0.1309  0.6047
10606TIP3   OH253232   6.619   2.870  13.941  0.1502  0.0459 -0.3462
10606TIP3    H153233   6.625   2.937  13.873  0.3263  1.1534  0.7277
10606TIP3    H253234   6.525   2.854  13.951  0.1329 -0.2818 -0.9923
10607TIP3   OH253235   6.250   5.212  14.217  0.7381  0.3547 -0.1729
10607TIP3    H153236   6.330   5.183  14.173 -0.1299  0.0580 -1.6133
10607TIP3    H253237   6.217   5.285  14.164 -0.1302  0.2491  0.1916
10608TIP3   OH253238   1.363   6.588  12.549 -0.0030 -0.3588  0.0455
10608TIP3    H153239   1.278   6.604  12.589 -0.3557  1.6809 -1.3919
10608TIP3    H253240   1.345   6.525  12.479 -0.2505 -0.2895  0.0444
10609TIP3   OH253241   4.752   1.282   4.311  0.8767  0.7364  0.6763
10609TIP3    H153242   4.781   1.362   4.268  0.0112  0.8589  0.3083
10609TIP3    H253243   4.686   1.311   4.374  0.7724  0.3428  0.7512
10610TIP3   OH253244   1.809   0.726   0.829 -0.3057 -0.3487  0.5795
10610TIP3    H153245   1.842   0.663   0.892 -0.6068  0.3307  1.4342
10610TIP3    H253246   1.754   0.785   0.880 -0.4462  0.3013 -0.2915
10611TIP3   OH253247   4.567   4.179   3.205  0.3805 -0.5770  0.0966
10611TIP3    H153248   4.605   4.111   3.260 -0.4305 -0.1620  1.2148
10611TIP3    H253249   4.635   4.200   3.142  1.3839 -1.0026  1.0047
10612TIP3   OH253250   2.053   6.586   0.079 -0.3951 -0.0554 -0.8045
10612TIP3    H153251   1.976   6.571   0.134 -0.2798  2.1091  0.0343
10612TIP3    H253252   2.079   6.498   0.050 -1.3165 -1.1387  1.4176
10613TIP3   OH253253   5.269   5.898  14.536 -0.0413 -0.0278 -0.2564
10613TIP3    H153254   5.267   5.807  14.567 -1.1672  0.1801  0.3079
10613TIP3    H253255   5.210   5.900  14.461 -2.2215  0.8018  1.3982
10614TIP3   OH253256   4.714   3.648   5.421  0.5038  0.3809  0.2685
10614TIP3    H153257   4.768   3.680   5.349  1.6738 -0.6302  0.6660
10614TIP3    H253258   4.776   3.627   5.490 -0.2250 -2.0527  0.2760
10615TIP3   OH253259   5.062   4.108   4.903 -0.6814 -0.2224  0.5487
10615TIP3    H153260   5.123   4.104   4.830 -0.2020 -0.4491  0.9593
10615TIP3    H253261   4.986   4.154   4.867 -0.0786  0.5059  0.1749
10616TIP3   OH253262   2.809   0.722   4.664  0.4173 -0.0181  0.0987
10616TIP3    H153263   2.864   0.646   4.645  1.8552  0.8827  0.5239
10616TIP3    H253264   2.863   0.797   4.642 -0.5394  0.9039  0.8103
10617TIP3   OH253265   4.727   2.754   3.264  0.0853 -0.0537  0.8673
10617TIP3    H153266   4.653   2.753   3.325  1.0985  2.7491  2.3797
10617TIP3    H253267   4.742   2.847   3.246  1.4118 -0.6691 -1.7676
10618TIP3   OH253268   3.948   5.275  11.271  0.2415  0.4205 -0.1792
10618TIP3    H153269   3.859   5.300  11.247  0.3650  2.4711  1.1755
10618TIP3    H253270   4.004   5.335  11.222  0.7535  0.5106  0.4993
10619TIP3   OH253271   2.306   5.304  10.659 -0.8857 -0.1898 -0.8580
10619TIP3    H153272   2.263   5.341  10.582 -2.5099 -1.9859 -0.9015
10619TIP3    H253273   2.234   5.277  10.716  0.2531 -0.8366  0.3271
10620TIP3   OH253274   3.636   3.296  11.767 -0.4614 -0.3967  0.2758
10620TIP3    H153275   3.638   3.366  11.831  1.3375 -1.4096  1.4169
10620TIP3    H253276   3.677   3.333  11.689  1.8278 -0.5103  1.3309
10621TIP3   OH253277   3.650   3.343  16.614  0.2721 -0.6344 -0.3802
10621TIP3    H153278   3.577   3.403  16.624 -0.6595 -1.8003  0.0067
10621TIP3    H253279   3.728   3.397  16.629 -0.5056  0.5737 -0.5874
10622TIP3   OH253280   2.938   0.576  13.360 -0.3157 -0.4748 -0.6062
10622TIP3    H153281   2.847   0.606  13.354 -0.2689  0.6260  2.4477
10622TIP3    H253282   2.976   0.629  13.429  1.8231 -2.9672  0.2996
10623TIP3   OH253283   3.669   5.164  16.996  0.1623 -0.2546  0.4069
10623TIP3    H153284   3.756   5.205  16.994  0.2079 -0.3306  0.8604
10623TIP3    H253285   3.671   5.106  17.072 -0.7968  0.9067  1.3689
10624TIP3   OH253286   1.318   2.137  15.693  0.4018  0.2397 -0.3885
10624TIP3    H153287   1.380   2.103  15.629 -0.8306  0.8893 -2.0239
10624TIP3    H253288   1.289   2.221  15.656 -2.0585 -0.4241 -0.1571
10625TIP3   OH253289   5.932   5.453  14.895  0.0048 -0.8228  0.2493
10625TIP3    H153290   5.979   5.434  14.814 -0.6068  0.2699 -0.3873
10625TIP3    H253291   5.852   5.400  14.889 -0.9830  0.7154 -0.8178
10626TIP3   OH253292   2.149   2.805  12.601  0.1489  0.8580  0.3380
10626TIP3    H153293   2.109   2.719  12.592 -1.5063  1.5912  0.2305
10626TIP3    H253294   2.220   2.793  12.664 -1.4275 -0.1714  2.0329
10627TIP3   OH253295   3.992   6.380  10.873 -0.2623 -0.5626  0.4652
10627TIP3    H153296   4.026   6.467  10.894 -2.3017  0.6357 -0.8153
10627TIP3    H253297   3.985   6.336  10.958 -0.2560  0.9547  1.2857
10628TIP3   OH253298   6.481   2.315   2.252  0.0969  0.6324  0.0798
10628TIP3    H153299   6.457   2.225   2.229  1.6470 -0.0568  1.0091
10628TIP3    H253300   6.402   2.350   2.293 -0.4278 -0.4233  0.0196
10629TIP3   OH253301   0.821   2.784   2.894 -0.2715 -0.3996 -0.0183
10629TIP3    H153302   0.832   2.733   2.814  1.0846  0.2115 -0.2575
10629TIP3    H253303   0.896   2.844   2.894 -1.2323  0.8479  0.7958
10630TIP3   OH253304   3.559   4.169   2.026 -0.3690  0.4693 -0.5707
10630TIP3    H153305   3.468   4.191   2.010 -0.7647  0.1123  1.0329
10630TIP3    H253306   3.606   4.253   2.021 -1.3051  1.2073  1.8783
10631TIP3   OH253307   1.578   4.579  16.193 -0.2387 -0.4101 -0.6344
10631TIP3    H153308   1.592   4.672  16.175  1.8239 -0.7025 -0.7070
10631TIP3    H253309   1.582   4.538  16.107 -1.4110 -0.5684 -0.6322
10632TIP3   OH253310   0.266   5.070  12.996 -0.1462  0.0764 -0.0435
10632TIP3    H153311   0.191   5.039  12.946  0.0236 -1.5212  0.6284
10632TIP3    H253312   0.265   5.165  12.985 -1.2326 -0.0729 -1.4638
10633TIP3   OH253313   5.346   1.524   4.973 -0.3174  0.0091  0.4190
10633TIP3    H153314   5.367   1.597   4.915 -0.3780  0.3836  0.8573
10633TIP3    H253315   5.336   1.449   4.915 -1.5132  0.6073 -0.1813
10634TIP3   OH253316   1.085   3.507   5.136 -0.0558  0.1921 -0.2903
10634TIP3    H153317   1.027   3.547   5.200 -1.2700  0.1501 -1.3322
10634TIP3    H253318   1.125   3.433   5.182  1.0865  1.6588  1.1946
10635TIP3   OH253319   1.409   5.686  11.110  0.1442 -0.2439  0.1047
10635TIP3    H153320   1.366   5.759  11.065  0.2380  0.7570  1.5713
10635TIP3    H253321   1.464   5.646  11.043  0.2175  1.1323 -0.6982
10636TIP3   OH253322   3.424   1.135  10.623  0.4315 -0.0005 -0.2616
10636TIP3    H153323   3.459   1.224  10.632  1.3574 -0.3957  0.1587
10636TIP3    H253324   3.412   1.123  10.529 -1.0982  1.0845 -0.2368
10637TIP3   OH253325   4.756   5.550   5.303 -0.2199 -0.6719  0.5205
10637TIP3    H153326   4.833   5.603   5.285  1.2238 -2.2756  1.6545
10637TIP3    H253327   4.788   5.478   5.357 -2.3059 -2.0692  0.0270
10638TIP3   OH253328   1.975   5.207   0.679  0.2530 -0.6179 -0.0998
10638TIP3    H153329   1.890   5.216   0.635 -0.3825 -1.2984  0.9287
10638TIP3    H253330   1.957   5.231   0.770  0.9884 -1.4627  0.2855
10639TIP3   OH253331   0.942   2.592  14.739 -0.5664 -0.2216  0.2274
10639TIP3    H153332   1.019   2.575  14.685  0.6601  0.9537  1.5288
10639TIP3    H253333   0.873   2.614  14.676  0.9473  1.6533 -0.8781
10640TIP3   OH253334   4.741   3.612  16.511 -0.7533  1.0036  0.3241
10640TIP3    H153335   4.817   3.644  16.462 -0.7663  1.8308  0.8114
10640TIP3    H253336   4.778   3.567  16.587 -0.7135 -1.1055 -0.8893
10641TIP3   OH253337   6.574   2.043   4.290  1.0001 -0.0315  0.5578
10641TIP3    H153338   6.578   2.049   4.386 -0.0345 -1.9067  0.7636
10641TIP3    H253339   6.516   2.114   4.264 -0.8063 -1.0459  1.5991
10642TIP3   OH253340   0.345   0.706  12.167  0.2954 -0.2931 -0.1562
10642TIP3    H153341   0.381   0.634  12.114  1.4698 -0.1389  0.4141
10642TIP3    H253342   0.335   0.778  12.105 -0.0809 -0.6717 -0.5511
10643TIP3   OH253343   0.680   4.562   3.760 -0.7302 -0.0976  0.4563
10643TIP3    H153344   0.587   4.572   3.740 -0.6451  0.1204  0.1577
10643TIP3    H253345   0.705   4.645   3.802 -0.4871  0.1719 -0.1991
10644TIP3   OH253346   4.530   2.924  16.007 -0.1990 -0.0146 -0.0451
10644TIP3    H153347   4.444   2.922  16.049 -1.2837  1.9163 -1.9528
10644TIP3    H253348   4.574   2.845  16.038 -1.2995  0.6341  3.6969
10645TIP3   OH253349   6.707   1.185  11.919  0.6837 -0.5741 -0.1557
10645TIP3    H153350   6.704   1.193  12.015 -1.5579 -3.3814  0.1481
10645TIP3    H253351   6.634   1.239  11.888  0.3242 -1.0378 -0.1221
10646TIP3   OH253352   1.532   0.811   4.009  0.1276  0.0594 -0.1207
10646TIP3    H153353   1.471   0.782   4.077  0.2892  2.7613  1.3313
10646TIP3    H253354   1.611   0.836   4.056  1.1221 -0.1708 -1.5902
10647TIP3   OH253355   5.576   0.857  14.840  0.1295 -0.3944  0.0213
10647TIP3    H153356   5.557   0.918  14.769  0.6750 -1.4747 -1.0884
10647TIP3    H253357   5.540   0.899  14.918 -1.8303  0.1640 -1.1126
10648TIP3   OH253358   0.818   6.189   4.019 -0.0630 -0.0611  0.0090
10648TIP3    H153359   0.848   6.224   4.103 -0.0799 -2.8661  1.2951
10648TIP3    H253360   0.899   6.173   3.969 -0.0129  0.8352 -0.2243
10649TIP3   OH253361   2.296   1.019   5.244  0.4486  0.2896 -0.0204
10649TIP3    H153362   2.340   0.989   5.323 -1.5059 -0.3908  0.8685
10649TIP3    H253363   2.218   1.065   5.276 -0.5567 -0.2831 -1.5370
10650TIP3   OH253364   3.704   5.139  16.146 -0.5263 -0.0345  0.0903
10650TIP3    H153365   3.781   5.090  16.177  0.8765  2.9822  1.8078
10650TIP3    H253366   3.729   5.169  16.058  0.7751  1.6781  0.9725
10651TIP3   OH253367   3.509   1.452  13.602  0.4066  0.0837  0.3570
10651TIP3    H153368   3.530   1.425  13.513 -1.8301  2.3608 -0.9463
10651TIP3    H253369   3.591   1.489  13.636  1.5419 -1.6867 -0.3259
10652TIP3   OH253370   5.933   4.781  11.366  0.0273 -0.4592  0.0285
10652TIP3    H153371   5.852   4.765  11.413  0.7438 -0.8969  1.1620
10652TIP3    H253372   5.956   4.871  11.386  0.1170 -0.5151  0.1774
10653TIP3   OH253373   3.763   0.215  16.181  0.2622  0.1355  0.6834
10653TIP3    H153374   3.844   0.171  16.156 -0.0807  0.9998 -2.2988
10653TIP3    H253375   3.789   0.305  16.200  0.1336  0.1665  0.7170
10654TIP3   OH253376   4.440   2.103  12.203  0.1880 -0.5747  0.1310
10654TIP3    H153377   4.500   2.153  12.259 -0.5218 -1.2989  1.6204
10654TIP3    H253378   4.385   2.169  12.161 -1.3006 -0.0347  2.7167
10655TIP3   OH253379   3.764   3.966   3.098 -0.0781  1.0876 -0.3045
10655TIP3    H153380   3.725   3.967   3.185 -0.4623  1.0267 -0.4709
10655TIP3    H253381   3.691   3.943   3.040  0.6939 -1.4997 -0.3840
10656TIP3   OH253382   3.413   5.870  11.400 -0.0974  0.6337  0.3756
10656TIP3    H153383   3.355   5.881  11.476  1.0333 -1.5829  1.6657
10656TIP3    H253384   3.398   5.779  11.373  1.3412  0.6378 -0.4952
10657TIP3   OH253385   5.444   4.404  14.791 -0.2065 -0.2745  0.2225
10657TIP3    H153386   5.531   4.366  14.773  0.6566  1.8027 -0.2518
10657TIP3    H253387   5.459   4.462  14.866 -0.3524  2.6387 -1.8524
10658TIP3   OH253388   3.990   2.011   0.108 -0.1687  0.4820  0.2015
10658TIP3    H153389   3.991   1.919   0.135  1.8084  0.6939  0.9736
10658TIP3    H253390   4.046   2.013   0.030 -1.1013  0.8657 -0.4748
10659TIP3   OH253391   2.434   1.117   1.540  0.3723 -0.0587  0.1280
10659TIP3    H153392   2.514   1.166   1.558  0.7628  0.1017 -1.8264
10659TIP3    H253393   2.374   1.182   1.503 -1.1151  0.0676  2.5479
10660TIP3   OH253394   0.636   5.350  15.776 -0.0267  0.3868  0.1066
10660TIP3    H153395   0.672   5.394  15.699  1.6504 -0.4788  0.3418
10660TIP3    H253396   0.634   5.257  15.752  1.1113  0.0126  1.2581
10661TIP3   OH253397   0.330   0.313  15.866  0.0792 -0.0607  0.1199
10661TIP3    H153398   0.409   0.361  15.843 -1.2179  2.0319 -0.1977
10661TIP3    H253399   0.285   0.369  15.929 -1.8952 -0.4454 -0.8693
10662TIP3   OH253400   4.531   0.150   0.080  0.6197  0.2528  0.4896
10662TIP3    H153401   4.479   0.075   0.109  0.3257  0.9006  1.7079
10662TIP3    H253402   4.504   0.222   0.137  2.0606  0.8785  0.4405
10663TIP3   OH253403   1.131   3.117  11.059  0.0159 -0.0616 -0.3917
10663TIP3    H153404   1.214   3.082  11.090  0.4060  0.5614 -0.7228
10663TIP3    H253405   1.129   3.093  10.966  0.2121  0.6488 -0.5814
10664TIP3   OH253406   6.268   2.062   6.047 -0.6146  0.0914 -0.5938
10664TIP3    H153407   6.317   2.114   5.983  0.8416  2.0115  1.8968
10664TIP3    H253408   6.252   2.123   6.120  0.0674 -2.6035  1.9916
10665TIP3   OH253409   2.512   5.057   6.625 -0.0409 -0.4388 -0.3513
10665TIP3    H153410   2.435   5.085   6.576  0.0324  0.0841 -0.1724
10665TIP3    H253411   2.521   5.122   6.695 -1.2376 -2.1870  1.5403
10666TIP3   OH253412   0.985   2.292   0.576 -0.2724 -0.0356  0.2267
10666TIP3    H153413   1.007   2.362   0.636  0.0965  2.2921 -2.4114
10666TIP3    H253414   0.906   2.252   0.612 -0.5288  1.7848  1.7840
10667TIP3   OH253415   3.736   2.731   0.892  0.8875 -0.5386 -0.0931
10667TIP3    H153416   3.689   2.784   0.957  0.1531  0.8214 -1.6536
10667TIP3    H253417   3.668   2.705   0.829  1.8714 -0.2596 -1.3006
10668TIP3   OH253418   3.005   2.367  11.024  0.0614  0.3332  0.1627
10668TIP3    H153419   2.944   2.323  11.084  1.4249 -0.5658  0.9558
10668TIP3    H253420   3.039   2.296  10.969  0.5926  0.7754 -0.0818
10669TIP3   OH253421   1.006   0.844   2.393 -0.4887 -0.1236 -0.0223
10669TIP3    H153422   1.056   0.923   2.373 -0.2914 -0.0147  0.8545
10669TIP3    H253423   1.072   0.779   2.417 -0.7825  0.3252  2.1825
10670TIP3   OH253424   1.258   6.206  16.054  0.1919  0.1372  0.5648
10670TIP3    H153425   1.208   6.158  15.988  0.3733  1.4560 -0.5862
10670TIP3    H253426   1.193   6.252  16.106  0.1415  1.1970 -0.4069
10671TIP3   OH253427   6.300   0.653  15.301  0.4447  0.3755 -0.8482
10671TIP3    H153428   6.355   0.692  15.368  1.5235 -1.6817 -0.4676
10671TIP3    H253429   6.346   0.671  15.219  0.5861  0.4566 -0.7519
10672TIP3   OH253430   4.132   0.977  15.580  0.0778 -0.3442  0.2594
10672TIP3    H153431   4.080   0.951  15.504  1.2154  3.0001 -1.9012
10672TIP3    H253432   4.086   1.053  15.616  1.2817  0.1071  0.9012
10673TIP3   OH253433   4.994   1.904  12.845 -0.6352  0.4551 -0.1425
10673TIP3    H153434   5.045   1.851  12.906 -3.4240 -1.8301  0.3911
10673TIP3    H253435   5.041   1.897  12.762  0.2342 -1.0900  0.4366
10674TIP3   OH253436   6.683   1.750  14.075  0.3268 -0.2745  0.2206
10674TIP3    H153437   6.722   1.834  14.098 -0.6168  0.7934 -1.7493
10674TIP3    H253438   6.743   1.712  14.010  0.6431 -1.0465  0.9458
10675TIP3   OH253439   4.732   2.375   2.785  0.3806 -0.2981 -0.0702
10675TIP3    H153440   4.644   2.402   2.809 -0.4259 -0.1053 -2.9462
10675TIP3    H253441   4.780   2.457   2.774  0.4517 -0.3495 -0.1405
10676TIP3   OH253442   5.820   2.231  15.634 -0.3736  0.4548 -0.3595
10676TIP3    H153443   5.845   2.142  15.608  2.0964  1.1420 -0.6301
10676TIP3    H253444   5.833   2.232  15.729  1.0150  0.8879 -0.5334
10677TIP3   OH253445   5.067   1.920   3.970 -0.1281 -0.3620 -0.3945
10677TIP3    H153446   5.067   2.008   4.006  0.6369 -0.0674 -1.0859
10677TIP3    H253447   5.032   1.930   3.881 -1.9612 -1.0699  0.1900
10678TIP3   OH253448   0.733   6.793  12.279  0.5089 -0.0409  0.8456
10678TIP3    H153449   0.716   6.720  12.219  0.4181  1.2198 -0.7542
10678TIP3    H253450   0.766   6.752  12.358  0.0415 -1.8417  0.1626
10679TIP3   OH253451   1.027   4.629   0.024 -0.0105  1.2124 -0.0297
10679TIP3    H153452   1.003   4.539   0.045 -0.3780  0.7097 -2.3290
10679TIP3    H253453   0.944   4.675   0.017  0.1904  1.8444  1.4627
10680TIP3   OH253454   5.090   3.172  15.795 -0.0774  0.1255  0.4877
10680TIP3    H153455   5.086   3.256  15.750  1.2208 -0.1712 -0.2426
10680TIP3    H253456   5.102   3.194  15.887 -3.1655  0.7468  0.8338
10681TIP3   OH253457   6.484   3.050   3.072 -0.2278 -0.3286  0.9649
10681TIP3    H153458   6.578   3.069   3.070 -0.1940 -0.5352 -0.4166
10681TIP3    H253459   6.473   2.990   3.145  0.7656 -0.5108  0.9812
10682TIP3   OH253460   5.438   4.089  14.378  0.2709  0.0115  0.4712
10682TIP3    H153461   5.517   4.051  14.340 -0.0299 -1.0816  0.8800
10682TIP3    H253462   5.371   4.022  14.364 -1.2749  1.8886 -2.1480
10683TIP3   OH253463   5.905   5.361  16.974  0.4773 -0.1303  0.3545
10683TIP3    H153464   5.989   5.360  17.019  0.6595 -1.4029  0.0145
10683TIP3    H253465   5.874   5.451  16.984  3.2674  1.2983 -2.0933
10684TIP3   OH253466   1.099   6.588  13.357  0.0189  0.3465  0.0311
10684TIP3    H153467   1.021   6.532  13.349 -0.7444  1.5561 -1.5363
10684TIP3    H253468   1.161   6.550  13.296  0.1600  0.2036  0.2601
10685TIP3   OH253469   5.119   1.980  13.645  0.5765 -0.8562  0.3086
10685TIP3    H153470   5.164   2.027  13.716 -0.7801 -0.4698  0.9525
10685TIP3    H253471   5.185   1.970  13.577  1.7467 -0.6830  1.3834
10686TIP3   OH253472   3.774   6.196   0.794 -0.4980 -0.3896  0.5005
10686TIP3    H153473   3.786   6.145   0.713  2.2061  1.1915 -0.2269
10686TIP3    H253474   3.835   6.156   0.855  2.6830  2.5282 -0.4810
10687TIP3   OH253475   3.547   2.298  16.399  0.1896 -0.0220  0.1079
10687TIP3    H153476   3.454   2.312  16.416  0.0415 -1.1724  0.3030
10687TIP3    H253477   3.571   2.223  16.453  1.1694  0.0886 -0.1484
10688TIP3   OH253478   0.520   3.797  13.250 -0.0689 -0.1485 -0.5740
10688TIP3    H153479   0.466   3.876  13.248  0.7673  0.4545 -0.2065
10688TIP3    H253480   0.555   3.795  13.340  0.4083 -0.5849 -0.7640
10689TIP3   OH253481   3.031   6.343   3.637  0.8422  0.0112  0.0195
10689TIP3    H153482   2.960   6.339   3.701  0.7116 -0.5916 -0.1573
10689TIP3    H253483   3.024   6.261   3.588  2.8768 -1.0133  1.3019
10690TIP3   OH253484   0.814   3.469   4.812  0.2553  0.5457 -0.5401
10690TIP3    H153485   0.805   3.563   4.796  1.4073  0.6835 -0.4463
10690TIP3    H253486   0.907   3.456   4.828 -0.0576 -0.4306  0.6651
10691TIP3   OH253487   5.201   5.099   2.300  0.1070 -0.1717 -0.3815
10691TIP3    H153488   5.273   5.043   2.270 -0.3207 -1.1158  0.3056
10691TIP3    H253489   5.190   5.163   2.230  2.0839  0.4631 -0.1934
10692TIP3   OH253490   6.693   1.436  16.435 -0.4210  0.6176 -0.0814
10692TIP3    H153491   6.709   1.375  16.363  0.0828  1.7067 -0.9243
10692TIP3    H253492   6.655   1.513  16.393 -1.2267  0.8253  0.9805
10693TIP3   OH253493   0.100   3.433  11.470 -0.1655 -0.1771  0.2310
10693TIP3    H153494   0.095   3.423  11.375  0.5393 -0.2744  0.1975
10693TIP3    H253495   0.085   3.527  11.485  1.7928  0.2349 -0.1536
10694TIP3   OH253496   3.293   0.567   3.626 -0.6079  0.0683 -0.4448
10694TIP3    H153497   3.284   0.650   3.579 -0.4415 -0.1880 -0.9302
10694TIP3    H253498   3.287   0.591   3.718 -1.5671  0.4990 -0.6097
10695TIP3   OH253499   0.140   5.394  14.397  0.4877 -0.1159 -0.2961
10695TIP3    H153500   0.051   5.363  14.414  0.9101 -1.2068  0.0414
10695TIP3    H253501   0.137   5.430  14.308 -0.3168 -0.0164 -0.2317
10696TIP3   OH253502   3.174   0.122   2.779 -0.3248 -0.2949  0.4157
10696TIP3    H153503   3.137   0.033   2.774 -0.2923 -0.3355  0.8539
10696TIP3    H253504   3.260   0.109   2.818  0.1166 -0.1852 -0.4802
10697TIP3   OH253505   0.434   6.011  15.404 -0.0748 -0.4261  0.0771
10697TIP3    H153506   0.447   5.919  15.380 -1.8125 -0.9771  1.0822
10697TIP3    H253507   0.414   6.009  15.498 -0.6770  0.9313 -0.0018
10698TIP3   OH253508   6.773   2.930   0.302  0.3399 -0.1544 -0.0852
10698TIP3    H153509   6.859   2.908   0.337  1.2193  2.3050 -0.5227
10698TIP3    H253510   6.719   2.947   0.379  1.1237  1.2479  0.1838
10699TIP3   OH253511   0.500   6.505  12.935  0.6911  0.0229  0.4805
10699TIP3    H153512   0.416   6.505  12.889  1.1614 -0.1139 -0.4175
10699TIP3    H253513   0.478   6.490  13.026 -0.1678 -1.4707  0.0606
10700TIP3   OH253514   1.656   3.787  14.012 -0.3424 -0.4391  0.0475
10700TIP3    H153515   1.599   3.860  14.040 -0.9538 -0.3993 -1.2461
10700TIP3    H253516   1.680   3.744  14.094  0.0709  1.2269  0.8596
10701TIP3   OH253517   5.257   5.566   0.555  0.4205  0.2487  0.1111
10701TIP3    H153518   5.180   5.513   0.579  0.3218 -0.1204 -0.9930
10701TIP3    H253519   5.282   5.608   0.637  1.5393 -2.7846  1.4960
10702TIP3   OH253520   6.328   0.868   5.641  0.5278 -0.7438  0.5080
10702TIP3    H153521   6.381   0.919   5.702  0.2891 -1.0109  0.9477
10702TIP3    H253522   6.238   0.886   5.667  0.4344 -1.1000  0.4326
10703TIP3   OH253523   1.315   2.845  12.289  0.0434  0.2332 -0.5464
10703TIP3    H153524   1.351   2.859  12.377 -0.6585  1.7739 -0.4653
10703TIP3    H253525   1.391   2.833  12.233  0.6000  1.2859 -0.0366
10704TIP3   OH253526   1.087   1.717  11.416 -0.1362  0.4057  0.4360
10704TIP3    H153527   1.035   1.742  11.340 -0.0609  0.9557  0.5596
10704TIP3    H253528   1.022   1.691  11.482 -0.1651 -3.1772 -0.8018
10705TIP3   OH253529   6.715   0.098   2.694 -0.4402 -0.1249  0.4778
10705TIP3    H153530   6.745   0.121   2.782  0.7700 -0.7142  0.2396
10705TIP3    H253531   6.795   0.089   2.643 -1.0474 -1.2630 -0.3226
10706TIP3   OH253532   5.659   3.306  11.322 -0.1112 -0.2399 -0.3421
10706TIP3    H153533   5.683   3.219  11.291 -1.7290 -1.0527  0.5639
10706TIP3    H253534   5.665   3.301  11.417 -1.0691  0.3426 -0.2298
10707TIP3   OH253535   1.237   3.849   1.809  0.1280  0.1327  0.3252
10707TIP3    H153536   1.296   3.799   1.865  2.6143  1.9677 -0.4787
10707TIP3    H253537   1.292   3.880   1.737 -1.6112  2.6020 -0.0730
10708TIP3   OH253538   0.327   4.205   5.113 -0.1179  0.0255  0.2516
10708TIP3    H153539   0.283   4.290   5.117 -0.5950 -0.1565 -0.8548
10708TIP3    H253540   0.391   4.208   5.184 -0.4854  1.1100  0.5528
10709TIP3   OH253541   1.500   6.103  14.606 -0.2813  0.4788  0.1463
10709TIP3    H153542   1.564   6.044  14.566  1.4980  2.1943  0.2745
10709TIP3    H253543   1.549   6.184  14.622 -1.9474  1.1941  2.1899
10710TIP3   OH253544   4.166   1.348   2.642  0.3278  0.3711  0.6085
10710TIP3    H153545   4.153   1.406   2.717 -2.5431 -0.2435  0.6826
10710TIP3    H253546   4.126   1.265   2.667  1.0883 -0.4969 -0.8738
10711TIP3   OH253547   5.983   5.713   0.400 -0.8047 -0.2577 -0.2844
10711TIP3    H153548   5.921   5.787   0.402 -1.7419 -0.9005 -2.4328
10711TIP3    H253549   6.045   5.735   0.331  1.1173  0.1000  1.4508
10712TIP3   OH253550   5.053   6.653  14.166 -0.1885 -0.2884 -0.1108
10712TIP3    H153551   5.005   6.689  14.240  0.9288 -0.5615  0.7864
10712TIP3    H253552   4.992   6.592  14.125 -0.3298 -1.3059  1.5321
10713TIP3   OH253553   1.247   5.916   6.659 -0.1927  0.5334  0.4240
10713TIP3    H153554   1.283   5.867   6.733 -0.6299 -0.6972 -0.1513
10713TIP3    H253555   1.157   5.937   6.685 -0.4608 -0.2058  0.1117
10714TIP3   OH253556   0.306   4.578   2.616 -0.1194 -0.0935  0.2545
10714TIP3    H153557   0.357   4.534   2.684 -0.8469 -1.6677 -0.1630
10714TIP3    H253558   0.227   4.523   2.606 -1.0508  1.2976 -0.3459
10715TIP3   OH253559   5.371   3.151  14.437 -0.3124 -0.3196 -0.9037
10715TIP3    H153560   5.460   3.114  14.436  0.6520  1.8494 -1.6765
10715TIP3    H253561   5.314   3.075  14.429  1.3406 -2.0329  1.8980
10716TIP3   OH253562   1.446   2.410   4.364 -0.7572  0.1377  0.2247
10716TIP3    H153563   1.541   2.415   4.376 -0.2953 -1.9471 -1.8417
10716TIP3    H253564   1.431   2.443   4.275 -1.6074 -1.9239 -0.4499
10717TIP3   OH253565   6.088   1.496  16.526  0.6115 -0.3046 -0.5240
10717TIP3    H153566   6.047   1.429  16.472 -0.1222  0.5826 -1.1063
10717TIP3    H253567   6.169   1.456  16.557 -0.5684 -2.0526  0.5043
10718TIP3   OH253568   2.857   5.717   5.355  0.4557 -0.3295  0.3056
10718TIP3    H153569   2.894   5.662   5.286  1.5523  1.1576 -0.3428
10718TIP3    H253570   2.806   5.784   5.308 -0.9700 -0.8295  1.0791
10719TIP3   OH253571   4.024   5.047   0.465 -0.5074 -0.2666 -0.0099
10719TIP3    H153572   4.011   5.129   0.418 -1.5817 -0.9432 -0.9500
10719TIP3    H253573   3.990   5.064   0.553 -0.9962  0.2117 -0.2859
10720TIP3   OH253574   3.698   1.788  14.285  0.4606  0.5512  0.1095
10720TIP3    H153575   3.606   1.805  14.308  0.9075 -1.1034  3.9128
10720TIP3    H253576   3.741   1.873  14.292 -0.4221  0.9751  0.5520
10721TIP3   OH253577   0.106   2.963   0.025 -0.0471 -0.6362  0.2753
10721TIP3    H153578   0.189   2.941   0.067  0.1140 -1.5515 -0.4857
10721TIP3    H253579   0.048   2.988   0.097  0.9216  0.1531  0.8017
10722TIP3   OH253580   0.058   5.470   1.348 -0.4791  0.0083  0.0762
10722TIP3    H153581   0.057   5.428   1.262 -0.3917 -0.0165  0.0869
10722TIP3    H253582   0.073   5.398   1.410 -2.8769 -0.3506  0.3331
10723TIP3   OH253583   2.806   2.125  11.616  0.1552 -0.6297  0.4864
10723TIP3    H153584   2.747   2.176  11.560 -0.5192 -1.2162  0.6521
10723TIP3    H253585   2.848   2.063  11.557  0.8951  0.0252  0.3044
10724TIP3   OH253586   2.193   3.313   4.221  0.2991  0.1653 -0.3563
10724TIP3    H153587   2.193   3.317   4.125  1.6611 -0.0275 -0.3779
10724TIP3    H253588   2.168   3.401   4.249 -1.1795 -0.0517 -0.8631
10725TIP3   OH253589   1.999   1.140  13.305 -0.0401 -0.5132  0.6168
10725TIP3    H153590   2.058   1.071  13.334  0.4685 -0.5890 -0.5497
10725TIP3    H253591   1.933   1.095  13.252 -0.0967 -0.1967  0.4145
10726TIP3   OH253592   6.749   0.543  16.557  0.5885 -0.1694 -0.6225
10726TIP3    H153593   6.842   0.538  16.582  0.6370 -0.3106 -0.8316
10726TIP3    H253594   6.728   0.455  16.527 -0.0165 -0.5551  0.8475
10727TIP3   OH253595   1.618   5.145   4.049 -0.5372 -0.1340  0.1907
10727TIP3    H153596   1.710   5.148   4.025 -0.5800 -1.9196 -0.2987
10727TIP3    H253597   1.595   5.053   4.046 -1.6902 -0.0078  2.8565
10728TIP3   OH253598   2.061   3.845  11.449  0.2944 -0.4398  0.0813
10728TIP3    H153599   2.074   3.903  11.374  1.2018 -1.0398 -0.2409
10728TIP3    H253600   2.112   3.766  11.428  2.4247  0.2123  2.2645
10729TIP3   OH253601   3.604   0.104  12.194 -0.1212 -0.3192  0.4237
10729TIP3    H153602   3.521   0.145  12.171  0.6197 -0.0971 -2.1477
10729TIP3    H253603   3.623   0.137  12.283 -1.8455  1.0982  0.3219
10730TIP3   OH253604   4.131   6.478  13.587 -0.7155  0.1700 -0.0576
10730TIP3    H153605   4.220   6.494  13.618 -0.6133 -2.5326  1.2920
10730TIP3    H253606   4.077   6.483  13.666 -1.4330 -0.4399 -0.4970
10731TIP3   OH253607   2.091   3.124   3.956 -0.6558  0.0212 -0.6327
10731TIP3    H153608   2.111   3.212   3.925 -1.8412  0.1753 -0.9916
10731TIP3    H253609   2.049   3.081   3.882 -1.2583 -0.4238 -0.0470
10732TIP3   OH253610   6.599   4.801  14.541 -0.9280 -0.3923  0.1844
10732TIP3    H153611   6.526   4.829  14.485 -1.2163 -1.4924 -0.0121
10732TIP3    H253612   6.674   4.851  14.508 -1.7852  1.6480  1.1494
10733TIP3   OH253613   2.942   0.956   2.719 -0.1536 -0.0118  0.1326
10733TIP3    H153614   3.022   0.918   2.681 -1.3965 -1.7988 -0.8113
10733TIP3    H253615   2.891   0.880   2.748 -2.5458  0.9088 -1.4006
10734TIP3   OH253616   2.056   2.985  11.768 -0.1027  0.0107 -0.2042
10734TIP3    H153617   2.070   3.079  11.766  0.9907 -0.1214  0.5158
10734TIP3    H253618   2.142   2.948  11.785 -1.0127 -0.9470  2.8853
10735TIP3   OH253619   0.918   1.530  16.345 -0.1184 -0.3671 -0.3682
10735TIP3    H153620   0.846   1.513  16.284  0.6519 -1.1057 -1.1027
10735TIP3    H253621   0.990   1.561  16.289  0.7038 -1.3632  0.0861
10736TIP3   OH253622   3.374   1.287   1.467 -0.0870 -0.2703 -0.0994
10736TIP3    H153623   3.373   1.367   1.520 -2.0402 -0.8882  0.9345
10736TIP3    H253624   3.465   1.275   1.442  0.3898  1.7946  0.4541
10737TIP3   OH253625   6.555   3.867   5.257 -0.7350 -0.3233 -0.6055
10737TIP3    H153626   6.529   3.923   5.330 -1.3741 -1.0868 -0.2378
10737TIP3    H253627   6.620   3.919   5.210 -0.7640  0.4288  0.1496
10738TIP3   OH253628   0.138   0.263  11.327  0.7638 -0.2017 -0.1479
10738TIP3    H153629   0.055   0.216  11.321  0.1370  0.3973  2.5445
10738TIP3    H253630   0.192   0.208  11.384  1.4713  0.4012 -0.2220
10739TIP3   OH253631   0.427   5.388  16.891  0.3095 -0.7078  0.4810
10739TIP3    H153632   0.349   5.414  16.840  0.3376 -1.8476 -0.1601
10739TIP3    H253633   0.410   5.423  16.978  0.8755  2.5177 -0.5685
10740TIP3   OH253634   6.354   0.560   1.012  0.0646 -0.3442  0.0043
10740TIP3    H153635   6.323   0.470   1.002 -1.5284  0.2395 -0.6400
10740TIP3    H253636   6.397   0.561   1.098 -1.0877 -1.3938  0.6250
10741TIP3   OH253637   5.048   5.643   4.799 -0.0054  0.6150  0.3464
10741TIP3    H153638   5.068   5.573   4.736  2.2454  0.5818  1.0263
10741TIP3    H253639   4.961   5.621   4.832 -1.0372  0.3368 -2.3132
10742TIP3   OH253640   3.698   1.305  12.269 -0.2267  0.2580 -0.7278
10742TIP3    H153641   3.604   1.303  12.289 -0.1968 -0.7858 -0.6741
10742TIP3    H253642   3.714   1.223  12.222  0.7054  0.3378 -0.5564
10743TIP3   OH253643   1.407   3.203  16.704  0.0733 -0.3091  0.3955
10743TIP3    H153644   1.388   3.289  16.742 -0.5135  0.4660 -1.5596
10743TIP3    H253645   1.459   3.222  16.626 -0.4159 -1.6905 -0.2935
10744TIP3   OH253646   5.468   2.035   1.953 -0.1201 -0.0078 -0.9489
10744TIP3    H153647   5.538   1.998   2.007  0.3970 -0.9227 -2.2185
10744TIP3    H253648   5.403   1.965   1.946 -2.3612  1.5193  2.0746
10745TIP3   OH253649   0.602   5.082  15.041 -0.1726  0.0068  0.1739
10745TIP3    H153650   0.621   5.049  14.954  0.1716 -1.3957  0.7480
10745TIP3    H253651   0.675   5.140  15.061  0.5000 -0.7885  0.0755
10746TIP3   OH253652   3.756   6.378  13.027 -0.2834  0.2156 -0.3517
10746TIP3    H153653   3.809   6.333  12.961 -2.0706  1.5457 -2.8184
10746TIP3    H253654   3.821   6.417  13.086  1.3676 -1.5188 -0.9002
10747TIP3   OH253655   2.932   2.405   0.256  0.3198  0.6529  0.3458
10747TIP3    H153656   2.906   2.470   0.321 -0.1961 -0.8194  1.6930
10747TIP3    H253657   2.849   2.365   0.228  0.7536 -1.6885  2.0743
10748TIP3   OH253658   5.935   3.310  13.765 -0.4080 -0.1958 -0.2801
10748TIP3    H153659   5.918   3.332  13.673 -2.5940 -0.1406  0.0967
10748TIP3    H253660   5.934   3.394  13.810 -2.5688 -0.4547  0.2375
10749TIP3   OH253661   3.377   5.349   2.424  0.0320  0.1689 -0.1256
10749TIP3    H153662   3.328   5.431   2.422 -1.6958 -0.8097 -1.1604
10749TIP3    H253663   3.432   5.351   2.346  0.5161  0.6262  0.2238
10750TIP3   OH253664   5.975   2.566  14.789  0.2585 -0.0959 -0.5866
10750TIP3    H153665   5.920   2.585  14.713  0.9332 -0.4942 -1.1880
10750TIP3    H253666   5.966   2.472  14.802  1.1577 -0.2554 -0.9968
10751TIP3   OH253667   6.748   0.636  10.647  0.4096 -0.8759 -0.4361
10751TIP3    H153668   6.828   0.603  10.686  0.9796 -0.3595 -1.1465
10751TIP3    H253669   6.721   0.568  10.585  1.9409  0.1759 -2.3872
10752TIP3   OH253670   1.541   2.880  13.104 -0.0309 -0.0134 -0.2197
10752TIP3    H153671   1.498   2.905  13.186  1.0355 -1.1676  0.7398
10752TIP3    H253672   1.487   2.918  13.035 -0.6672  1.4259  1.0304
10753TIP3   OH253673   1.146   4.584  11.035 -0.1306  0.8449  0.1136
10753TIP3    H153674   1.061   4.622  11.014  0.4896  1.3325 -1.6970
10753TIP3    H253675   1.205   4.617  10.967  1.4608  0.3197  1.1697
10754TIP3   OH253676   6.697   1.314   0.094  0.0005 -0.4316  0.2819
10754TIP3    H153677   6.714   1.259   0.171  0.6580  1.9640  1.9552
10754TIP3    H253678   6.784   1.334   0.060 -0.2446 -0.5262 -0.4085
10755TIP3   OH253679   4.171   3.592  10.890 -0.4686 -0.0907  0.0547
10755TIP3    H153680   4.118   3.606  10.812  0.7014  0.2808 -0.7106
10755TIP3    H253681   4.262   3.603  10.859  0.1518 -2.1672  0.9777
10756TIP3   OH253682   5.380   0.218  11.386  0.6083  0.0908  0.5951
10756TIP3    H153683   5.414   0.146  11.334  1.2854  0.6715  0.2312
10756TIP3    H253684   5.416   0.204  11.474  1.5408  0.5238  0.2888
10757TIP3   OH253685   0.278   4.408   5.848  0.0283 -0.5774  0.2498
10757TIP3    H153686   0.346   4.446   5.903 -1.7071  1.5240  1.0724
10757TIP3    H253687   0.253   4.478   5.788 -1.8244 -1.0457  0.3958
10758TIP3   OH253688   4.903   6.226   1.096 -0.2707 -0.6182  0.5764
10758TIP3    H153689   4.970   6.201   1.160 -0.9096 -2.3747  0.6141
10758TIP3    H253690   4.931   6.185   1.015 -0.2718  0.3317  0.0767
10759TIP3   OH253691   0.015   2.051  14.408 -0.3380  0.3830 -0.6709
10759TIP3    H153692   0.015   1.974  14.465 -0.5413 -0.4453 -1.7563
10759TIP3    H253693   0.091   2.039  14.351 -1.3392  0.1053 -1.9818
10760TIP3   OH253694   5.696   4.563   4.994  0.0308 -0.0609 -0.7915
10760TIP3    H153695   5.732   4.642   5.035  0.6001 -1.3031  1.2792
10760TIP3    H253696   5.681   4.503   5.068  2.9952 -3.2586 -2.4900
10761TIP3   OH253697   6.344   0.818   3.909 -0.3548 -0.2988 -0.6295
10761TIP3    H153698   6.271   0.880   3.914 -0.0665  0.0024 -0.0261
10761TIP3    H253699   6.374   0.824   3.819 -1.4452 -0.8662 -1.0544
10762TIP3   OH253700   5.117   2.529   2.336  0.4899 -0.4401 -0.0834
10762TIP3    H153701   5.126   2.433   2.335  1.5797 -0.3595  0.6042
10762TIP3    H253702   5.022   2.544   2.338  0.2918 -1.5598  2.7217
10763TIP3   OH253703   0.952   3.425   3.174 -0.3175  0.5875 -0.2232
10763TIP3    H153704   0.997   3.441   3.091 -0.0184  2.7602  0.2941
10763TIP3    H253705   0.981   3.337   3.200  1.6527  0.9101 -1.1377
10764TIP3   OH253706   1.907   0.749  12.871 -0.8979 -0.2057  0.4361
10764TIP3    H153707   1.881   0.788  12.787  2.8291  0.9853 -0.3169
10764TIP3    H253708   1.933   0.660  12.849 -0.2022  0.0114  0.3728
10765TIP3   OH253709   5.815   5.588  14.257  0.2456 -0.5276 -0.0834
10765TIP3    H153710   5.836   5.612  14.167  2.4792 -2.0791 -0.0524
10765TIP3    H253711   5.733   5.538  14.250 -0.6593  1.0144 -0.9631
10766TIP3   OH253712   0.893   2.126  13.801 -0.1029 -0.1109 -0.5323
10766TIP3    H153713   0.843   2.203  13.773  0.1614 -0.2603 -1.4514
10766TIP3    H253714   0.852   2.100  13.883 -1.4910 -0.1636 -1.2077
10767TIP3   OH253715   0.307   1.769  14.858  1.2639 -0.4644  0.1260
10767TIP3    H153716   0.234   1.827  14.841  1.0955  0.0093  2.1973
10767TIP3    H253717   0.383   1.827  14.869  0.9255 -0.4229  3.1309
10768TIP3   OH253718   5.475   4.649  16.511  0.2065 -0.4028 -0.5465
10768TIP3    H153719   5.464   4.598  16.591  1.1428 -1.5911 -1.1510
10768TIP3    H253720   5.388   4.687  16.495 -0.5537 -1.9016 -0.1441
10769TIP3   OH253721   5.094   3.273   5.272 -0.2177 -0.3861 -0.1813
10769TIP3    H153722   5.052   3.187   5.263 -0.5658 -0.4981  1.9596
10769TIP3    H253723   5.030   3.335   5.238 -0.9589 -0.8099  0.4001
10770TIP3   OH253724   2.482   5.888  15.195  0.3086 -0.2606 -0.2142
10770TIP3    H153725   2.569   5.896  15.232  1.3338 -2.2140 -2.0321
10770TIP3    H253726   2.462   5.976  15.162  1.3436  0.3212  0.6462
10771TIP3   OH253727   5.925   0.042  16.031 -0.4234  0.0920  0.5565
10771TIP3    H153728   5.966  -0.013  16.098  0.8003 -0.0202 -0.2398
10771TIP3    H253729   5.832   0.019  16.034 -0.1849 -0.8321  1.3496
10772TIP3   OH253730   3.107   3.690  16.632  0.3649 -0.0515 -0.5680
10772TIP3    H153731   3.054   3.701  16.552 -1.1151  1.0484  0.5102
10772TIP3    H253732   3.112   3.596  16.644 -1.4698 -0.1974 -0.6673
10773TIP3   OH253733   1.780   3.516   3.826 -0.1871  0.1441 -0.0969
10773TIP3    H153734   1.695   3.472   3.824 -0.6173  0.9557 -0.1580
10773TIP3    H253735   1.774   3.584   3.759  0.5409  0.1514 -0.1608
10774TIP3   OH253736   4.662   6.794  11.581  0.1664  0.1028 -0.0372
10774TIP3    H153737   4.643   6.859  11.649 -1.3077  0.0776 -0.3781
10774TIP3    H253738   4.739   6.827  11.536  0.3438  0.8233  0.7727
10775TIP3   OH253739   2.696   3.002   6.379 -0.0923 -0.2754  0.0664
10775TIP3    H153740   2.680   2.982   6.287 -0.6385  0.7818 -0.0887
10775TIP3    H253741   2.752   3.079   6.377 -0.4183 -0.0184  0.6143
10776TIP3   OH253742   5.430   0.091  12.248 -0.9062 -0.1628  0.7999
10776TIP3    H153743   5.519   0.059  12.266 -0.0752  1.5420 -0.1300
10776TIP3    H253744   5.378   0.058  12.322  0.7186 -0.2798  1.9454
10777TIP3   OH253745   0.210   5.482   4.939 -0.2064  0.9607  0.0802
10777TIP3    H153746   0.201   5.559   4.995 -1.6492  1.3932 -0.6962
10777TIP3    H253747   0.145   5.420   4.972  0.7023  0.1923  0.4797
10778TIP3   OH253748   0.724   4.355   5.284  0.0867  0.5945  0.1941
10778TIP3    H153749   0.649   4.331   5.230 -0.5644  1.1093  0.8377
10778TIP3    H253750   0.685   4.396   5.361  1.0892  4.4103 -1.1191
10779TIP3   OH253751   6.394   3.547   5.732  0.1701  0.1078 -0.6338
10779TIP3    H153752   6.377   3.638   5.708 -0.2670  0.6009  1.3097
10779TIP3    H253753   6.489   3.542   5.742  0.0928  0.7657  0.6318
10780TIP3   OH253754   6.495   6.187  15.257  0.0692 -0.4200  0.4075
10780TIP3    H153755   6.579   6.148  15.234  0.4719  0.4674  0.3189
10780TIP3    H253756   6.434   6.153  15.192  0.4760 -0.6404  0.1375
10781TIP3   OH253757   5.848   0.418  11.156  0.1403  0.1057  0.1087
10781TIP3    H153758   5.783   0.385  11.219  0.1938  0.0308  0.1249
10781TIP3    H253759   5.860   0.510  11.180 -0.3776  0.2723 -0.2433
10782TIP3   OH253760   1.706   1.169   1.494 -0.3166 -0.2023 -0.8333
10782TIP3    H153761   1.687   1.160   1.401  0.1658 -1.0357 -0.8642
10782TIP3    H253762   1.696   1.080   1.529  2.1136 -0.4603 -0.6198
10783TIP3   OH253763   2.934   1.534   0.683 -0.2447 -0.0782  0.6461
10783TIP3    H153764   2.908   1.468   0.747 -3.3147  0.2855 -0.0686
10783TIP3    H253765   2.913   1.495   0.598  0.5441  0.7501  0.0547
10784TIP3   OH253766   4.629   3.493  16.279 -0.1918 -0.0263 -0.2128
10784TIP3    H153767   4.695   3.449  16.225 -0.8183 -2.1048  0.6334
10784TIP3    H253768   4.672   3.505  16.364 -0.3207  0.1974 -0.1788
10785TIP3   OH253769   4.017   6.676   4.340  0.2984  0.3705 -0.4216
10785TIP3    H153770   4.105   6.700   4.369  0.1519  0.0493  0.3124
10785TIP3    H253771   3.961   6.691   4.416 -0.0623 -0.6757 -0.4602
10786TIP3   OH253772   0.030   2.615   0.426 -0.9288 -0.3936  0.5444
10786TIP3    H153773   0.076   2.577   0.351 -0.7169  1.0380 -0.0938
10786TIP3    H253774  -0.051   2.565   0.432 -2.0970  0.9756 -2.2018
10787TIP3   OH253775   0.991   4.956   5.329 -0.1884  0.6388  0.1266
10787TIP3    H153776   1.008   4.863   5.315  0.9400  0.5518  1.8042
10787TIP3    H253777   0.990   4.994   5.241 -1.0505 -0.9925 -0.6087
10788TIP3   OH253778   0.040   2.380  11.919 -0.2674  0.3603  0.1936
10788TIP3    H153779  -0.056   2.386  11.922 -0.3262  0.1465 -0.7026
10788TIP3    H253780   0.065   2.338  12.001 -0.8586  1.3238  0.8856
10789TIP3   OH253781   6.801   5.576   4.718 -0.4954 -0.3795 -0.4686
10789TIP3    H153782   6.871   5.641   4.730 -0.7688  0.0372 -1.0501
10789TIP3    H253783   6.741   5.618   4.656 -2.1084 -0.0491  1.2376
10790TIP3   OH253784   6.137   5.787   3.180  0.5038  0.4648  0.1824
10790TIP3    H153785   6.047   5.793   3.212  0.7573  1.0650  0.8000
10790TIP3    H253786   6.154   5.693   3.175  0.0001  0.3517  0.4976
10791TIP3   OH253787   4.663   2.093   4.556  0.4067  0.4759 -0.2942
10791TIP3    H153788   4.659   2.098   4.651 -2.2401 -0.2622 -0.2812
10791TIP3    H253789   4.723   2.163   4.531 -1.8421  3.3941  1.7694
10792TIP3   OH253790   1.297   6.379  12.331 -0.2825 -0.5338 -0.2491
10792TIP3    H153791   1.258   6.293  12.347 -0.7393 -0.5479 -1.3324
10792TIP3    H253792   1.243   6.417  12.262  0.4915  0.2360 -0.4477
10793TIP3   OH253793   2.417   6.490  11.968 -0.2630 -0.0124  0.7524
10793TIP3    H153794   2.492   6.536  11.930 -0.2274  0.1902  1.0679
10793TIP3    H253795   2.427   6.501  12.062 -0.9148  0.3781  0.7835
10794TIP3   OH253796   4.352   5.889   3.539  0.1547  0.2318 -0.4057
10794TIP3    H153797   4.290   5.902   3.610 -0.0849 -0.5771 -0.4587
10794TIP3    H253798   4.414   5.962   3.547  0.3984 -0.1041  0.9139
10795TIP3   OH253799   3.738   6.528   3.058 -0.2957 -0.4607 -0.9099
10795TIP3    H153800   3.745   6.575   2.975  1.9666  1.3576  0.2150
10795TIP3    H253801   3.657   6.561   3.097  0.4621  1.4585 -0.8391
10796TIP3   OH253802   4.391   1.390  15.382  0.4387  0.0779  0.1797
10796TIP3    H153803   4.445   1.453  15.429  0.1513  0.5226 -0.0776
10796TIP3    H253804   4.305   1.396  15.424  1.1033 -2.1949  2.0420
10797TIP3   OH253805   1.742   0.634  14.648 -0.3634  0.2238 -0.3952
10797TIP3    H153806   1.668   0.687  14.677  1.5113  2.4140  0.6921
10797TIP3    H253807   1.759   0.661  14.558  0.7833  1.8073  0.2580
10798TIP3   OH253808   6.372   1.316   5.733  0.5849  0.3999  0.3189
10798TIP3    H153809   6.313   1.253   5.693  1.3701  0.0907 -0.3989
10798TIP3    H253810   6.334   1.334   5.819 -1.0970  1.0134 -0.5140
10799TIP3   OH253811   4.795   2.818   1.131 -0.6995 -0.0859  0.8723
10799TIP3    H153812   4.806   2.724   1.118 -0.5606 -0.2455  2.0438
10799TIP3    H253813   4.712   2.839   1.088 -0.1077 -0.4881 -0.5274
10800TIP3   OH253814   3.060   6.262   1.921  0.2597  0.5099  0.5153
10800TIP3    H153815   3.148   6.265   1.960  0.4341  0.0452  0.1665
10800TIP3    H253816   3.023   6.179   1.952  0.3513  0.1957 -0.1943
10801TIP3   OH253817   6.523   2.592   2.130  0.0532  0.6674 -0.3125
10801TIP3    H153818   6.519   2.498   2.147  0.5063  0.2772 -2.1253
10801TIP3    H253819   6.596   2.623   2.184 -0.8674  0.2373  1.2437
10802TIP3   OH253820   5.203   2.638  13.038  0.4382 -0.5474  0.2615
10802TIP3    H153821   5.128   2.691  13.009  0.3539 -0.9264 -0.2431
10802TIP3    H253822   5.204   2.648  13.133 -0.3922 -0.7100  0.2989
10803TIP3   OH253823   4.394   3.223  13.239 -0.3019  0.4419 -0.1193
10803TIP3    H153824   4.392   3.135  13.200 -2.8519  1.2609 -2.0811
10803TIP3    H253825   4.420   3.208  13.330  1.4496 -2.0707 -0.9266
10804TIP3   OH253826   4.873   3.062   3.438  0.5451 -0.7085 -0.1255
10804TIP3    H153827   4.926   3.053   3.359  2.1471  0.3206  0.7733
10804TIP3    H253828   4.923   3.016   3.505  1.6418  2.3205  1.3080
10805TIP3   OH253829   4.675   0.225   2.228 -0.0728 -0.2312 -0.3318
10805TIP3    H153830   4.764   0.241   2.196  0.2193 -2.0735 -0.5274
10805TIP3    H253831   4.685   0.214   2.322  0.5214 -3.7783 -0.6750
10806TIP3   OH253832   1.888   3.458   1.197 -0.3298  0.3409 -0.3087
10806TIP3    H153833   1.898   3.375   1.150  1.0923  0.8344 -0.9472
10806TIP3    H253834   1.794   3.475   1.196 -0.6352 -1.1565 -0.3336
10807TIP3   OH253835   3.272   6.426   4.427  0.1780 -0.3685 -0.3738
10807TIP3    H153836   3.256   6.518   4.408 -2.6152 -0.4765  0.8365
10807TIP3    H253837   3.267   6.421   4.523 -1.1184 -1.9281 -0.4811
10808TIP3   OH253838   5.665   4.318  15.634 -0.5097  0.0186 -0.1792
10808TIP3    H153839   5.602   4.389  15.645  0.3216  0.7640 -0.0963
10808TIP3    H253840   5.675   4.280  15.721  1.1706  1.6748  0.4113
10809TIP3   OH253841   5.986   0.688   3.240 -0.2677 -0.6232 -0.2268
10809TIP3    H153842   5.913   0.676   3.180 -0.7889 -1.3776  0.5248
10809TIP3    H253843   5.980   0.779   3.269  0.2625 -0.1071 -1.6254
10810TIP3   OH253844   1.060   1.825   4.356 -0.8249 -0.2037  0.5934
10810TIP3    H153845   1.077   1.753   4.295  1.9610  1.3752 -0.6959
10810TIP3    H253846   1.064   1.904   4.302 -0.3079  1.1299  2.4879
10811TIP3   OH253847   3.000   5.189   5.070  0.2957  0.5212  0.2412
10811TIP3    H153848   3.043   5.105   5.083  1.9169  0.5297 -3.5650
10811TIP3    H253849   2.947   5.176   4.991  1.1856  3.1597 -0.9092
10812TIP3   OH253850   0.595   4.560   3.347  0.0983  0.3777 -0.1287
10812TIP3    H153851   0.563   4.616   3.417 -0.1626  0.8107 -0.5879
10812TIP3    H253852   0.515   4.532   3.301  0.3120  0.6665 -0.6810
10813TIP3   OH253853   1.437   6.513  15.147 -0.1739 -0.0893 -0.1414
10813TIP3    H153854   1.414   6.425  15.177  2.1575 -0.5330  0.5474
10813TIP3    H253855   1.468   6.558  15.226  0.2074  0.7863 -0.7764
10814TIP3   OH253856   1.293   0.528   3.271  0.1932 -0.1215  0.5689
10814TIP3    H153857   1.204   0.530   3.237  0.6238  2.0145 -0.6077
10814TIP3    H253858   1.345   0.486   3.202  0.3931  0.3484  0.4320
10815TIP3   OH253859   0.370   0.179  15.614 -0.4320  0.2579 -0.1086
10815TIP3    H153860   0.325   0.245  15.562 -0.7206  1.2420  1.3341
10815TIP3    H253861   0.374   0.216  15.702  1.8516 -0.4485  0.1555
10816TIP3   OH253862   6.476   5.090  11.153 -0.0267  0.6215 -0.2050
10816TIP3    H153863   6.402   5.096  11.214  0.2663 -1.8543  0.5088
10816TIP3    H253864   6.553   5.084  11.210  0.4205  0.0430 -0.8624
10817TIP3   OH253865   2.569   6.055   0.269 -0.0107 -0.1629 -0.1758
10817TIP3    H153866   2.642   6.092   0.218 -0.9127  0.7553 -0.8488
10817TIP3    H253867   2.540   6.128   0.325  0.9157 -1.1351  1.6639
10818TIP3   OH253868   4.673   2.962  13.380  0.4365 -0.0469  0.2489
10818TIP3    H153869   4.654   2.893  13.443  0.9979 -2.0866 -1.6739
10818TIP3    H253870   4.741   3.015  13.421  0.6812 -1.2228  1.3980
10819TIP3   OH253871   3.549   5.512   6.215  0.3684  0.1179  0.1436
10819TIP3    H153872   3.614   5.496   6.147  0.5358  2.3851 -0.3166
10819TIP3    H253873   3.494   5.582   6.180  0.2101  1.0782  2.1492
10820TIP3   OH253874   2.385   0.651   4.475  0.0264 -0.5035 -0.3482
10820TIP3    H153875   2.443   0.645   4.399  0.1019  1.5597 -0.5082
10820TIP3    H253876   2.437   0.616   4.547  0.6612 -0.7146 -0.8916
10821TIP3   OH253877   1.244   1.747  13.955 -0.2223 -0.5796 -0.6952
10821TIP3    H153878   1.318   1.692  13.928  1.0750  1.0882 -0.7337
10821TIP3    H253879   1.249   1.823  13.898 -0.6303  0.5789  0.7710
10822TIP3   OH253880   1.448   3.726  16.188  0.2351  0.5323 -0.3805
10822TIP3    H153881   1.434   3.725  16.094  0.0229 -0.5825 -0.3519
10822TIP3    H253882   1.381   3.785  16.222  0.7505  1.4782 -0.9799
10823TIP3   OH253883   4.894   3.064  16.030 -0.1552  0.3290 -0.3143
10823TIP3    H153884   4.831   3.108  16.087 -0.4272  0.5896 -0.8050
10823TIP3    H253885   4.843   3.042  15.951  0.1205 -0.3440 -0.3170
10824TIP3   OH253886   6.759   1.451  11.623  0.1063  0.1346  0.2875
10824TIP3    H153887   6.753   1.535  11.577  0.5751 -0.8314 -1.6330
10824TIP3    H253888   6.668   1.425  11.637 -0.0484  1.1844  1.3729
10825TIP3   OH253889   0.677   1.722  12.711  0.0848 -0.2411 -0.0168
10825TIP3    H153890   0.677   1.662  12.785 -0.0658 -1.2101 -0.7700
10825TIP3    H253891   0.584   1.744  12.698  0.1363  0.1231  0.2365
10826TIP3   OH253892   0.015   4.357  12.102  0.0608  0.3884 -0.3263
10826TIP3    H153893  -0.075   4.331  12.083  0.1189  0.3612 -0.5666
10826TIP3    H253894   0.026   4.338  12.196  0.7971 -2.6566 -0.9065
10827TIP3   OH253895   6.416   4.687  10.564 -0.1215 -0.2470  0.3727
10827TIP3    H153896   6.495   4.643  10.596  0.4899 -1.2885 -2.2685
10827TIP3    H253897   6.441   4.779  10.557  0.3154 -0.3041  1.1158
10828TIP3   OH253898   1.458   3.512  14.905 -0.3281 -0.1955 -0.2518
10828TIP3    H153899   1.516   3.575  14.863  0.5277  0.0803  1.2887
10828TIP3    H253900   1.370   3.537  14.876  0.2824 -1.5753 -3.9202
10829TIP3   OH253901   2.717   2.221   0.172 -0.1548 -0.5696 -0.0314
10829TIP3    H153902   2.713   2.131   0.204  1.7775 -1.1182 -1.1452
10829TIP3    H253903   2.643   2.265   0.214  0.6230 -1.8739  2.9499
10830TIP3   OH253904   4.547   2.538   1.028 -0.3507  0.4665  0.2114
10830TIP3    H153905   4.527   2.457   0.981 -0.7863 -0.8925  2.5646
10830TIP3    H253906   4.642   2.546   1.024 -0.1783 -0.8821  0.9812
10831TIP3   OH253907   6.740   4.558   5.424  0.0200  0.3792  0.1756
10831TIP3    H153908   6.810   4.532   5.485 -0.5719  2.8115  2.0283
10831TIP3    H253909   6.685   4.480   5.418  2.2295 -1.2569 -0.4928
10832TIP3   OH253910   5.054   4.827   1.581  0.1633  0.0297  0.0661
10832TIP3    H153911   5.146   4.816   1.607 -0.0343  0.6359  1.0949
10832TIP3    H253912   5.039   4.760   1.514  1.2683 -0.2785  0.1126
10833TIP3   OH253913   6.382   2.984  15.098  0.3326  0.2518 -0.0237
10833TIP3    H153914   6.302   3.027  15.067  0.4448  0.9794  0.6554
10833TIP3    H253915   6.361   2.891  15.097 -0.5254  0.4323  0.1428
10834TIP3   OH253916   0.475   2.460  15.057  0.2328 -0.3769  0.8528
10834TIP3    H153917   0.552   2.506  15.090 -0.1044 -0.6681  2.0902
10834TIP3    H253918   0.407   2.527  15.051  1.2069  0.4674 -2.7272
10835TIP3   OH253919   3.886   1.734  13.829 -0.1625  0.0721 -0.0366
10835TIP3    H153920   3.871   1.720  13.922  0.9390 -0.0563  0.1351
10835TIP3    H253921   3.923   1.822  13.823 -0.9678  0.3877 -0.4357
10836TIP3   OH253922   5.767   6.629  16.396 -0.5500  0.6804  0.3038
10836TIP3    H153923   5.696   6.582  16.440 -1.7551  1.6171 -0.5752
10836TIP3    H253924   5.761   6.602  16.305 -1.4114  2.6588 -0.2621
10837TIP3   OH253925   3.040   0.008  15.137  0.2491  0.4057 -0.1347
10837TIP3    H153926   3.095  -0.063  15.170  0.4130  0.0362 -1.1723
10837TIP3    H253927   3.084   0.088  15.165 -0.0262  0.1129  1.1856
10838TIP3   OH253928   3.813   6.281   6.003 -0.1449 -0.2883  0.6620
10838TIP3    H153929   3.778   6.368   5.984 -1.2044 -0.1425  2.8943
10838TIP3    H253930   3.874   6.295   6.076  0.3884 -1.3133  0.4400
10839TIP3   OH253931   1.242   2.716  11.282  0.2883 -0.6410  0.3245
10839TIP3    H153932   1.224   2.665  11.361 -0.2394  0.6932  1.1137
10839TIP3    H253933   1.160   2.763  11.265  1.7080  2.6875  1.7632
10840TIP3   OH253934   5.099   3.510  11.838  0.7573 -0.1031  0.1914
10840TIP3    H153935   5.063   3.596  11.857  1.8849  0.6974 -1.1078
10840TIP3    H253936   5.099   3.505  11.743 -0.2221 -1.9805  0.2428
10841TIP3   OH253937   3.519   2.559  11.660 -0.1007  0.1837 -0.1719
10841TIP3    H153938   3.528   2.607  11.742  1.7967  0.4255 -0.4804
10841TIP3    H253939   3.510   2.467  11.687 -0.6030  0.3786  0.3308
10842TIP3   OH253940   3.508   3.295  13.237 -0.3164 -0.6057  0.2110
10842TIP3    H153941   3.522   3.364  13.301  2.5597  0.6646 -1.5946
10842TIP3    H253942   3.557   3.220  13.272  1.5929  0.2102 -0.5757
10843TIP3   OH253943   1.889   5.443   1.514 -0.1546 -0.2612 -0.5779
10843TIP3    H153944   1.960   5.469   1.455  0.2825 -2.3055 -1.0441
10843TIP3    H253945   1.840   5.523   1.530  0.2018  0.5367 -3.0446
10844TIP3   OH253946   3.015   5.066   0.923  0.2497 -0.0025 -0.0034
10844TIP3    H153947   3.062   4.987   0.897 -0.6630 -0.6366  0.2450
10844TIP3    H253948   2.934   5.034   0.963 -0.3440  1.0701 -0.3198
10845TIP3   OH253949   3.128   0.771  13.006 -0.9223  0.2754  0.1311
10845TIP3    H153950   3.136   0.678  13.028 -0.0377  0.0905 -0.8968
10845TIP3    H253951   3.038   0.793  13.031 -0.7488 -0.5052  1.5964
10846TIP3   OH253952   3.848   5.736   5.107  0.0132  0.4380 -0.6032
10846TIP3    H153953   3.859   5.642   5.093  1.2462  0.4985 -0.1375
10846TIP3    H253954   3.796   5.765   5.032 -2.2948 -0.9564  0.3516
10847TIP3   OH253955   3.674   6.543   5.211 -0.0088 -0.1250 -0.0119
10847TIP3    H153956   3.586   6.532   5.176  0.5265  1.2480 -1.9406
10847TIP3    H253957   3.662   6.588   5.294 -1.1319 -0.2500 -0.0939
10848TIP3   OH253958   4.749   4.222  11.641 -0.5922 -0.2152 -0.3142
10848TIP3    H153959   4.660   4.247  11.615 -0.0129  0.0746 -2.1866
10848TIP3    H253960   4.770   4.278  11.715 -1.7449  0.1317 -0.2389
10849TIP3   OH253961   0.531   2.699   5.073 -0.3178  0.2256 -0.3968
10849TIP3    H153962   0.548   2.669   5.163 -1.4071  0.6771 -0.0225
10849TIP3    H253963   0.447   2.745   5.079 -0.4726  0.1281 -1.6866
10850TIP3   OH253964   5.185   2.844  12.432  0.1307 -0.2509 -0.6004
10850TIP3    H153965   5.277   2.820  12.435  0.1740 -0.3150  3.3807
10850TIP3    H253966   5.142   2.771  12.388  1.7109 -1.4913 -0.1928
10851TIP3   OH253967   0.449   5.493  10.719  0.2665 -0.3383 -0.3494
10851TIP3    H153968   0.373   5.550  10.713  0.0967 -0.6025 -0.7576
10851TIP3    H253969   0.418   5.408  10.688  0.1436 -1.0422  1.5473
10852TIP3   OH253970   0.377   1.250  11.245 -0.4589  0.1871 -0.1380
10852TIP3    H153971   0.347   1.251  11.154 -0.4919  1.0726 -0.1296
10852TIP3    H253972   0.301   1.220  11.295 -1.2848  2.0594 -0.1579
10853TIP3   OH253973   3.436   2.387   3.123 -0.7787 -0.1677  0.2759
10853TIP3    H153974   3.501   2.445   3.084  0.7485 -1.8463  0.2204
10853TIP3    H253975   3.438   2.308   3.069 -1.9547 -0.7500  1.0375
10854TIP3   OH253976   3.197   4.154  12.533  0.0756  0.2069  0.2134
10854TIP3    H153977   3.131   4.218  12.561 -0.8647 -1.5142  2.2050
10854TIP3    H253978   3.160   4.070  12.557  2.9745 -0.8698  1.3586
10855TIP3   OH253979   2.393   0.482  16.049  0.4036 -0.0414 -0.2387
10855TIP3    H153980   2.389   0.576  16.035 -0.7926 -0.2537 -1.4791
10855TIP3    H253981   2.386   0.471  16.144  0.5959  1.1034 -0.0845
10856TIP3   OH253982   0.149   6.515  12.402 -0.9435  0.1803 -0.2058
10856TIP3    H153983   0.109   6.544  12.320 -1.4338 -0.5836 -0.2396
10856TIP3    H253984   0.174   6.425  12.386  0.2188  0.4436  0.0332
10857TIP3   OH253985   2.392   0.769   3.573  0.5646 -0.5945 -0.3587
10857TIP3    H153986   2.389   0.769   3.477 -0.2778 -0.2831 -0.3433
10857TIP3    H253987   2.471   0.719   3.594 -0.1774 -2.1956 -1.1858
10858TIP3   OH253988   3.741   2.477  15.104  0.4347  0.2369  0.3631
10858TIP3    H153989   3.818   2.483  15.048  1.3662 -1.1037  1.4293
10858TIP3    H253990   3.706   2.389  15.088 -0.9169  0.8326 -0.1223
10859TIP3   OH253991   1.626   3.722  12.840  0.4017 -0.6697 -0.2478
10859TIP3    H153992   1.559   3.770  12.792  0.0469 -1.9677 -1.1228
10859TIP3    H253993   1.604   3.736  12.932 -1.5720 -1.6676 -0.5107
10860TIP3   OH253994   2.523   2.245   3.544  0.5530 -0.7365  0.3184
10860TIP3    H153995   2.448   2.302   3.524  0.5759 -1.1443 -1.0873
10860TIP3    H253996   2.493   2.189   3.615 -0.2353 -0.4243  0.2402
10861TIP3   OH253997   0.706   6.452   3.768 -0.4987 -0.0001 -0.1956
10861TIP3    H153998   0.779   6.465   3.829  1.9156  0.1793 -2.9075
10861TIP3    H253999   0.669   6.539   3.755  0.7468  0.4423 -0.9750
10862TIP3   OH254000   2.559   2.196  12.129 -0.1934 -0.2810 -0.3216
10862TIP3    H154001   2.486   2.222  12.074  0.3604  1.6331 -0.2186
10862TIP3    H254002   2.633   2.248  12.097  1.1466 -2.1254 -0.4047
10863TIP3   OH254003   4.206   0.318  12.219 -0.1254  0.3939  0.6603
10863TIP3    H154004   4.213   0.314  12.124  2.2123 -0.4018  0.8014
10863TIP3    H254005   4.227   0.409  12.241  2.8467 -0.1434  0.5248
10864TIP3   OH254006   6.520   4.206  12.532 -0.3206 -0.6605  0.0324
10864TIP3    H154007   6.506   4.119  12.494  0.8885 -0.4167 -1.0177
10864TIP3    H254008   6.601   4.198  12.582 -0.6039 -0.3234  0.5508
10865TIP3   OH254009   2.564   5.205   0.627 -0.6346 -0.2212  0.3212
10865TIP3    H154010   2.476   5.203   0.663 -0.4975  0.0819  0.6870
10865TIP3    H254011   2.558   5.159   0.543 -1.6362  1.7069 -0.7375
10866TIP3   OH254012   4.448   5.602  16.571  0.3468 -0.1615  0.2445
10866TIP3    H154013   4.373   5.615  16.630 -1.6813  0.6912 -2.3224
10866TIP3    H254014   4.471   5.691  16.543  1.1832 -0.5641 -0.3640
10867TIP3   OH254015   1.752   4.078  16.015 -0.0364  0.6392  1.0931
10867TIP3    H154016   1.702   4.080  15.933 -2.3525  0.2402  2.4136
10867TIP3    H254017   1.737   3.990  16.049 -0.8164  1.4442  2.9199
10868TIP3   OH254018   1.576   4.242   2.133  0.0333  0.0416  0.7071
10868TIP3    H154019   1.574   4.272   2.042 -3.0095  0.8894  0.9214
10868TIP3    H254020   1.668   4.227   2.152  0.6640 -2.9410 -3.3658
10869TIP3   OH254021   4.387   2.670  13.396 -0.5279  0.0168 -0.0893
10869TIP3    H154022   4.481   2.653  13.409 -0.6186  0.8848  2.2390
10869TIP3    H254023   4.345   2.586  13.416 -0.3114 -0.0763 -0.0167
10870TIP3   OH254024   5.717   2.285  10.223  0.5694 -0.0951  0.1130
10870TIP3    H154025   5.780   2.237  10.276  0.4503  0.5013  0.8173
10870TIP3    H254026   5.632   2.247  10.246  0.7348 -1.6052 -1.6048
10871TIP3   OH254027   2.892   0.395   6.669  0.6033 -0.5281 -0.6415
10871TIP3    H154028   2.913   0.335   6.741 -0.6454  0.1770  0.3551
10871TIP3    H254029   2.798   0.386   6.657  0.4182  1.0890 -0.5846
10872TIP3   OH254030   0.487   5.755   0.716  0.0838  0.1659  0.4505
10872TIP3    H154031   0.547   5.700   0.666  0.2933 -0.7005  1.6368
10872TIP3    H254032   0.512   5.743   0.807 -1.8274 -0.1646  0.9788
10873TIP3   OH254033   2.662   2.690   2.102 -0.3729  0.3881 -0.0690
10873TIP3    H154034   2.621   2.751   2.163  1.6226  2.6550 -0.8498
10873TIP3    H254035   2.599   2.682   2.030 -1.7089 -0.4444  1.1528
10874TIP3   OH254036   0.654   5.017   0.643  0.0594  0.0088 -0.6504
10874TIP3    H154037   0.568   5.038   0.607 -0.6542 -1.3585  0.1407
10874TIP3    H254038   0.638   5.005   0.737  0.9219 -1.1697 -0.6295
10875TIP3   OH254039   2.811   6.415   6.879 -0.1821  0.7929  0.1857
10875TIP3    H154040   2.803   6.321   6.896  0.0408  0.6561 -0.4608
10875TIP3    H254041   2.883   6.423   6.817  0.1548  1.4418  0.6553
10876TIP3   OH254042   2.780   4.091  13.760  0.0929 -0.4659 -0.1451
10876TIP3    H154043   2.720   4.106  13.832 -0.5228 -1.5386 -0.4208
10876TIP3    H254044   2.861   4.136  13.786  0.1057 -1.4025  1.5169
10877TIP3   OH254045   3.092   2.241   2.239  0.2910  0.0797  0.3048
10877TIP3    H154046   3.007   2.199   2.250  1.2032 -2.0260 -0.0350
10877TIP3    H254047   3.083   2.295   2.161 -1.1029  0.9982  1.0649
10878TIP3   OH254048   6.328   0.305  14.835  0.1042  0.2465 -0.3431
10878TIP3    H154049   6.297   0.302  14.744 -0.1074  0.9483 -0.3045
10878TIP3    H254050   6.270   0.244  14.882 -0.1804  0.3388 -0.5698
10879TIP3   OH254051   4.442   2.852  10.615  0.2262  0.1652 -0.1504
10879TIP3    H154052   4.408   2.918  10.554  2.1998  1.0117 -0.4386
10879TIP3    H254053   4.479   2.784  10.559  0.4372  0.0505  0.1259
10880TIP3   OH254054   2.008   4.970   0.380 -0.0976 -0.1658 -0.2015
10880TIP3    H154055   1.931   5.019   0.352  0.2585  0.1634 -0.6223
10880TIP3    H254056   2.008   4.978   0.476 -1.4616 -1.5178 -0.0558
10881TIP3   OH254057   3.716   0.981   1.967  0.8117 -0.3249 -0.1179
10881TIP3    H154058   3.667   1.063   1.972  1.9762  0.4542 -0.9887
10881TIP3    H254059   3.703   0.951   1.878 -0.5747 -1.7465  0.5193
10882TIP3   OH254060   5.818   4.723  14.392 -0.0295 -0.0838 -0.1812
10882TIP3    H154061   5.785   4.768  14.314 -2.0023  1.7143  1.5632
10882TIP3    H254062   5.913   4.718  14.379 -0.2547  0.5353 -2.4734
10883TIP3   OH254063   3.038   0.644   5.503 -0.5609 -0.1435  0.1752
10883TIP3    H154064   3.087   0.612   5.428  0.2256 -2.1199  1.4625
10883TIP3    H254065   3.043   0.740   5.496  0.5321 -0.2932 -1.5858
10884TIP3   OH254066   1.420   0.819   1.852 -0.2062  0.1487 -0.7991
10884TIP3    H154067   1.506   0.796   1.889 -0.0957  0.1703 -1.0395
10884TIP3    H254068   1.369   0.848   1.927 -0.0322  0.0486 -0.6386
10885TIP3   OH254069   2.875   6.697   1.971 -0.8292  0.5168 -0.2192
10885TIP3    H154070   2.811   6.757   2.010 -0.4261  0.2293  0.9380
10885TIP3    H254071   2.837   6.610   1.984  0.0299  0.2940  1.0143
10886TIP3   OH254072   4.981   3.976  16.322  0.6367 -0.6782 -0.2182
10886TIP3    H154073   4.985   4.003  16.413 -0.1204  1.8273 -0.8518
10886TIP3    H254074   4.895   3.936  16.312 -0.4167  1.4780 -0.3597
10887TIP3   OH254075   6.363   5.274  13.792 -0.4917 -0.5814  0.1124
10887TIP3    H154076   6.408   5.196  13.759 -1.0938 -0.1599 -1.8745
10887TIP3    H254077   6.272   5.246  13.803 -1.4066  0.3922 -3.3935
10888TIP3   OH254078   5.081   2.736   1.772  0.5513 -0.5667 -0.1026
10888TIP3    H154079   5.120   2.803   1.717  1.1833 -1.1502 -0.3802
10888TIP3    H254080   5.002   2.709   1.724 -0.6622  1.1219  0.8082
10889TIP3   OH254081   5.343   4.554  15.317 -0.2717 -0.1097  0.1649
10889TIP3    H154082   5.269   4.510  15.274 -0.9459  1.2457 -0.1109
10889TIP3    H254083   5.309   4.580  15.403 -0.1330  0.5698  0.0164
10890TIP3   OH254084   5.353   4.389   4.681  0.0274 -0.5677  0.1317
10890TIP3    H154085   5.326   4.448   4.751  1.1721 -1.2753  1.1983
10890TIP3    H254086   5.272   4.345   4.654 -0.2849 -0.9966  1.6815
10891TIP3   OH254087   6.762   1.982   0.853  0.0298 -0.2691 -0.1154
10891TIP3    H154088   6.835   1.937   0.810 -0.7931 -0.9330 -0.8549
10891TIP3    H254089   6.803   2.028   0.927  0.9323 -2.1945  0.6752
10892TIP3   OH254090   0.962   4.149   4.692 -0.7306  0.4830 -0.6004
10892TIP3    H154091   1.036   4.158   4.751 -1.2572 -0.6055  0.2574
10892TIP3    H254092   0.886   4.172   4.746 -1.5164 -3.0024 -0.0008
10893TIP3   OH254093   6.206   2.956   0.221  0.2228 -0.1699 -0.5409
10893TIP3    H154094   6.295   2.977   0.250  0.0517 -1.8253  1.4164
10893TIP3    H254095   6.156   3.036   0.237  0.7367 -0.1639  1.3608
10894TIP3   OH254096   3.514   5.333  12.355 -0.4179  0.7533  0.0238
10894TIP3    H154097   3.462   5.359  12.430 -0.6134 -2.1664  1.0197
10894TIP3    H254098   3.583   5.277  12.391 -1.1101 -1.5839 -1.9675
10895TIP3   OH254099   6.726   6.327   6.784  0.1250 -0.3867 -0.1772
10895TIP3    H154100   6.787   6.368   6.845  1.2760 -2.1258 -0.1125
10895TIP3    H254101   6.743   6.371   6.700 -1.4400  1.9825  0.6541
10896TIP3   OH254102   5.371   2.477   4.383 -0.3190 -0.1481 -0.0688
10896TIP3    H154103   5.392   2.568   4.365  0.4413 -0.0146  1.3737
10896TIP3    H254104   5.280   2.478   4.412 -0.0323  0.2913  0.8457
10897TIP3   OH254105   4.521   1.153   4.242 -0.0979  0.4178  0.3897
10897TIP3    H154106   4.462   1.219   4.205  1.3164 -0.5829 -4.3594
10897TIP3    H254107   4.608   1.193   4.236  0.3004  0.1658  3.0245
10898TIP3   OH254108   3.066   5.110   2.175  0.2685  0.3245 -0.0908
10898TIP3    H154109   3.148   5.117   2.125 -0.5874 -0.1218 -1.6298
10898TIP3    H254110   3.093   5.121   2.266  1.9400  0.9404 -0.6082
10899TIP3   OH254111   5.727   0.379  11.428  0.1553 -0.1390  0.2526
10899TIP3    H154112   5.685   0.465  11.438  0.8921  0.5376 -1.8509
10899TIP3    H254113   5.808   0.386  11.477  0.7999  0.8577 -0.8951
10900TIP3   OH254114   2.791   1.723   4.899  0.4469 -0.4722 -0.0801
10900TIP3    H154115   2.724   1.656   4.884 -1.3851  1.1777  0.3798
10900TIP3    H254116   2.746   1.792   4.947  2.3651  0.9632 -0.2221
10901TIP3   OH254117   6.038   6.614   3.621  0.3377 -0.0534 -0.1601
10901TIP3    H154118   6.080   6.700   3.627  1.5097 -0.6084 -0.0347
10901TIP3    H254119   5.969   6.617   3.687  1.3651  0.2693  0.9500
10902TIP3   OH254120   4.108   2.423   2.593  1.0345  0.0324  0.3386
10902TIP3    H154121   4.117   2.393   2.502  1.2452 -0.3262  0.4751
10902TIP3    H254122   4.019   2.458   2.598  1.1041  0.2657 -0.0681
10903TIP3   OH254123   5.579   6.193  11.852 -0.6206  0.0670  0.0037
10903TIP3    H154124   5.635   6.140  11.795  1.1385  0.9666  0.8187
10903TIP3    H254125   5.521   6.129  11.894 -0.5179 -0.8452 -1.1925
10904TIP3   OH254126   5.797   2.985  16.554  0.3215  0.4117 -0.1503
10904TIP3    H154127   5.882   2.947  16.530 -0.1740 -0.8363  0.0030
10904TIP3    H254128   5.758   3.010  16.471  0.6762  0.6491 -0.2490
10905TIP3   OH254129   0.389   3.602  15.701  0.5573  0.1826  0.5575
10905TIP3    H154130   0.424   3.531  15.647  1.8995  1.5202 -0.4262
10905TIP3    H254131   0.369   3.672  15.639 -1.2919  0.4770  1.4384
10906TIP3   OH254132   2.405   2.388  16.156 -0.0834  0.1865  0.6609
10906TIP3    H154133   2.480   2.369  16.100 -0.0333 -0.1983  0.8511
10906TIP3    H254134   2.344   2.315  16.141  0.7545 -0.9713  2.5186
10907TIP3   OH254135   3.563   4.019   3.315  0.4240 -0.6772 -0.3284
10907TIP3    H154136   3.469   4.038   3.326  0.4043 -0.9217 -0.0492
10907TIP3    H254137   3.586   4.061   3.232  0.3855  0.5607  0.2654
10908TIP3   OH254138   1.037   0.289   3.372 -0.5082  0.1592 -0.2675
10908TIP3    H154139   1.074   0.305   3.285 -0.6802  2.2679 -0.0021
10908TIP3    H254140   1.111   0.261   3.425  0.2852  2.0242 -0.3293
10909TIP3   OH254141   2.104   2.201  13.477 -0.1127 -0.3746 -0.3551
10909TIP3    H154142   2.026   2.238  13.518  1.8279  0.9893  2.4258
10909TIP3    H254143   2.162   2.275  13.463  2.3001 -1.7437  1.6003
10910TIP3   OH254144   3.800   3.780  10.977 -0.3821 -0.7093  0.2233
10910TIP3    H154145   3.711   3.807  10.997 -0.4818 -0.3068 -0.7262
10910TIP3    H254146   3.795   3.739  10.890  0.2080 -1.4916  0.5347
10911TIP3   OH254147   2.018   3.453   1.685 -0.2631 -0.1536 -0.5873
10911TIP3    H154148   2.111   3.475   1.686  0.1309 -1.6660  0.4719
10911TIP3    H254149   1.977   3.517   1.742  0.9619 -2.3630  3.1118
10912TIP3   OH254150   0.881   5.331   4.308  0.0289  0.2078 -0.5544
10912TIP3    H154151   0.946   5.281   4.261  0.5696 -1.9140  2.1738
10912TIP3    H254152   0.928   5.365   4.385 -1.1946  1.9473 -0.5170
10913TIP3   OH254153   6.420   4.017  16.182  0.3293  0.2448  0.5768
10913TIP3    H154154   6.398   4.024  16.275  0.2655 -1.6083  0.7500
10913TIP3    H254155   6.508   4.055  16.175  0.1398  0.8340  1.3087
10914TIP3   OH254156   1.479   1.699   0.210  0.4296  0.4658  0.6278
10914TIP3    H154157   1.432   1.721   0.291 -0.7843 -1.3677  0.4868
10914TIP3    H254158   1.416   1.719   0.140 -0.0869 -1.6761  0.4120
10915TIP3   OH254159   0.549   1.154  16.923 -0.0185  0.2203  0.1396
10915TIP3    H154160   0.518   1.086  16.863 -3.0870  0.9662  0.6962
10915TIP3    H254161   0.584   1.105  16.998 -1.1469 -0.7965  0.0474
10916TIP3   OH254162   0.767   0.446  15.997  0.1843  0.2882  0.5286
10916TIP3    H154163   0.812   0.513  15.945  1.4582  0.5543  1.8897
10916TIP3    H254164   0.820   0.367  15.986  0.0761  0.1671  0.8631
10917TIP3   OH254165   2.503   3.897   1.660  0.3240 -0.8357  0.0183
10917TIP3    H154166   2.577   3.955   1.643  0.3059 -0.5566  0.8595
10917TIP3    H254167   2.469   3.876   1.573  0.2301  0.5555 -0.3011
10918TIP3   OH254168   2.830   1.945  17.027  0.2384  0.4192  0.3044
10918TIP3    H154169   2.919   1.966  17.001  0.4390  1.1670  1.5167
10918TIP3    H254170   2.778   2.021  16.999 -0.1041 -0.2001 -0.7779
10919TIP3   OH254171   2.517   0.750   6.229 -0.4998 -0.2081  0.4943
10919TIP3    H154172   2.510   0.654   6.234  0.7217 -0.2976  0.6417
10919TIP3    H254173   2.468   0.772   6.150  1.4683 -1.2620 -1.1327
10920TIP3   OH254174   5.572   2.589  13.974  0.1237  0.3196  0.2268
10920TIP3    H154175   5.557   2.515  14.033 -1.1084  0.6804  0.3780
10920TIP3    H254176   5.656   2.569  13.932 -0.5181 -1.4937 -0.2448
10921TIP3   OH254177   0.244   1.292   3.475  0.7235 -0.0337  0.2318
10921TIP3    H154178   0.310   1.242   3.524  0.1444  1.6659  2.9712
10921TIP3    H254179   0.160   1.260   3.509  0.1448 -0.5992 -1.6021
10922TIP3   OH254180   1.510   4.784  15.305  0.2023 -0.3668  0.1548
10922TIP3    H154181   1.454   4.709  15.325  2.0379 -2.3378 -1.6021
10922TIP3    H254182   1.597   4.759  15.335  1.1853  0.3041 -1.8959
10923TIP3   OH254183   0.857   2.429  12.854 -0.2248  0.1099  0.1130
10923TIP3    H154184   0.915   2.385  12.792  1.0170  1.1439  0.5076
10923TIP3    H254185   0.779   2.450  12.803  0.1184 -0.4899 -0.6720
10924TIP3   OH254186   3.686   1.668   2.527  0.2685 -0.2671 -0.1794
10924TIP3    H154187   3.734   1.631   2.601  1.5698 -1.1837 -1.4151
10924TIP3    H254188   3.754   1.693   2.464 -0.8130 -1.0571 -1.7528
10925TIP3   OH254189   2.936   3.816  12.387  0.6802 -0.1697 -0.0019
10925TIP3    H154190   2.916   3.909  12.380  1.8767  0.0262 -1.2029
10925TIP3    H254191   2.870   3.772  12.334 -0.5066 -0.1169  1.3863
10926TIP3   OH254192   0.086   1.990   4.879  0.0426 -0.6154 -0.4715
10926TIP3    H154193   0.114   1.902   4.855 -1.9764 -1.5150  0.2137
10926TIP3    H254194  -0.001   1.998   4.840  0.7979  1.7104 -1.8513
10927TIP3   OH254195   1.225   0.630  14.663  0.3695 -0.2599 -0.4913
10927TIP3    H154196   1.131   0.647  14.652 -0.0844 -2.5925 -0.6143
10927TIP3    H254197   1.230   0.538  14.687  2.6104  0.0101  0.2285
10928TIP3   OH254198   3.173   3.396  11.851  0.1172 -0.6423 -0.6648
10928TIP3    H154199   3.144   3.333  11.917  0.6209 -0.9061 -0.6950
10928TIP3    H254200   3.242   3.351  11.803  1.7856  0.5632  0.5018
10929TIP3   OH254201   3.311   5.805  16.790 -0.4360  0.8172 -0.3774
10929TIP3    H154202   3.288   5.811  16.697 -2.0586 -1.4056 -0.1851
10929TIP3    H254203   3.229   5.785  16.834  0.5563  0.4034  1.3617
10930TIP3   OH254204   0.980   2.678  11.702 -0.1700  0.2516  0.1417
10930TIP3    H154205   0.922   2.713  11.770  1.3615  0.9153  1.1712
10930TIP3    H254206   1.047   2.745  11.691 -0.0037 -0.1588 -1.5575
10931TIP3   OH254207   2.621   5.541  14.743 -0.1072  0.4195 -0.1586
10931TIP3    H154208   2.545   5.522  14.798  0.4445 -0.8661  0.2043
10931TIP3    H254209   2.685   5.581  14.801  0.5149 -1.0327  0.2083
10932TIP3   OH254210   1.711   1.040   3.869  0.2449 -0.2180  0.8612
10932TIP3    H154211   1.659   1.100   3.923  1.0726  0.3841  1.0094
10932TIP3    H254212   1.671   1.045   3.782 -0.9347 -0.9912  1.3351
10933TIP3   OH254213   1.173   4.260  15.724 -0.1506 -0.6868 -0.2656
10933TIP3    H154214   1.193   4.313  15.647  1.9626  0.3725  0.9212
10933TIP3    H254215   1.144   4.176  15.688  0.7446 -0.2210 -2.2237
10934TIP3   OH254216   6.293   6.715   5.092  0.0475 -0.6799 -0.1855
10934TIP3    H154217   6.276   6.764   5.012  3.8766  1.7571  0.2004
10934TIP3    H254218   6.313   6.626   5.063  0.9880  0.0662 -1.9787
10935TIP3   OH254219   4.537   5.784   5.271  0.0397 -0.6016 -0.3962
10935TIP3    H154220   4.597   5.855   5.245  0.0637 -0.5364 -0.1625
10935TIP3    H254221   4.592   5.706   5.274  0.0979 -0.5545 -0.2490
10936TIP3   OH254222   3.159   6.351  13.224  0.0003 -0.4216 -0.7463
10936TIP3    H154223   3.179   6.317  13.311 -0.4095  0.9737 -0.0644
10936TIP3    H254224   3.101   6.286  13.185 -0.1353 -0.8734  0.1843
10937TIP3   OH254225   6.659   5.427  14.312 -0.6225 -0.2728  0.0138
10937TIP3    H154226   6.707   5.447  14.232  1.8987 -2.1390  0.9124
10937TIP3    H254227   6.568   5.445  14.290  0.2659  2.0615 -2.2940
10938TIP3   OH254228   0.444   0.585   2.215  0.1885 -0.0703 -0.3874
10938TIP3    H154229   0.425   0.579   2.121  1.4979 -2.1940 -0.5958
10938TIP3    H254230   0.439   0.678   2.234 -3.1642  0.2110 -1.8395
10939TIP3   OH254231   0.427   0.045   2.698  0.4449 -0.1331  0.0719
10939TIP3    H154232   0.468   0.101   2.632 -1.1112  0.3697 -0.5258
10939TIP3    H254233   0.438  -0.044   2.665 -0.5929  0.1336 -1.0677
10940TIP3   OH254234   1.557   3.980  14.317  0.3361 -0.1530  0.3816
10940TIP3    H154235   1.632   4.027  14.278  1.0968 -2.3186 -0.9947
10940TIP3    H254236   1.558   4.004  14.409  1.6838  1.2080  0.0472
10941TIP3   OH254237   1.957   6.451   6.663 -0.1368  0.0391 -0.3041
10941TIP3    H154238   1.903   6.380   6.628 -2.0025  0.5887  1.2671
10941TIP3    H254239   1.995   6.416   6.743  1.4367 -0.1467 -1.0992
10942TIP3   OH254240   1.493   6.138  16.145 -0.0240 -0.2971  0.2112
10942TIP3    H154241   1.415   6.173  16.103  0.2999  1.3148  0.8914
10942TIP3    H254242   1.473   6.138  16.238  0.5181 -0.5618  0.3334
10943TIP3   OH254243   1.540   4.261  11.785  0.4208  0.3499 -0.0090
10943TIP3    H154244   1.597   4.227  11.715  1.4643 -0.4748  1.2061
10943TIP3    H254245   1.506   4.343  11.749 -2.6504 -2.0229 -3.3296
10944TIP3   OH254246   2.232   0.789   2.146  0.4518  0.2721  0.6518
10944TIP3    H154247   2.170   0.821   2.213  0.4426  0.8400  0.3818
10944TIP3    H254248   2.315   0.830   2.170  0.2165  1.3326 -0.2855
10945TIP3   OH254249   4.108   2.968   3.493  0.0542  0.8073  0.1876
10945TIP3    H154250   4.135   3.047   3.446 -1.8336  1.0588 -0.5852
10945TIP3    H254251   4.102   2.901   3.425 -1.3945  0.8348  0.2407
10946TIP3   OH254252   4.771   3.734   1.537 -0.2230 -0.1855  0.3189
10946TIP3    H154253   4.838   3.708   1.474  0.8021 -0.2111  1.3770
10946TIP3    H254254   4.703   3.776   1.485  1.6144  1.8378 -0.5615
10947TIP3   OH254255   3.640   4.987   2.939  0.2745  0.2626 -0.1790
10947TIP3    H154256   3.603   4.974   3.026  0.3732  0.4608 -0.1073
10947TIP3    H254257   3.640   4.899   2.900 -1.8353  0.4818 -0.8146
10948TIP3   OH254258   4.688   5.677   1.469 -0.0638 -0.1241  0.0647
10948TIP3    H154259   4.650   5.641   1.549 -0.0432  0.0144  0.1386
10948TIP3    H254260   4.777   5.644   1.467  0.0562  0.1849  0.3012
10949TIP3   OH254261   0.087   2.491   2.210  0.4176 -0.7103 -0.0250
10949TIP3    H154262   0.069   2.585   2.222 -1.0479 -1.0710  0.7751
10949TIP3    H254263   0.124   2.462   2.293  0.0282 -1.0247  0.0416
10950TIP3   OH254264   4.047   1.296  12.191 -0.0504 -0.0104 -0.3117
10950TIP3    H154265   4.071   1.268  12.279 -0.7576 -0.6818 -0.3279
10950TIP3    H254266   4.009   1.383  12.204 -2.3467 -1.0412  0.3833
10951TIP3   OH254267   3.971   2.314  11.317  0.3755 -0.3684 -0.0876
10951TIP3    H154268   4.044   2.357  11.271  1.6847 -1.2809  1.0481
10951TIP3    H254269   3.978   2.346  11.407 -0.7661 -0.3275  0.0002
10952TIP3   OH254270   5.218   6.714  11.500 -0.6228 -0.3855  0.2363
10952TIP3    H154271   5.303   6.759  11.501 -1.2327  0.8199  0.4515
10952TIP3    H254272   5.154   6.784  11.513 -1.7761 -1.0204 -1.6016
10953TIP3   OH254273   0.706   6.596  11.938  0.0655  0.2481  0.2537
10953TIP3    H154274   0.653   6.581  11.859  2.3272 -1.7932 -1.0132
10953TIP3    H254275   0.760   6.672  11.916  0.2840  0.0421  0.0836
10954TIP3   OH254276   0.945   1.835  12.744 -0.2049 -0.3973  0.9802
10954TIP3    H154277   0.855   1.814  12.720  0.2249 -1.3775  0.1680
10954TIP3    H254278   0.992   1.752  12.736  0.8503  0.1799  1.0299
10955TIP3   OH254279   4.758   3.251  13.743  0.0643  0.1590  0.2482
10955TIP3    H154280   4.717   3.167  13.760  1.6875 -0.6516  0.3523
10955TIP3    H254281   4.846   3.244  13.780 -0.1493  2.3516  1.3737
10956TIP3   OH254282   2.975   3.377  15.461 -0.2589 -0.1658 -0.3025
10956TIP3    H154283   2.925   3.325  15.398 -1.0348  1.6197 -1.2272
10956TIP3    H254284   3.035   3.429  15.408 -0.8364  1.2854  0.4032
10957TIP3   OH254285   5.988   2.980   3.653  0.4703  0.1708 -0.0785
10957TIP3    H154286   6.015   2.918   3.721 -0.6466 -1.1851 -0.8020
10957TIP3    H254287   5.955   3.056   3.701 -0.9904 -1.0523  0.9669
10958TIP3   OH254288   3.688   1.849   5.680  0.0056 -0.1696 -0.3787
10958TIP3    H154289   3.667   1.793   5.755  1.2968  0.1152  0.2395
10958TIP3    H254290   3.715   1.932   5.719 -0.4143  0.3732 -1.2199
10959TIP3   OH254291   5.697   6.058  11.645  0.3878 -0.2655 -0.0980
10959TIP3    H154292   5.733   6.104  11.570  0.9248 -0.3625  0.0959
10959TIP3    H254293   5.768   6.002  11.676  0.1714 -0.2335  0.4758
10960TIP3   OH254294   5.270   6.059  17.062 -0.1146  0.6769  0.3695
10960TIP3    H154295   5.183   6.052  17.100  0.4591 -0.5983  1.5299
10960TIP3    H254296   5.281   6.153  17.045 -1.6658  0.8619  0.2679
10961TIP3   OH254297   3.334   4.199   5.408  0.0136  0.1098 -0.1974
10961TIP3    H154298   3.257   4.215   5.464  0.7405 -0.6629  1.0919
10961TIP3    H254299   3.327   4.106   5.385  1.4574 -0.4830  1.4671
10962TIP3   OH254300   5.350   3.377  16.091  0.0408  0.1045 -0.2294
10962TIP3    H154301   5.394   3.351  16.010  1.5176  0.5005  0.4249
10962TIP3    H254302   5.287   3.307  16.107  0.3584 -0.4350 -1.2319
10963TIP3   OH254303   4.554   4.372  15.076 -0.3427 -0.3962 -0.3563
10963TIP3    H154304   4.472   4.324  15.064  0.1689 -1.4277  0.1233
10963TIP3    H254305   4.599   4.325  15.146  0.8968 -0.1728 -0.9800
10964TIP3   OH254306   6.364   1.153  13.696  0.0981  0.4354  0.2006
10964TIP3    H154307   6.358   1.244  13.724 -0.4774  1.0467 -1.6864
10964TIP3    H254308   6.428   1.154  13.624  0.2069 -0.6848  0.2558
10965TIP3   OH254309   2.997   2.461  15.876  0.7511  0.3200  0.0296
10965TIP3    H154310   2.909   2.493  15.857  1.2131  2.0971  0.7620
10965TIP3    H254311   2.994   2.368  15.851 -0.6295  0.8883 -2.2059
10966TIP3   OH254312   5.362   1.091   2.985 -0.0025  0.1632  0.0578
10966TIP3    H154313   5.271   1.109   2.961 -0.3428  0.3666  1.4142
10966TIP3    H254314   5.407   1.174   2.970  0.0531 -0.0455 -0.9828
10967TIP3   OH254315   0.719   2.506  16.179  0.5963  0.3777 -0.4767
10967TIP3    H154316   0.627   2.511  16.153  0.5490  0.7221 -0.2512
10967TIP3    H254317   0.765   2.475  16.101  0.4647  1.4518 -1.0032
10968TIP3   OH254318   4.573   1.827   4.471 -0.0299 -1.1328  0.6995
10968TIP3    H154319   4.601   1.894   4.409  2.6536 -0.6897  2.2612
10968TIP3    H254320   4.491   1.861   4.508 -0.6986 -0.5649 -1.1816
10969TIP3   OH254321   2.710   1.099   1.322  0.2134 -0.3386 -0.0292
10969TIP3    H154322   2.735   1.054   1.241  2.1996  0.7606 -0.0587
10969TIP3    H254323   2.735   1.190   1.309 -2.6369  0.6463  0.5083
10970TIP3   OH254324   3.411   6.326  14.501 -0.7980 -0.3343  0.6221
10970TIP3    H154325   3.358   6.397  14.466  0.1315 -0.2321 -0.6267
10970TIP3    H254326   3.351   6.278  14.559 -1.6025  1.0788  0.9992
10971TIP3   OH254327   0.079   0.360   0.013 -0.3753 -0.3519 -0.2198
10971TIP3    H154328  -0.000   0.414   0.009 -0.8455 -0.9624  0.7421
10971TIP3    H254329   0.071   0.300  -0.062 -0.2860  0.2954 -0.7600
10972TIP3   OH254330   2.538   0.134  14.804  0.0211  0.3704  0.0515
10972TIP3    H154331   2.585   0.052  14.823 -1.0056 -0.2197  0.1059
10972TIP3    H254332   2.446   0.113  14.820 -0.3346  1.3250 -0.6592
10973TIP3   OH254333   3.954   2.261   6.902  0.4918  0.1075 -0.1685
10973TIP3    H154334   3.898   2.338   6.915  2.2761  1.3712  0.3582
10973TIP3    H254335   3.900   2.202   6.849 -2.4938 -0.1034  2.7589
10974TIP3   OH254336   5.337   3.613  15.554  0.6497  0.5303  0.0865
10974TIP3    H154337   5.286   3.682  15.597  0.6822  0.9440 -0.5209
10974TIP3    H254338   5.345   3.643  15.464  0.2735 -0.4968 -0.3024
10975TIP3   OH254339   5.864   1.588  11.045  0.0259  0.2121  0.2490
10975TIP3    H154340   5.930   1.573  10.978 -0.6349 -2.1617  0.0401
10975TIP3    H254341   5.780   1.572  11.000 -0.3861 -2.7690  1.8314
10976TIP3   OH254342   4.018   4.022  16.507 -0.4177 -0.2387  0.1974
10976TIP3    H154343   3.962   3.951  16.475  0.6039 -1.1980  0.4681
10976TIP3    H254344   4.071   4.047  16.431 -0.9136  0.3948  0.0485
10977TIP3   OH254345   4.038   4.524   1.352 -0.3310  0.3128 -0.1480
10977TIP3    H154346   4.103   4.462   1.319 -1.6073 -2.1022  1.5181
10977TIP3    H254347   3.970   4.526   1.286 -1.8337 -2.7737  1.1186
10978TIP3   OH254348   1.179   2.716   5.215  0.4058  0.1200  0.0765
10978TIP3    H154349   1.222   2.658   5.152  0.5857  1.2999 -0.9384
10978TIP3    H254350   1.219   2.695   5.299  1.6560 -0.0823 -0.5478
10979TIP3   OH254351   5.680   1.668   2.667  0.0586  0.1922 -0.0103
10979TIP3    H154352   5.752   1.615   2.700  2.0764  1.1931 -2.5491
10979TIP3    H254353   5.691   1.753   2.711 -1.2493 -0.3759  1.5720
10980TIP3   OH254354   5.044   6.539   0.506  0.1188  0.4753  0.5077
10980TIP3    H154355   5.018   6.520   0.596 -0.7595 -1.0869 -0.0297
10980TIP3    H254356   4.967   6.579   0.466  0.6245  1.4909  0.5380
10981TIP3   OH254357   3.415   1.574  15.846 -0.0301  0.6687  0.5711
10981TIP3    H154358   3.474   1.502  15.870 -0.8373 -0.9752 -1.9120
10981TIP3    H254359   3.340   1.563  15.903 -0.4703 -1.0208 -0.2612
10982TIP3   OH254360   0.329   6.277  13.253 -0.0278  0.1101 -0.3101
10982TIP3    H154361   0.261   6.220  13.289  0.5206 -0.5296 -0.2773
10982TIP3    H254362   0.281   6.355  13.223 -0.7416 -0.2231 -0.0600
10983TIP3   OH254363   4.618   1.099  13.168  0.5921  0.3121 -0.0441
10983TIP3    H154364   4.586   1.103  13.077  0.5556 -0.4642 -0.0731
10983TIP3    H254365   4.652   1.010  13.177  2.2044  0.9190  0.1737
10984TIP3   OH254366   5.935   3.739  12.053 -0.3072 -0.3719 -1.1013
10984TIP3    H154367   5.943   3.812  12.114  0.4817 -2.4626  1.4942
10984TIP3    H254368   5.841   3.725  12.044 -0.4401 -0.0291 -0.3435
10985TIP3   OH254369   4.234   4.852  16.010  0.7379 -0.3209  0.8259
10985TIP3    H154370   4.171   4.799  16.059 -1.0524 -1.0231 -1.9917
10985TIP3    H254371   4.198   4.941  16.013  1.1771 -0.1627  1.5884
10986TIP3   OH254372   5.145   4.879   4.341 -0.2909 -0.5070  0.0589
10986TIP3    H154373   5.220   4.842   4.295  1.0216  2.0402 -0.0385
10986TIP3    H254374   5.070   4.859   4.285  0.8753  0.0509 -1.7997
10987TIP3   OH254375   3.590   4.306  12.341 -0.4291  0.1218 -0.0462
10987TIP3    H154376   3.597   4.399  12.320  0.8818  0.0983  0.1910
10987TIP3    H254377   3.627   4.298  12.429 -0.7328 -0.5927  0.0252
10988TIP3   OH254378   3.256   3.746  12.149  0.9231  0.2496 -0.5290
10988TIP3    H154379   3.285   3.755  12.058 -1.7449  1.0493 -1.3744
10988TIP3    H254380   3.184   3.684  12.146  1.5920 -0.7033  1.2973
10989TIP3   OH254381   4.119   5.008   1.750 -0.6481  0.5558  0.1556
10989TIP3    H154382   4.078   5.065   1.684 -0.7999 -1.4307 -1.6001
10989TIP3    H254383   4.155   4.936   1.699 -0.5310 -0.9668  2.2722
10990TIP3   OH254384   2.823   4.288  11.111  0.6276 -0.1794 -0.3943
10990TIP3    H154385   2.776   4.298  11.028 -0.7229  0.2076  0.3896
10990TIP3    H254386   2.767   4.230  11.163  1.3125 -0.1819  0.3517
10991TIP3   OH254387   3.740   4.063  14.660  0.1077  0.0323 -0.0137
10991TIP3    H154388   3.812   4.051  14.599 -0.1905  0.3978 -0.4463
10991TIP3    H254389   3.732   3.979  14.706  0.4110 -0.2014 -0.3901
10992TIP3   OH254390   2.208   6.706   3.784  0.1792 -0.3462  0.4239
10992TIP3    H154391   2.295   6.674   3.762  0.1991 -0.8063  1.1313
10992TIP3    H254392   2.157   6.692   3.705  0.8569  0.3407 -0.1388
10993TIP3   OH254393   3.842   6.012   6.777 -0.2921 -0.1192  1.0016
10993TIP3    H154394   3.810   6.015   6.687 -0.5462 -0.6532  1.0732
10993TIP3    H254395   3.887   6.096   6.789 -3.8732  1.9141  1.7369
10994TIP3   OH254396   5.383   2.215   2.857 -0.3736 -0.0713  0.2950
10994TIP3    H154397   5.400   2.247   2.768 -0.6698 -2.7654 -0.8068
10994TIP3    H254398   5.468   2.221   2.900 -0.3447  1.8061  0.0644
10995TIP3   OH254399   1.679   2.148  15.131  0.3456  0.3565 -0.7621
10995TIP3    H154400   1.591   2.184  15.117  0.4736 -0.3189 -4.2175
10995TIP3    H254401   1.718   2.205  15.197 -1.9497  1.9902 -0.6986
10996TIP3   OH254402   1.638   3.306   3.991 -0.1438  0.1250  0.3313
10996TIP3    H154403   1.646   3.229   3.935  0.5994 -0.2381  0.9268
10996TIP3    H254404   1.725   3.345   3.991 -0.2797  0.4314  0.7990
10997TIP3   OH254405   6.297   4.014  13.312  0.5672 -0.3276 -0.0159
10997TIP3    H154406   6.313   4.093  13.260  0.1257  1.1118  1.9017
10997TIP3    H254407   6.380   3.968  13.312  0.8487  0.1516 -1.1477
10998TIP3   OH254408   2.629   4.793   5.394 -0.1432  0.6605  0.0404
10998TIP3    H154409   2.657   4.858   5.459  0.5456 -0.2845  0.7220
10998TIP3    H254410   2.583   4.727   5.445 -0.4122  0.3642 -0.5757
10999TIP3   OH254411   3.417   3.799   5.311 -0.1479  0.0930  0.5211
10999TIP3    H154412   3.427   3.863   5.241  0.3540  1.1896  1.5457
10999TIP3    H254413   3.326   3.808   5.339  0.2522  1.4177  1.5707
11000TIP3   OH254414   3.088   5.094  13.309  0.0333 -0.2518  0.3642
11000TIP3    H154415   3.073   5.141  13.391  0.6475 -0.8731  0.8416
11000TIP3    H254416   3.161   5.036  13.327 -0.0101 -0.6116 -0.5435
11001TIP3   OH254417   6.733   2.127  13.144 -0.3997  0.1037 -0.0053
11001TIP3    H154418   6.649   2.113  13.101 -1.3972  1.7478  1.3037
11001TIP3    H254419   6.796   2.134  13.072 -1.3847 -0.9465 -1.0095
11002TIP3   OH254420   5.006   0.124   2.725  0.2117  0.1189 -0.3365
11002TIP3    H154421   4.933   0.186   2.733  0.7924  1.0376 -1.7813
11002TIP3    H254422   5.022   0.096   2.815 -1.5784  0.2765  0.0818
11003TIP3   OH254423   3.356   6.686  14.636  0.0007  0.2082 -0.3567
11003TIP3    H154424   3.441   6.729  14.637 -0.0063  0.2222 -0.3123
11003TIP3    H254425   3.357   6.629  14.713  0.1186 -0.0886 -0.5794
11004TIP3   OH254426   5.028   6.707  13.444  0.2607 -0.1155  0.2972
11004TIP3    H154427   5.112   6.670  13.473  0.5229 -0.1890 -0.5197
11004TIP3    H254428   5.052   6.787  13.398 -0.1912  0.2882  0.7532
11005TIP3   OH254429   4.738   3.151   5.291  0.1645  0.3578 -0.0989
11005TIP3    H154430   4.703   3.230   5.331 -1.0997  0.3453 -1.1153
11005TIP3    H254431   4.774   3.181   5.207  2.1944  0.2847  0.6858
11006TIP3   OH254432   3.128   1.336   5.432  0.0890  0.6481  0.1849
11006TIP3    H154433   3.160   1.328   5.521  2.0510 -0.6389 -0.5757
11006TIP3    H254434   3.199   1.302   5.377 -0.6783  2.2289 -1.9356
11007TIP3   OH254435   4.522   6.026   2.817 -0.1043 -0.0007 -0.7157
11007TIP3    H154436   4.459   5.996   2.882 -0.0809  0.2954 -0.5540
11007TIP3    H254437   4.479   6.100   2.774  0.6544  1.0726  0.3127
11008TIP3   OH254438   1.426   3.023   4.839 -0.7946  0.5021 -0.7100
11008TIP3    H154439   1.505   3.018   4.893 -2.5647  0.8535  2.1371
11008TIP3    H254440   1.447   2.974   4.760  2.3281  0.8134 -0.1819
11009TIP3   OH254441   0.255   2.851   5.470 -0.3749  0.0176  0.1383
11009TIP3    H154442   0.226   2.941   5.456  0.0649 -0.0166 -1.0729
11009TIP3    H254443   0.183   2.810   5.517 -0.7168  0.9059  0.4141
11010TIP3   OH254444   2.806   1.318   3.036  0.2990  0.3095 -0.2767
11010TIP3    H154445   2.855   1.372   3.097 -0.3180 -0.9918  1.4478
11010TIP3    H254446   2.714   1.335   3.058  0.0949 -1.3118  0.2197
11011TIP3   OH254447   1.392   0.915  13.889  0.2293 -0.4392  0.4855
11011TIP3    H154448   1.298   0.903  13.901 -0.1496  0.6626 -1.1021
11011TIP3    H254449   1.430   0.896  13.976 -1.6195  0.7857  1.6343
11012TIP3   OH254450   5.186   1.141   1.509 -0.2690 -0.1155 -0.2342
11012TIP3    H154451   5.131   1.219   1.519 -1.0371 -0.8422  1.4937
11012TIP3    H254452   5.149   1.096   1.433 -0.2299  0.8390 -0.8438
11013TIP3   OH254453   4.872   0.109  13.039 -0.2836  0.0949 -0.2700
11013TIP3    H154454   4.864   0.082  12.947  1.7801  0.4867 -0.6037
11013TIP3    H254455   4.841   0.199  13.040  0.2976  0.3043 -0.7130
11014TIP3   OH254456   5.292   0.372  16.389  0.7761 -0.0817  0.2497
11014TIP3    H154457   5.273   0.462  16.362 -0.9439 -0.7189 -0.8262
11014TIP3    H254458   5.290   0.375  16.484 -0.0106  0.8918  0.2261
11015TIP3   OH254459   3.138   3.057   2.079  0.3692  0.0944 -0.1637
11015TIP3    H154460   3.234   3.062   2.073  0.6340 -3.6123 -2.3533
11015TIP3    H254461   3.122   2.989   2.143 -0.8194  0.5080 -0.0062
11016TIP3   OH254462   4.104   1.577   1.110  0.0844  0.2443  0.2020
11016TIP3    H154463   4.025   1.603   1.062  0.1833  0.2803  0.0577
11016TIP3    H254464   4.166   1.647   1.094  0.5370 -0.3383 -0.6487
11017TIP3   OH254465   1.463   2.307   0.857  0.2690  0.2532  0.2889
11017TIP3    H154466   1.472   2.213   0.841 -2.4037 -0.6111  2.8549
11017TIP3    H254467   1.380   2.331   0.816  0.0899  1.0731  1.0845
11018TIP3   OH254468   6.634   6.545   0.288 -0.0771 -0.1739 -0.3493
11018TIP3    H154469   6.675   6.464   0.259 -1.7379 -0.9205 -0.7165
11018TIP3    H254470   6.613   6.591   0.207 -0.5025 -0.0890 -0.1932
11019TIP3   OH254471   3.666   0.390  14.620  0.2267 -0.1721 -0.0629
11019TIP3    H154472   3.688   0.482  14.632 -1.1559  0.3179 -0.9988
11019TIP3    H254473   3.742   0.352  14.576  1.2310  0.2635  1.2487
11020TIP3   OH254474   2.591   3.649   0.659  0.0313  0.0995 -0.3968
11020TIP3    H154475   2.529   3.684   0.595  0.1217  1.1067  0.0421
11020TIP3    H254476   2.627   3.727   0.702 -0.7124 -0.5614  1.5172
11021TIP3   OH254477   3.934   0.519   1.508 -0.7186  0.2795 -0.0100
11021TIP3    H154478   4.005   0.500   1.569 -0.5603  0.8167 -0.0228
11021TIP3    H254479   3.864   0.458   1.533  0.6197 -2.0441 -1.6181
11022TIP3   OH254480   3.042   2.407   4.293 -0.0919  0.6672 -0.5122
11022TIP3    H154481   3.092   2.467   4.237  1.0718  1.6291  1.4358
11022TIP3    H254482   3.004   2.464   4.360  0.2395 -0.6457  0.8259
11023TIP3   OH254483   1.237   4.508   2.234  0.0014  0.3018 -0.0314
11023TIP3    H154484   1.292   4.586   2.245 -0.0462  0.1668  1.3255
11023TIP3    H254485   1.190   4.523   2.152  0.8390  1.1684 -0.3722
11024TIP3   OH254486   2.092   5.055  11.462  0.0815  0.1802  0.3324
11024TIP3    H154487   2.100   5.041  11.368  1.5074  1.4504  0.2170
11024TIP3    H254488   2.024   5.123  11.471 -1.4671 -1.3135  0.3946
11025TIP3   OH254489   4.272   3.630   5.321 -0.1293  0.0693  0.1227
11025TIP3    H154490   4.328   3.694   5.366  0.2349  1.2214 -1.8475
11025TIP3    H254491   4.332   3.561   5.294  0.2828  0.9763 -1.3963
11026TIP3   OH254492   0.953   1.827  10.700 -0.4765 -0.5904 -0.2802
11026TIP3    H154493   0.859   1.834  10.685 -0.3927 -0.2058 -0.6593
11026TIP3    H254494   0.988   1.910  10.668 -0.3323  0.5355  2.5173
11027TIP3   OH254495   1.190   1.998  11.707  0.0327 -0.0492 -0.2348
11027TIP3    H154496   1.285   2.003  11.717 -0.2974  3.5372  3.3750
11027TIP3    H254497   1.163   1.932  11.771 -0.0666  1.1659  1.0003
11028TIP3   OH254498   4.482   1.224  13.624  0.2250  0.3821  0.4185
11028TIP3    H154499   4.532   1.190  13.699 -1.9959 -1.4237  1.2090
11028TIP3    H254500   4.415   1.279  13.664 -0.4620  0.0737 -0.2958
11029TIP3   OH254501   6.641   5.869   2.215  0.0294  0.0650  0.2153
11029TIP3    H154502   6.577   5.923   2.261 -0.1544 -0.7585  0.9428
11029TIP3    H254503   6.629   5.781   2.250  0.7616 -0.3338 -0.4907
11030TIP3   OH254504   4.379   5.441  12.360  0.4360  0.7308 -0.2431
11030TIP3    H154505   4.395   5.492  12.439  0.9303 -1.1752  0.9497
11030TIP3    H254506   4.452   5.380  12.356  1.2009  1.6752 -2.9942
11031TIP3   OH254507   6.258   2.899   4.185  0.0042 -0.4826  0.0932
11031TIP3    H154508   6.225   2.904   4.275  1.1503 -0.8067  0.5421
11031TIP3    H254509   6.302   2.983   4.171  0.3636 -0.6775  0.0505
11032TIP3   OH254510   2.938   5.277  14.938  0.1307  0.4788 -0.4914
11032TIP3    H154511   2.960   5.362  14.900  1.8845  1.1838  1.9041
11032TIP3    H254512   3.018   5.225  14.929 -1.0726 -1.2203 -2.4142
11033TIP3   OH254513   0.337   3.061   4.151  0.1543 -0.0365  0.3731
11033TIP3    H154514   0.358   3.142   4.104  1.2839 -0.7223 -0.3602
11033TIP3    H254515   0.408   3.051   4.214  0.2992 -0.7114  0.1099
11034TIP3   OH254516   5.356   5.634  15.799 -0.1296  0.3150  0.1711
11034TIP3    H154517   5.279   5.634  15.742  1.1386 -2.6580 -1.7811
11034TIP3    H254518   5.325   5.670  15.882 -3.2740  0.4021 -0.9354
11035TIP3   OH254519   4.028   0.469   4.464 -0.0385  1.0675 -0.4059
11035TIP3    H154520   4.024   0.400   4.530  1.2022 -1.1830 -2.5102
11035TIP3    H254521   3.950   0.454   4.410  1.0108  0.2020 -1.7792
11036TIP3   OH254522   2.051   1.228  15.505 -0.1889  0.5660  0.5545
11036TIP3    H154523   1.962   1.192  15.509  0.1324 -0.1814  1.1313
11036TIP3    H254524   2.078   1.235  15.596 -0.0601  1.8456  0.4382
11037TIP3   OH254525   4.989   2.258   3.305 -0.4422 -0.4857  0.5064
11037TIP3    H154526   4.968   2.228   3.394  1.2965  0.4115  1.2844
11037TIP3    H254527   5.055   2.195   3.274 -0.6021 -0.4520  0.0967
11038TIP3   OH254528   4.837   0.377  12.409  0.5178  0.5651 -0.2389
11038TIP3    H154529   4.911   0.385  12.469  1.7288  0.1828 -1.6270
11038TIP3    H254530   4.826   0.465  12.373  0.2241  0.6424  0.0339
11039TIP3   OH254531   3.522   6.498  15.171 -0.0931  0.7565  0.1222
11039TIP3    H154532   3.587   6.428  15.162 -2.3068 -1.3521 -0.8252
11039TIP3    H254533   3.495   6.495  15.263  0.0949  0.6041  0.1710
11040TIP3   OH254534   2.634   1.891   4.665 -0.9176  0.4620 -0.4384
11040TIP3    H154535   2.632   1.810   4.716  0.2807  0.2541 -0.6725
11040TIP3    H254536   2.573   1.950   4.710 -1.1559 -0.2813  0.2361
11041TIP3   OH254537   4.250   1.095  11.653 -0.0161  0.0960  0.1539
11041TIP3    H154538   4.158   1.067  11.651 -0.1711  0.6625 -1.0270
11041TIP3    H254539   4.248   1.182  11.691  0.4331 -1.1790  3.4789
11042TIP3   OH254540   4.251   6.166  12.209  0.2599 -0.0241  0.0485
11042TIP3    H154541   4.325   6.165  12.270 -1.6890  0.2659  2.6108
11042TIP3    H254542   4.233   6.073  12.191  2.0781 -0.0710 -1.7859
11043TIP3   OH254543   1.552   1.191  13.465  0.3421  0.0982 -0.0754
11043TIP3    H154544   1.571   1.118  13.407  0.1238 -0.2486  0.2856
11043TIP3    H254545   1.533   1.151  13.549 -1.0785  0.4841 -0.1888
11044TIP3   OH254546   0.609   6.804   6.930  0.7698  0.0995 -0.9653
11044TIP3    H154547   0.617   6.896   6.958  1.1467 -0.2260  0.0375
11044TIP3    H254548   0.677   6.758   6.979  0.4470 -0.7596 -1.3035
11045TIP3   OH254549   5.364   5.999   0.991  0.2717 -0.3409  0.6462
11045TIP3    H154550   5.394   5.916   1.030  0.8547  0.0434  1.0266
11045TIP3    H254551   5.281   6.016   1.034 -0.3101 -1.1843 -0.0894
11046TIP3   OH254552   5.042   5.694  14.023 -0.0940  0.1809 -0.3557
11046TIP3    H154553   5.050   5.634  14.097  2.3287  0.2916 -0.4313
11046TIP3    H254554   4.953   5.682  13.991 -0.8842 -0.5757  1.9696
11047TIP3   OH254555   1.673   2.304  16.926  0.2150  0.1996  0.6230
11047TIP3    H154556   1.657   2.267  17.013 -0.7527  0.5323  0.5969
11047TIP3    H254557   1.649   2.396  16.935 -0.6840  0.0564 -0.2079
11048TIP3   OH254558   6.627   4.631  13.066 -0.1508 -0.7036  0.2026
11048TIP3    H154559   6.660   4.660  13.151 -2.4575  1.4432  0.4939
11048TIP3    H254560   6.668   4.691  13.003 -0.6003 -0.4595  0.1401
11049TIP3   OH254561   2.203   2.664   4.678  0.6479 -0.3427 -0.4717
11049TIP3    H154562   2.164   2.599   4.619  0.2875 -0.7325  0.1878
11049TIP3    H254563   2.150   2.743   4.664  0.9246 -0.2649 -1.0863
11050TIP3   OH254564   2.942   1.725  16.419  0.0292 -0.4844 -0.2665
11050TIP3    H154565   2.999   1.789  16.377 -0.0261  0.8254  1.5365
11050TIP3    H254566   2.992   1.694  16.494 -0.6636 -1.2150 -0.0924
11051TIP3   OH254567   2.267   2.082  16.982 -0.6450  0.0658  0.0911
11051TIP3    H154568   2.201   2.023  16.946 -0.8360  0.8118 -0.8538
11051TIP3    H254569   2.241   2.169  16.950  1.1307  0.3112 -0.8427
11052TIP3   OH254570   2.196   5.097  14.936 -0.0391 -0.4927 -0.2080
11052TIP3    H154571   2.152   5.030  14.988  0.0370  1.1607  2.1649
11052TIP3    H254572   2.184   5.069  14.845 -1.4046 -2.8146  0.5986
11053TIP3   OH254573   3.872   3.227   2.824 -0.3629  0.4837 -0.2855
11053TIP3    H154574   3.858   3.155   2.887  1.2471  0.8626  0.5501
11053TIP3    H254575   3.854   3.306   2.875 -3.2734  0.7523 -1.5033
11054TIP3   OH254576   4.319   5.703  10.640 -0.6020  0.1626 -0.2852
11054TIP3    H154577   4.270   5.655  10.573  1.0389 -1.1271 -0.6246
11054TIP3    H254578   4.378   5.638  10.677  0.9035  1.6633  0.0355
11055TIP3   OH254579   6.488   5.393  13.992 -0.0506  0.2792  0.1013
11055TIP3    H154580   6.447   5.337  13.927  1.4648 -0.8284  0.0367
11055TIP3    H254581   6.518   5.470  13.943 -1.3088  0.7330  0.0178
11056TIP3   OH254582   2.068   0.936  12.404 -0.0643  0.8083 -0.3077
11056TIP3    H154583   2.059   0.960  12.312 -0.3234  1.2107 -0.1762
11056TIP3    H254584   2.136   0.868  12.404 -1.1415 -0.3247 -0.9862
11057TIP3   OH254585   5.654   6.752   1.533  0.1235  0.6462 -0.0109
11057TIP3    H154586   5.638   6.750   1.438 -1.0383 -1.0007  0.1842
11057TIP3    H254587   5.639   6.843   1.558 -0.9737  0.8202 -1.1945
11058TIP3   OH254588   4.329   4.886  16.612  0.7434  0.3137 -0.3745
11058TIP3    H154589   4.367   4.811  16.658 -2.9194 -0.6651  1.4164
11058TIP3    H254590   4.289   4.848  16.533 -2.0204  0.0112  1.0485
11059TIP3   OH254591   3.032   6.226  11.974 -0.0948  0.2075 -0.0681
11059TIP3    H154592   2.983   6.199  12.052  0.4947  1.0691  0.6292
11059TIP3    H254593   2.972   6.210  11.901 -0.6305 -0.6906  0.5435
11060TIP3   OH254594   4.682   2.522   4.938 -0.1730 -0.0284  0.1221
11060TIP3    H154595   4.587   2.509   4.945 -0.5699  2.4533  0.4291
11060TIP3    H254596   4.719   2.475   5.012 -1.4825  1.2488  1.6614
11061TIP3   OH254597   4.487   6.546  10.740  0.8957 -0.4865 -0.4787
11061TIP3    H154598   4.420   6.491  10.701 -1.1151  2.7360 -2.0378
11061TIP3    H254599   4.439   6.602  10.801  3.2359 -2.0729  3.1333
11062TIP3   OH254600   1.726   0.943  12.053 -0.3192  0.2267  0.1319
11062TIP3    H154601   1.685   0.862  12.022  1.9996 -0.9098 -0.1318
11062TIP3    H254602   1.700   1.008  11.988 -0.1473 -0.8927 -1.1129
11063TIP3   OH254603   4.278   0.886  12.278  0.0383 -0.4353 -0.6276
11063TIP3    H154604   4.289   0.877  12.183 -2.0037 -1.6577 -0.8082
11063TIP3    H254605   4.305   0.976  12.297  1.0461 -0.3483 -2.2550
11064TIP3   OH254606   1.430   0.322   2.572 -0.4858 -0.0391 -0.2519
11064TIP3    H154607   1.379   0.398   2.599 -0.2841  0.1720 -0.4605
11064TIP3    H254608   1.502   0.318   2.636 -1.7018 -1.3627  1.1108
11065TIP3   OH254609   5.978   2.261   0.695  0.9167  0.2013 -0.2079
11065TIP3    H154610   5.952   2.178   0.733  0.8589  0.0111 -0.6569
11065TIP3    H254611   6.040   2.298   0.758  3.6726 -1.7606 -1.5584
11066TIP3   OH254612   5.522   5.371   0.334  0.4384 -0.1090  0.1323
11066TIP3    H154613   5.527   5.361   0.429 -0.8183 -0.6792  0.1613
11066TIP3    H254614   5.504   5.464   0.320 -2.0288 -0.4276  0.6363
11067TIP3   OH254615   1.580   2.618   2.287 -0.3817 -0.4080  0.4085
11067TIP3    H154616   1.640   2.544   2.285 -1.4087 -1.2564 -0.8984
11067TIP3    H254617   1.620   2.683   2.230  0.5608  0.1111  1.6214
11068TIP3   OH254618   4.659   2.618  13.401 -0.0461 -0.0071  0.0271
11068TIP3    H154619   4.739   2.661  13.431  0.9296 -2.5588  1.3027
11068TIP3    H254620   4.680   2.585  13.314  1.0069 -2.2419  1.0581
11069TIP3   OH254621   2.897   4.218   3.081  0.5564 -0.1085  0.2286
11069TIP3    H154622   2.966   4.187   3.139  1.8156  0.5739 -0.8598
11069TIP3    H254623   2.816   4.201   3.129  1.3740 -2.2177  0.9474
11070TIP3   OH254624   2.399   4.227   2.380  0.3112  0.7521  0.0207
11070TIP3    H154625   2.471   4.164   2.377  0.6890  1.1706  0.1930
11070TIP3    H254626   2.419   4.289   2.309 -0.1049  0.6335 -0.2064
11071TIP3   OH254627   3.962   4.043  12.335 -0.3882 -0.2302 -0.1978
11071TIP3    H154628   4.005   4.128  12.335  0.3755 -0.5973 -1.4629
11071TIP3    H254629   3.885   4.056  12.391 -1.5795  1.9756 -2.1638
11072TIP3   OH254630   6.372   0.706  12.098 -0.3207 -0.5628 -0.0669
11072TIP3    H154631   6.408   0.785  12.140 -0.1837 -0.6928  0.0618
11072TIP3    H254632   6.288   0.734  12.062 -0.4903 -0.4729  0.3914
11073TIP3   OH254633   2.754   3.262   0.951  0.1227 -0.4052 -0.0120
11073TIP3    H154634   2.717   3.322   1.016  0.0818  0.3966 -0.7601
11073TIP3    H254635   2.834   3.229   0.993  1.0485  1.4381 -0.1724
11074TIP3   OH254636   6.670   3.551  15.587 -0.1508 -0.1304 -0.2978
11074TIP3    H154637   6.701   3.461  15.598 -3.1720 -1.1867  0.4650
11074TIP3    H254638   6.692   3.594  15.670  0.0842 -0.5816 -0.1237
11075TIP3   OH254639   1.574   0.802  14.786 -0.0843  0.4300 -0.7813
11075TIP3    H154640   1.567   0.884  14.834  0.9706  1.6354 -2.5679
11075TIP3    H254641   1.505   0.806  14.720  1.2840  0.9086 -2.2475
11076TIP3   OH254642   1.503   4.832  15.766  0.0341 -0.1491  0.3646
11076TIP3    H154643   1.462   4.862  15.686 -0.9111 -0.1261  0.8455
11076TIP3    H254644   1.448   4.760  15.796  0.5051 -0.3093  0.8767
11077TIP3   OH254645   4.161   2.031   5.269 -0.2003  0.7669 -0.2048
11077TIP3    H154646   4.253   2.010   5.257  0.2534  1.7283  1.3172
11077TIP3    H254647   4.154   2.057   5.361 -1.7811  1.7188 -0.5523
11078TIP3   OH254648   6.227   1.736   5.497 -0.4088  0.2698  0.1921
11078TIP3    H154649   6.197   1.651   5.531 -2.7303 -0.1780 -2.5679
11078TIP3    H254650   6.163   1.758   5.429  1.8273  2.7931 -1.2693
11079TIP3   OH254651   0.609   4.273   2.700 -0.2688  0.4626  0.2226
11079TIP3    H154652   0.665   4.199   2.724  0.5217  0.8659 -0.2998
11079TIP3    H254653   0.525   4.254   2.740 -0.5032 -1.4019 -1.0312
11080TIP3   OH254654   4.768   0.833  14.758  0.8051  0.5491 -0.4114
11080TIP3    H154655   4.753   0.831  14.664  0.9885  2.9960 -0.5457
11080TIP3    H254656   4.749   0.743  14.787  0.5049 -0.1958 -2.7065
11081TIP3   OH254657   2.263   1.841  12.422 -0.3017  0.4300  0.1381
11081TIP3    H154658   2.354   1.813  12.437 -0.6618 -1.1215 -0.3706
11081TIP3    H254659   2.214   1.803  12.495 -0.6782  0.5361 -0.0544
11082TIP3   OH254660   2.596   1.150   6.413  0.6211 -0.2765 -0.3734
11082TIP3    H154661   2.648   1.169   6.491  2.6564 -0.7085 -1.5776
11082TIP3    H254662   2.660   1.131   6.344 -1.1014 -3.0988 -1.3892
11083TIP3   OH254663   4.066   0.619  14.101 -0.0183  0.3207 -0.1319
11083TIP3    H154664   4.070   0.683  14.172 -1.2771  1.2339 -0.8434
11083TIP3    H254665   3.978   0.584  14.105  0.1787 -0.2541 -0.7121
11084TIP3   OH254666   6.672   5.774   5.621  0.1370  0.1750 -0.2565
11084TIP3    H154667   6.718   5.845   5.577 -0.9960  0.7036 -0.6273
11084TIP3    H254668   6.731   5.699   5.615  1.5369  1.1696  0.5016
11085TIP3   OH254669   6.530   1.413   3.421  0.2369  0.7382 -0.2609
11085TIP3    H154670   6.542   1.371   3.335 -0.1546 -0.2204  0.1368
11085TIP3    H254671   6.436   1.422   3.430  0.2807  0.8782  0.0522
11086TIP3   OH254672   1.456   1.654   3.698 -0.3275  0.6974 -0.5257
11086TIP3    H154673   1.492   1.586   3.755 -1.4896 -1.4141 -2.1681
11086TIP3    H254674   1.420   1.718   3.759  1.2625  0.1504  1.1010
11087TIP3   OH254675   5.865   5.276   5.297 -0.0799  0.3258 -0.1907
11087TIP3    H154676   5.952   5.315   5.289  2.1070 -3.5878  1.5211
11087TIP3    H254677   5.843   5.287   5.389 -0.0672 -1.0048 -0.0014
11088TIP3   OH254678   3.063   1.811   2.334 -0.1777  0.3149  0.0559
11088TIP3    H154679   3.103   1.784   2.251 -1.9960 -1.2524 -0.4029
11088TIP3    H254680   3.124   1.783   2.401  1.3117  1.5757 -0.7160
11089TIP3   OH254681   0.844   1.194  13.634  0.1678 -0.1304 -0.0235
11089TIP3    H154682   0.871   1.106  13.608 -1.5866 -0.9386  0.7975
11089TIP3    H254683   0.926   1.244  13.635  1.0980 -1.5379 -1.2331
11090TIP3   OH254684   3.771   6.753  16.300 -0.0102 -0.0294 -0.2169
11090TIP3    H154685   3.846   6.810  16.286  2.1734 -2.7365 -0.4368
11090TIP3    H254686   3.782   6.682  16.237 -1.5736 -1.6337  1.1946
11091TIP3   OH254687   6.542   3.833   0.946  0.0263 -0.0340  0.7751
11091TIP3    H154688   6.508   3.921   0.934  0.2281  0.1128  1.2788
11091TIP3    H254689   6.617   3.828   0.887 -0.2936 -0.0462  0.3626
11092TIP3   OH254690   3.564   1.063  16.877  0.3201 -0.3418  0.3640
11092TIP3    H154691   3.500   1.065  16.948  1.0264 -0.0957  0.9927
11092TIP3    H254692   3.604   0.976  16.883 -0.3821 -0.7459 -0.4354
11093TIP3   OH254693   0.373   3.530   1.282 -0.2505 -0.1616 -0.4459
11093TIP3    H154694   0.308   3.502   1.218 -1.5377 -0.6765  1.0295
11093TIP3    H254695   0.350   3.620   1.303  0.8585  0.4016 -1.4878
11094TIP3   OH254696   2.462   6.442  17.003 -0.1167 -0.8591  0.0747
11094TIP3    H154697   2.397   6.396  16.950 -2.2454  1.4007  0.5414
11094TIP3    H254698   2.470   6.389  17.082 -0.3890 -1.8502 -0.5353
11095TIP3   OH254699   1.758   4.633  13.700 -0.7431  0.1274 -0.2667
11095TIP3    H154700   1.667   4.607  13.685  0.3580 -4.8306 -0.0342
11095TIP3    H254701   1.775   4.609  13.791  1.2618 -0.9720 -0.8768
11096TIP3   OH254702   2.924   1.581   4.697 -0.1782 -0.4344  0.5203
11096TIP3    H154703   2.869   1.630   4.757 -1.0676 -1.5265  0.6247
11096TIP3    H254704   2.887   1.597   4.610  0.9803  0.9747  0.2474
11097TIP3   OH254705   3.145   6.081   5.365 -0.6498 -0.4586  0.1606
11097TIP3    H154706   3.124   6.023   5.439 -1.3338 -1.6721 -0.9462
11097TIP3    H254707   3.079   6.150   5.370  1.6434  1.8166  2.9925
11098TIP3   OH254708   0.095   6.608  12.130 -0.0917 -0.2704  0.4118
11098TIP3    H154709   0.068   6.521  12.102 -0.5208 -1.3182  3.6545
11098TIP3    H254710   0.027   6.667  12.098 -3.4215 -2.0715  3.5222
11099TIP3   OH254711   0.094   4.148  15.423  0.0174  0.2496 -0.1330
11099TIP3    H154712   0.098   4.054  15.439 -0.3196  0.1413 -0.6683
11099TIP3    H254713   0.156   4.185  15.486 -1.0683 -0.1710  1.2421
11100TIP3   OH254714   6.455   1.557  15.946  0.7265 -0.2753 -0.3735
11100TIP3    H154715   6.376   1.609  15.957 -0.4904 -2.0724 -0.2144
11100TIP3    H254716   6.523   1.608  15.991 -0.3682  1.1876 -0.2885
11101TIP3   OH254717   2.717   1.092  11.888  0.6403 -0.4496 -0.0379
11101TIP3    H154718   2.668   1.046  11.957  1.7425 -3.3787 -1.0624
11101TIP3    H254719   2.690   1.049  11.807  3.0868 -0.5865 -0.8695
11102TIP3   OH254720   0.256   6.687  13.671 -0.5831 -1.0012 -0.1654
11102TIP3    H154721   0.287   6.776  13.654 -4.6089  0.4698 -0.7283
11102TIP3    H254722   0.265   6.677  13.766 -1.4735  0.6259  0.1223
11103TIP3   OH254723   1.118   3.327   2.383 -0.1650 -0.0039  0.3726
11103TIP3    H154724   1.086   3.247   2.424 -0.2666  0.9107  2.1733
11103TIP3    H254725   1.039   3.372   2.352 -0.1151 -0.5256 -0.5504
11104TIP3   OH254726   2.037   2.541   3.651 -1.0332 -0.7108  0.7092
11104TIP3    H154727   2.012   2.588   3.731 -2.7320  0.8673 -0.6777
11104TIP3    H254728   1.961   2.487   3.630 -2.0498  1.4554 -1.6226
11105TIP3   OH254729   3.341   2.105  14.515 -0.1218  0.1129 -0.0760
11105TIP3    H154730   3.297   2.113  14.600  0.5100 -0.9056  0.3750
11105TIP3    H254731   3.377   2.192  14.499 -0.9976  0.5534  0.2692
11106TIP3   OH254732   4.835   0.828   5.185 -0.0848 -0.1823  0.0994
11106TIP3    H154733   4.880   0.909   5.210 -0.5208  0.6283 -1.6251
11106TIP3    H254734   4.762   0.857   5.130  0.2974 -1.7963 -1.3433
11107TIP3   OH254735   0.349   2.588  14.089 -0.1621  0.8070  0.2897
11107TIP3    H154736   0.292   2.558  14.018  0.7412  1.5111 -0.7628
11107TIP3    H254737   0.288   2.614  14.158 -1.0852  0.5552 -0.3981
11108TIP3   OH254738   5.653   2.167  14.011 -0.0760  0.1411 -0.3019
11108TIP3    H154739   5.596   2.227  14.057 -0.2793 -0.5919  0.4149
11108TIP3    H254740   5.725   2.150  14.072  0.8682  0.9546 -1.1420
11109TIP3   OH254741   4.553   2.943   0.999 -1.0219 -0.1912 -0.1138
11109TIP3    H154742   4.522   2.925   0.910  0.9892  2.1118 -1.4343
11109TIP3    H254743   4.515   3.028   1.022  0.7827  0.6852 -0.0991
11110TIP3   OH254744   2.133   0.075   2.958  0.1644  0.3340 -0.7821
11110TIP3    H154745   2.040   0.057   2.965  0.5853 -1.7541  0.1005
11110TIP3    H254746   2.143   0.165   2.988 -1.3887  0.1397  0.3979
11111TIP3   OH254747   5.276   6.546  16.125 -0.2577 -0.1977  0.0599
11111TIP3    H154748   5.222   6.525  16.048  2.3681 -0.6902 -1.7825
11111TIP3    H254749   5.365   6.551  16.091  0.7997  1.5047  2.7838
11112TIP3   OH254750   6.782   4.684   4.706  0.0072  0.0892  0.5422
11112TIP3    H154751   6.766   4.763   4.655 -0.0976 -0.5277 -0.3923
11112TIP3    H254752   6.859   4.704   4.758 -0.9336  1.3710  1.5054
11113TIP3   OH254753   5.845   0.198   5.299 -0.3677  0.6214 -0.1010
11113TIP3    H154754   5.894   0.117   5.312  0.5530  1.2170  0.2077
11113TIP3    H254755   5.775   0.174   5.239  1.4963  0.1839 -2.2282
11114TIP3   OH254756   4.679   1.831   3.054 -0.2811 -0.4557 -0.5036
11114TIP3    H154757   4.617   1.758   3.054 -0.1606 -0.5889  1.2207
11114TIP3    H254758   4.756   1.797   3.008 -1.7372  0.0123 -3.5123
11115TIP3   OH254759   3.725   2.606  17.035 -0.4449 -0.0589  0.0661
11115TIP3    H154760   3.644   2.593  16.985  0.2919  1.4119 -1.6173
11115TIP3    H254761   3.713   2.691  17.079  0.8077  1.0922 -1.6568
11116TIP3   OH254762   5.888   2.343   1.308  0.0318 -0.3169  0.1434
11116TIP3    H154763   5.796   2.319   1.303  0.1215 -1.2349  2.0296
11116TIP3    H254764   5.895   2.396   1.387  0.9628  0.5563 -0.5056
11117TIP3   OH254765   0.042   4.571   1.019  0.2884 -0.9059  0.8265
11117TIP3    H154766   0.084   4.512   1.082  0.5295 -0.0692  1.4643
11117TIP3    H254767   0.113   4.604   0.966  0.3178 -0.2507  1.2655
11118TIP3   OH254768   2.774   5.968   2.493  0.3681 -0.0956  0.0636
11118TIP3    H154769   2.845   5.922   2.536  0.6125 -0.5588 -0.8162
11118TIP3    H254770   2.775   5.937   2.402 -2.0174 -1.4024  0.3892
11119TIP3   OH254771   2.593   3.265   1.757 -0.4998 -0.3859  0.0541
11119TIP3    H154772   2.548   3.181   1.754 -0.2794 -0.5559  0.9552
11119TIP3    H254773   2.685   3.243   1.744 -0.5597 -0.1489 -0.8234
11120TIP3   OH254774   5.052   2.836  15.417  0.3053 -0.2257  0.2186
11120TIP3    H154775   5.146   2.837  15.400  0.5519 -1.3128  1.3411
11120TIP3    H254776   5.043   2.878  15.503 -0.5234  2.0939 -0.9317
11121TIP3   OH254777   2.038   5.557  16.356  0.7129  0.3187 -0.1450
11121TIP3    H154778   1.946   5.580  16.344  0.5261 -1.4531 -3.1843
11121TIP3    H254779   2.038   5.496  16.431 -0.5046  0.6510  0.1378
11122TIP3   OH254780   1.965   4.618  16.720 -0.4444 -0.1133 -0.2137
11122TIP3    H154781   1.970   4.652  16.631  0.4858  2.5430  0.7516
11122TIP3    H254782   2.034   4.553  16.725 -0.8173 -0.6445 -1.5380
11123TIP3   OH254783   1.783   2.959  13.064 -0.6281  0.1418 -0.0492
11123TIP3    H154784   1.689   2.946  13.078 -0.7291  0.7517 -0.1426
11123TIP3    H254785   1.812   3.009  13.141 -0.3904 -0.0004 -0.0448
11124TIP3   OH254786   4.573   4.453  14.188  0.5951 -0.1337  1.1626
11124TIP3    H154787   4.543   4.518  14.252  1.4613  1.5424 -0.0562
11124TIP3    H254788   4.637   4.400  14.236  0.8468  0.7561  1.8347
11125TIP3   OH254789   6.737   3.466   2.142 -0.0129  0.4253 -0.2376
11125TIP3    H154790   6.744   3.373   2.119 -1.4992  0.2142  0.0496
11125TIP3    H254791   6.664   3.469   2.204 -1.7946  2.1307 -2.2561
11126TIP3   OH254792   6.561   4.475   0.639  0.3792 -0.4267 -0.6991
11126TIP3    H154793   6.477   4.432   0.653  1.5492 -2.4851  0.4727
11126TIP3    H254794   6.582   4.516   0.723  0.7337 -0.2455 -0.8722
11127TIP3   OH254795   0.157   2.459   4.431  0.4523  0.1490  0.1921
11127TIP3    H154796   0.115   2.545   4.422  1.8788  0.8815  0.2557
11127TIP3    H254797   0.090   2.397   4.404 -0.9018  1.2198  0.9681
11128TIP3   OH254798   6.739   5.548   0.696 -0.3634  0.4443 -0.8279
11128TIP3    H154799   6.681   5.623   0.710  0.1021  1.0443 -1.9702
11128TIP3    H254800   6.774   5.561   0.608 -0.9135 -1.5832 -1.3882
11129TIP3   OH254801   4.727   4.040   3.603  1.0693  0.5585 -0.0370
11129TIP3    H154802   4.668   4.073   3.535 -0.4388  0.4469  1.1728
11129TIP3    H254803   4.697   3.951   3.621  1.4099  0.5985  0.8132
11130TIP3   OH254804   2.921   5.667  10.558 -0.1620 -0.0220 -0.7018
11130TIP3    H154805   2.994   5.623  10.516 -1.0642  1.2223 -3.9390
11130TIP3    H254806   2.960   5.740  10.606  0.7991  0.2726 -1.8883
11131TIP3   OH254807   0.470   4.751  10.897 -0.1918 -0.7319  0.2265
11131TIP3    H154808   0.477   4.842  10.869  1.4353 -1.4215 -1.8919
11131TIP3    H254809   0.381   4.743  10.931 -0.8880  1.2800 -0.9472
11132TIP3   OH254810   0.274   2.939   1.897  0.1190  0.1008  0.4633
11132TIP3    H154811   0.234   2.926   1.983 -1.9705  3.1437  0.1461
11132TIP3    H254812   0.321   3.023   1.905  1.8877 -0.7114 -0.7600
11133TIP3   OH254813   1.369   1.707  11.565  0.0635  0.0405 -0.7862
11133TIP3    H154814   1.287   1.726  11.519  0.5725  0.9053 -1.3666
11133TIP3    H254815   1.436   1.710  11.497  0.6324 -0.2677 -0.2490
11134TIP3   OH254816   5.167   1.813  14.722  0.2843 -0.6395  0.2050
11134TIP3    H154817   5.232   1.747  14.698 -0.9864 -1.5635 -0.8386
11134TIP3    H254818   5.083   1.768  14.712 -0.6881  1.4137 -1.5321
11135TIP3   OH254819   3.643   4.866  15.934  0.6857 -0.5859  0.1723
11135TIP3    H154820   3.567   4.925  15.935  0.7800 -0.4647  0.2122
11135TIP3    H254821   3.646   4.834  15.844  0.3203 -0.9399  0.2844
11136TIP3   OH254822   1.151   4.456   1.950  0.3365  0.2507 -0.3058
11136TIP3    H154823   1.105   4.525   1.902 -0.0353 -0.5184 -1.0989
11136TIP3    H254824   1.229   4.438   1.896 -0.7999 -1.6012 -1.4532
11137TIP3   OH254825   4.395   3.626   1.193 -0.2007 -0.3458  0.3341
11137TIP3    H154826   4.335   3.553   1.192  0.1902 -0.7982 -3.4166
11137TIP3    H254827   4.345   3.699   1.229 -2.4162 -1.1752 -0.9189
11138TIP3   OH254828   4.055   0.964  17.082 -0.0381 -0.4543 -0.6847
11138TIP3    H154829   4.076   0.876  17.113  0.2070 -0.3242 -0.4751
11138TIP3    H254830   4.020   1.008  17.160  1.2081  0.0868 -0.3973
11139TIP3   OH254831   1.506   1.996  12.261  0.2213  0.3214 -0.1640
11139TIP3    H154832   1.446   1.961  12.195  2.1407 -3.2127 -0.2828
11139TIP3    H254833   1.461   1.981  12.344  0.3809 -1.2740 -0.3268
11140TIP3   OH254834   6.450   2.751   1.559  0.2030 -0.2135  0.1119
11140TIP3    H154835   6.436   2.672   1.611  0.9766 -1.0982 -0.9836
11140TIP3    H254836   6.414   2.730   1.473  1.2267  0.2780 -0.4580
11141TIP3   OH254837   4.543   1.562   6.302 -0.7357 -0.0176 -0.1705
11141TIP3    H154838   4.538   1.496   6.372 -1.7144 -0.4196 -0.5861
11141TIP3    H254839   4.488   1.634   6.334 -0.3452  0.2385 -0.0789
11142TIP3   OH254840   5.059   2.830   4.231 -0.5483  0.6389 -0.2473
11142TIP3    H154841   4.984   2.771   4.237 -0.8538  1.0416 -0.0627
11142TIP3    H254842   5.022   2.917   4.249  0.1994  0.6836  1.1474
11143TIP3   OH254843   4.363   1.303  13.916  0.2548 -0.2254  0.1015
11143TIP3    H154844   4.339   1.355  13.840 -1.5721  0.7262  1.2678
11143TIP3    H254845   4.351   1.363  13.990 -0.8107 -1.9612  1.3907
11144TIP3   OH254846   4.491   1.088   5.076  0.0288  0.3307 -0.0660
11144TIP3    H154847   4.538   1.010   5.047  0.5418  0.6426 -0.0897
11144TIP3    H254848   4.533   1.112   5.158  0.7980  1.3573 -0.7276
11145TIP3   OH254849   4.691   1.863  16.156  0.8365  0.2912 -0.0651
11145TIP3    H154850   4.650   1.910  16.229 -0.7731  1.0075 -1.3772
11145TIP3    H254851   4.692   1.772  16.184 -1.1924  0.3313  0.2452
11146TIP3   OH254852   5.269   1.608  13.881 -0.3801  0.1424 -0.0324
11146TIP3    H154853   5.283   1.697  13.912 -0.9149  0.0082  0.6118
11146TIP3    H254854   5.336   1.595  13.813  0.1789  0.7766  0.3886
11147TIP3   OH254855   0.211   6.504   5.804 -0.1396  0.2682 -0.0738
11147TIP3    H154856   0.305   6.521   5.793 -0.4080  2.4809  0.6710
11147TIP3    H254857   0.193   6.432   5.743  2.5708 -2.2014  1.7255
11148TIP3   OH254858   4.297   3.506   5.587  0.0739  0.2959 -0.2722
11148TIP3    H154859   4.271   3.563   5.659  0.1649 -0.2803  0.2272
11148TIP3    H254860   4.376   3.547   5.552  0.5978  0.0645  0.5986
11149TIP3   OH254861   0.526   2.980  11.616  0.1307  0.1431  0.1597
11149TIP3    H154862   0.581   3.057  11.606  1.1669 -0.6599 -0.4622
11149TIP3    H254863   0.448   2.999  11.564  0.5020  0.6642 -0.2102
11150TIP3   OH254864   2.440   4.718  17.098  0.4237 -0.0861 -0.3654
11150TIP3    H154865   2.534   4.737  17.097  0.3398  0.3992 -2.1211
11150TIP3    H254866   2.411   4.748  17.185  1.4943  1.8962 -0.6351
11151TIP3   OH254867   4.133   1.696  14.424  0.0310  0.0955 -0.2022
11151TIP3    H154868   4.177   1.619  14.388  0.9698  0.0337  1.0047
11151TIP3    H254869   4.064   1.660  14.480 -0.2756  0.1652 -0.5290
11152TIP3   OH254870   4.507   5.596   5.941  0.0310  0.6837 -0.6348
11152TIP3    H154871   4.476   5.584   6.031  2.4412  0.2216  0.2120
11152TIP3    H254872   4.428   5.600   5.889 -1.4307 -1.7195  1.1921
11153TIP3   OH254873   0.874   0.058   5.693 -0.3032 -0.0099  0.4609
11153TIP3    H154874   0.873   0.124   5.762  0.1751  2.0166 -1.3680
11153TIP3    H254875   0.788   0.064   5.652 -0.6765 -1.3785  0.9851
11154TIP3   OH254876   1.922   6.260  13.002  0.4815 -0.0718  0.0111
11154TIP3    H154877   1.980   6.262  12.925  0.6294 -1.9234  0.0381
11154TIP3    H254878   1.893   6.351  13.012  1.7571  0.5153 -1.2392
11155TIP3   OH254879   2.566   6.103  14.831  0.4263  0.1592  0.4232
11155TIP3    H154880   2.503   6.032  14.837 -0.5478  0.7655 -1.6481
11155TIP3    H254881   2.644   6.064  14.792  0.0459  0.1135 -0.3078
11156TIP3   OH254882   5.013   3.954   0.321  0.2126 -0.0963 -0.2863
11156TIP3    H154883   5.063   4.030   0.292  0.5673 -0.4032 -0.4870
11156TIP3    H254884   5.041   3.940   0.412  0.7939 -0.5038 -0.5195
11157TIP3   OH254885   2.560   2.160  13.112 -0.3196  0.4339 -0.4773
11157TIP3    H154886   2.587   2.097  13.046  0.1154  0.4335 -0.3038
11157TIP3    H254887   2.495   2.114  13.165  0.1819  0.0463 -0.1970
11158TIP3   OH254888   1.300   2.343   1.848 -0.0966 -0.0869  0.4646
11158TIP3    H154889   1.231   2.373   1.788 -0.6473  0.2083  1.2282
11158TIP3    H254890   1.369   2.409   1.841 -0.4419  0.2975  0.6377
11159TIP3   OH254891   1.312   1.631  13.651  0.0316 -0.7370 -0.2883
11159TIP3    H154892   1.237   1.588  13.693 -0.2628 -0.2978 -0.3601
11159TIP3    H254893   1.387   1.603  13.703 -0.2575 -0.6791  0.1699
11160TIP3   OH254894   6.696   0.015  10.860 -0.0407  0.0611  0.0974
11160TIP3    H154895   6.666  -0.068  10.896 -0.0987  0.1464  0.2448
11160TIP3    H254896   6.615   0.066  10.846 -0.0158  0.0474 -0.1065
11161TIP3   OH254897   0.162   2.883   4.083 -0.0347  0.8305 -0.0589
11161TIP3    H154898   0.237   2.941   4.102 -1.1673  2.3274  0.0349
11161TIP3    H254899   0.151   2.888   3.988  0.0103  0.5815 -0.0770
11162TIP3   OH254900   4.297   2.690  17.121 -0.4985 -0.3145 -0.0351
11162TIP3    H154901   4.370   2.745  17.147  1.0115 -1.7757 -0.9891
11162TIP3    H254902   4.237   2.750  17.076 -0.0907  0.9815  1.0949
11163TIP3   OH254903   3.665   5.583  15.836  0.0987 -0.5209 -0.9442
11163TIP3    H154904   3.649   5.666  15.791  0.4581 -0.3885 -0.8273
11163TIP3    H254905   3.664   5.604  15.929 -0.1122 -0.7022 -0.9049
11164TIP3   OH254906   2.556   0.614   0.299 -0.2572 -0.3181 -0.7975
11164TIP3    H154907   2.537   0.693   0.349  1.1595 -0.8604  0.7031
11164TIP3    H254908   2.471   0.574   0.283 -0.7830 -0.6954  2.2352
11165TIP3   OH254909   4.516   2.695   1.620 -0.3070  0.1376 -0.0769
11165TIP3    H154910   4.599   2.673   1.576 -0.1421 -0.1362  0.3707
11165TIP3    H254911   4.538   2.769   1.676  0.2008 -1.3478  1.7860
11166TIP3   OH254912   3.320   3.003   1.478  0.2041 -0.5373 -0.2120
11166TIP3    H154913   3.244   3.019   1.533  1.0792 -0.9662  1.1615
11166TIP3    H254914   3.285   2.953   1.404 -0.9959  0.0838 -0.0967
11167TIP3   OH254915   5.097   5.699  11.446  0.2465  0.1607  0.3332
11167TIP3    H154916   5.017   5.704  11.498 -1.5240  2.1960 -2.3003
11167TIP3    H254917   5.089   5.617  11.396 -0.2356  0.3912  0.0323
11168TIP3   OH254918   3.030   1.182   2.973  0.3107  0.0972  0.1035
11168TIP3    H154919   3.072   1.267   2.987 -1.2544  0.4629  3.9756
11168TIP3    H254920   2.936   1.201   2.976 -0.1606 -1.4740 -2.0535
11169TIP3   OH254921   0.004   4.196  11.646  0.0102 -0.1348 -0.2934
11169TIP3    H154922   0.000   4.290  11.627 -2.7965  0.0866  0.8171
11169TIP3    H254923   0.018   4.155  11.561 -0.4700  1.2238 -1.0743
11170TIP3   OH254924   1.121   0.746  16.061 -0.1686  0.2317 -0.4847
11170TIP3    H154925   1.084   0.715  15.978 -0.3734 -0.3205 -0.1935
11170TIP3    H254926   1.158   0.832  16.041  1.4991 -0.6993 -1.6077
11171TIP3   OH254927   4.580   2.343  14.140  0.1048  0.2232 -0.0424
11171TIP3    H154928   4.543   2.341  14.228  0.8580  0.8561  0.2980
11171TIP3    H254929   4.641   2.269  14.138  0.9220  0.8695  0.3569
11172TIP3   OH254930   3.277   6.176  14.680  0.0184  0.0363 -0.1186
11172TIP3    H154931   3.213   6.147  14.745  0.4644  1.3072  0.9548
11172TIP3    H254932   3.362   6.153  14.719  0.2930  0.8663 -0.2131
11173TIP3   OH254933   4.523   5.102  15.381  0.0264 -0.1351 -0.0788
11173TIP3    H154934   4.531   5.085  15.475 -1.0345 -1.4653 -0.2162
11173TIP3    H254935   4.525   5.016  15.340  1.4166  0.4624 -1.3898
11174TIP3   OH254936   2.364   2.112   2.000  0.5434 -0.2265 -0.0482
11174TIP3    H154937   2.388   2.040   1.941 -0.1941 -0.6787  0.2039
11174TIP3    H254938   2.447   2.156   2.018  0.7342  0.1924 -1.7748
11175TIP3   OH254939   4.676   1.398  12.028 -0.3204  0.0886  0.0623
11175TIP3    H154940   4.598   1.427  11.981  0.3721  1.3474 -0.3564
11175TIP3    H254941   4.647   1.323  12.079 -1.5460 -0.1257 -0.9138
11176TIP3   OH254942   0.671   1.278  13.124  0.2206  0.1829  0.2994
11176TIP3    H154943   0.762   1.261  13.100  0.0270 -0.3393 -0.0804
11176TIP3    H254944   0.676   1.348  13.189  0.9219 -0.1874  0.6507
11177TIP3   OH254945   6.743   3.940   6.034 -0.5104  0.4909 -0.3437
11177TIP3    H154946   6.819   3.884   6.047 -0.1345  1.1201  0.2679
11177TIP3    H254947   6.732   3.985   6.118 -1.6565  0.2960 -0.3735
11178TIP3   OH254948   0.097   5.111   1.724  0.4577 -0.0872  0.3901
11178TIP3    H154949   0.147   5.155   1.792 -0.6415  1.0264  0.4989
11178TIP3    H254950   0.148   5.032   1.705  2.2209  0.9643  0.5270
11179TIP3   OH254951   0.487   1.316  12.921 -0.4099 -0.1100 -0.0155
11179TIP3    H154952   0.557   1.297  12.858 -1.0526 -0.2787 -0.6901
11179TIP3    H254953   0.531   1.315  13.006  0.2328 -1.1696 -0.3422
11180TIP3   OH254954   1.565   5.666  10.453 -0.6010 -0.2281 -1.1233
11180TIP3    H154955   1.626   5.635  10.385  0.3497  2.1625 -1.4544
11180TIP3    H254956   1.619   5.673  10.532 -1.1997 -0.9137 -0.6383
11181TIP3   OH254957   3.217   6.602   1.471 -0.5505  0.4610 -0.3487
11181TIP3    H154958   3.228   6.510   1.495  0.9416  0.9606  1.1164
11181TIP3    H254959   3.139   6.604   1.417 -1.5072 -1.4557  0.8689
11182TIP3   OH254960   6.540   3.200  16.541 -0.2227 -0.2412  0.4792
11182TIP3    H154961   6.592   3.257  16.598 -0.1120 -1.3161  1.5012
11182TIP3    H254962   6.492   3.260  16.484  0.8188  0.8248  0.6829
11183TIP3   OH254963   2.470   6.348   3.635  0.2639  0.3990  0.7615
11183TIP3    H154964   2.392   6.373   3.585  0.8408  1.4931  0.3559
11183TIP3    H254965   2.438   6.334   3.724 -0.5596 -0.2009  0.3821
11184TIP3   OH254966   2.752   0.284   4.657 -0.2302 -0.4349 -0.5377
11184TIP3    H154967   2.783   0.222   4.723 -2.0888  0.8548  1.7110
11184TIP3    H254968   2.806   0.362   4.670 -1.3631  0.2348  0.3279
11185TIP3   OH254969   0.737   3.835  11.177  0.4949  0.1656 -0.0237
11185TIP3    H154970   0.682   3.757  11.180  1.0619 -0.1977  1.2249
11185TIP3    H254971   0.801   3.816  11.108 -0.6349  0.4203 -1.1941
11186TIP3   OH254972   2.097   0.451   6.268 -0.4501  0.3847  0.5065
11186TIP3    H154973   2.185   0.414   6.271 -0.7469 -0.6919 -1.5183
11186TIP3    H254974   2.103   0.521   6.203 -0.3819  2.6670  2.8144
11187TIP3   OH254975   6.004   5.982  15.339  0.1843 -0.1694  0.0793
11187TIP3    H154976   6.044   5.935  15.267 -1.0316 -0.6111 -0.3379
11187TIP3    H254977   5.910   5.979  15.321 -0.1712 -0.4191  1.7510
11188TIP3   OH254978   1.004   5.516  13.285  0.5077  0.3414  0.9055
11188TIP3    H154979   0.985   5.452  13.353 -0.8633 -0.7633 -0.4673
11188TIP3    H254980   1.044   5.465  13.214 -0.1010  1.0849  0.0093
11189TIP3   OH254981   5.273   4.055   1.829 -0.5058  0.0741 -0.2052
11189TIP3    H154982   5.321   4.105   1.763  0.7020 -1.0164 -0.2107
11189TIP3    H254983   5.188   4.038   1.790 -1.0229  2.2415 -0.1172
11190TIP3   OH254984   4.757   2.329  15.123 -0.6814  1.0876  0.2743
11190TIP3    H154985   4.710   2.295  15.199 -1.6487 -0.4656 -0.9718
11190TIP3    H254986   4.835   2.274  15.117  0.3293  2.3564  1.1362
11191TIP3   OH254987   4.275   0.314   4.699 -0.1880  0.0960 -0.9397
11191TIP3    H154988   4.303   0.344   4.613  0.4684  0.2123 -0.6840
11191TIP3    H254989   4.180   0.305   4.691 -0.3479  1.7090 -1.1819
11192TIP3   OH254990   5.748   4.997   4.419  0.4388  0.2280 -0.1830
11192TIP3    H154991   5.713   5.067   4.363  1.9231  0.2646 -1.1199
11192TIP3    H254992   5.683   4.987   4.488 -0.3487  1.7696 -0.6553
11193TIP3   OH254993   4.201   3.744  12.046 -0.5533 -0.1113 -0.5801
11193TIP3    H154994   4.125   3.704  12.088 -1.5698  2.2283 -0.0021
11193TIP3    H254995   4.259   3.767  12.118 -0.8897  1.1248 -0.6701
11194TIP3   OH254996   4.306   4.527  16.220  0.3038  0.5076  0.7590
11194TIP3    H154997   4.238   4.562  16.163  0.1827 -3.2520 -1.7373
11194TIP3    H254998   4.259   4.480  16.288  0.4477  0.8013  1.0656
11195TIP3   OH254999   1.431   4.389  11.338 -0.3666  0.3875 -0.1877
11195TIP3    H155000   1.512   4.421  11.297  0.4139  1.1667  1.8425
11195TIP3    H255001   1.362   4.417  11.279  0.7333  1.0568 -1.2070
11196TIP3   OH255002   6.548   5.235  15.310 -0.7410 -0.2639  0.1013
11196TIP3    H155003   6.453   5.246  15.314 -0.8149  0.0438 -1.7045
11196TIP3    H255004   6.581   5.317  15.274  0.1917 -0.4652  0.4444
11197TIP3   OH255005   4.330   0.344  16.830  0.1701  0.2225  0.1433
11197TIP3    H155006   4.242   0.370  16.856  0.4340  1.0308  0.2488
11197TIP3    H255007   4.386   0.416  16.857  0.6792  0.3729 -1.1962
11198TIP3   OH255008   2.939   1.520  13.590 -0.1832 -0.6866  0.2622
11198TIP3    H155009   2.958   1.439  13.542 -2.8124 -1.8183  0.9561
11198TIP3    H255010   2.908   1.580  13.523  0.3417 -0.7547 -0.0503
11199TIP3   OH255011   3.048   5.906   6.733  0.5857 -0.2326  0.4867
11199TIP3    H155012   3.116   5.842   6.755 -0.2396 -0.4057  2.8015
11199TIP3    H255013   2.976   5.855   6.698  0.4789 -0.4186  0.9705
11200TIP3   OH255014   3.426   1.593  14.792 -0.9247  0.1360  0.4752
11200TIP3    H155015   3.431   1.526  14.860  0.5424 -0.4769 -0.1861
11200TIP3    H255016   3.516   1.623  14.781 -1.0241 -0.1322 -1.5026
11201TIP3   OH255017   4.335   4.002   1.659 -0.4125  0.4345 -0.0251
11201TIP3    H155018   4.253   3.960   1.683 -0.6476  0.6584 -0.4373
11201TIP3    H255019   4.391   3.930   1.630 -1.0473  0.4690 -1.4040
11202TIP3   OH255020   5.339   5.767  12.514 -0.2358 -0.2666  0.3783
11202TIP3    H155021   5.376   5.717  12.442  3.8643  0.8241  1.4674
11202TIP3    H255022   5.308   5.848  12.473  1.4517  0.0712 -0.3052
11203TIP3   OH255023   2.124   2.292   5.046  0.2869 -0.8028  0.1705
11203TIP3    H155024   2.114   2.376   5.001 -3.3177 -0.3628  1.4507
11203TIP3    H255025   2.200   2.304   5.102 -0.4094  1.8443  0.6731
11204TIP3   OH255026   5.512   5.893   5.536 -0.2396 -0.4203  0.5893
11204TIP3    H155027   5.534   5.847   5.617 -2.1316 -0.5257  1.0990
11204TIP3    H255028   5.474   5.976   5.566 -2.4139 -1.1058 -0.0768
11205TIP3   OH255029   3.560   3.481  13.423  0.4067  0.5043 -0.4337
11205TIP3    H155030   3.648   3.445  13.435  0.8215  1.3340 -0.9531
11205TIP3    H255031   3.508   3.441  13.493  1.0120 -0.5798 -0.5889
11206TIP3   OH255032   5.170   5.467   2.360  0.1528 -0.5742  0.0520
11206TIP3    H155033   5.115   5.518   2.299 -0.0339 -2.7138 -1.6979
11206TIP3    H255034   5.254   5.458   2.314 -0.0170 -2.2956  0.0131
11207TIP3   OH255035   5.826   2.513  12.440  0.7729  0.5626  0.3273
11207TIP3    H155036   5.838   2.585  12.503 -0.1436  0.0454  1.1160
11207TIP3    H255037   5.876   2.441  12.476 -0.5076 -0.0281  0.9824
11208TIP3   OH255038   4.203   4.820   1.525 -0.7607  0.0721  0.1407
11208TIP3    H155039   4.287   4.810   1.481 -1.2839 -1.5571 -0.5708
11208TIP3    H255040   4.140   4.832   1.454 -1.1591  1.1624  0.6569
11209TIP3   OH255041   1.884   4.271   2.913  0.1716 -0.0640  0.9390
11209TIP3    H155042   1.950   4.337   2.892  0.1828  0.3463  2.1497
11209TIP3    H255043   1.905   4.197   2.856 -0.9606  1.5930 -1.8239
11210TIP3   OH255044   1.182   2.926  13.142 -0.0490 -0.0752 -0.2224
11210TIP3    H155045   1.237   2.855  13.110  1.2737  1.4476 -1.4888
11210TIP3    H255046   1.188   2.920  13.238  3.3456  0.6903 -0.2608
11211TIP3   OH255047   5.005   5.230  13.233  0.1818 -0.1051 -0.5740
11211TIP3    H155048   4.954   5.194  13.305  1.7656  2.0599  1.7904
11211TIP3    H255049   4.940   5.275  13.178 -1.0228 -1.6113 -0.4329
11212TIP3   OH255050   0.662   2.175  10.987 -0.2480  0.1296  0.3323
11212TIP3    H155051   0.647   2.252  10.932 -1.6046 -1.5617 -1.8189
11212TIP3    H255052   0.754   2.153  10.973  0.3464  1.6463  1.4843
11213TIP3   OH255053   1.301   6.071  14.806 -0.2342  0.2792 -0.2305
11213TIP3    H155054   1.247   6.132  14.756  0.0441 -0.4062 -1.4152
11213TIP3    H255055   1.366   6.040  14.743 -0.9528 -1.9448  0.0326
11214TIP3   OH255056   0.029   1.004  11.453  0.0713  0.0068 -0.2019
11214TIP3    H155057   0.079   1.085  11.453  0.8874 -0.4420 -1.8822
11214TIP3    H255058  -0.060   1.031  11.474  0.7242  1.0050  1.4937
11215TIP3   OH255059   5.428   1.663   4.389 -0.6248  0.2399 -0.4118
11215TIP3    H155060   5.480   1.677   4.468 -1.3120  0.4699  0.0119
11215TIP3    H255061   5.484   1.692   4.318 -0.3857  1.0266  0.0822
11216TIP3   OH255062   3.013   1.114   4.206 -0.0932  0.1788 -0.1161
11216TIP3    H155063   2.961   1.047   4.249  0.5075 -1.0281 -1.2053
11216TIP3    H255064   3.058   1.159   4.277 -0.5448 -0.5387  0.6395
11217TIP3   OH255065   4.840   0.840  11.140 -0.3103 -0.7992  0.2582
11217TIP3    H155066   4.854   0.796  11.224  0.6756  0.9212  1.0497
11217TIP3    H255067   4.872   0.929  11.154 -2.9835  0.4886 -0.9877
11218TIP3   OH255068   1.255   2.900  11.922 -0.3940  0.3858 -0.9752
11218TIP3    H155069   1.200   2.883  11.845 -2.1330  0.9451  0.0624
11218TIP3    H255070   1.275   2.814  11.956  0.8332  0.1074 -2.3047
11219TIP3   OH255071   4.199   5.037  16.815  0.3241  0.0445  0.2338
11219TIP3    H155072   4.235   4.986  16.742  0.6680 -0.2696  0.6180
11219TIP3    H255073   4.166   5.117  16.774  0.4190 -0.1737 -0.2813
11220TIP3   OH255074   4.578   3.091   1.796  0.2110  0.7901  0.3478
11220TIP3    H155075   4.618   3.023   1.743  3.1472  1.6503  1.2777
11220TIP3    H255076   4.543   3.044   1.872 -0.9823 -0.0330 -0.6710
11221TIP3   OH255077   1.419   0.447   6.283  0.3851 -0.6126 -0.4445
11221TIP3    H155078   1.456   0.376   6.335 -0.0518 -1.5470 -1.3900
11221TIP3    H255079   1.470   0.524   6.309 -0.8117 -0.6850  2.5386
11222TIP3   OH255080   1.020   3.922   5.085 -0.0914  0.0151  0.0635
11222TIP3    H155081   1.058   3.934   5.172 -0.8798  1.1290  0.2854
11222TIP3    H255082   0.948   3.860   5.099  1.3396 -1.7832 -0.2852
11223TIP3   OH255083   4.311   0.908   4.599  0.4934  0.0741 -0.1171
11223TIP3    H155084   4.400   0.928   4.572 -0.3963  2.0139 -1.8881
11223TIP3    H255085   4.282   0.840   4.538  0.0426  1.1016 -1.0884
11224TIP3   OH255086   5.661   2.776   3.720  0.2225 -0.8277  0.0984
11224TIP3    H155087   5.740   2.757   3.771  0.5842  0.5859  0.1068
11224TIP3    H255088   5.694   2.811   3.637 -0.3415  1.7204  0.8602
11225TIP3   OH255089   3.573   3.925   2.920  0.2774  0.0378 -0.8359
11225TIP3    H155090   3.491   3.877   2.913  1.0953 -1.2249 -2.4741
11225TIP3    H255091   3.558   4.005   2.870  0.1360 -0.3410 -1.4123
11226TIP3   OH255092   5.591   5.475   4.801 -0.4620 -0.3131  0.1551
11226TIP3    H155093   5.593   5.502   4.893  1.1878 -0.0559  0.0887
11226TIP3    H255094   5.657   5.531   4.760 -1.5607 -0.0481 -1.3085
11227TIP3   OH255095   1.866   5.649   5.240 -0.6008 -0.4976 -0.6249
11227TIP3    H155096   1.904   5.627   5.325 -1.9253  0.3658  0.2343
11227TIP3    H255097   1.801   5.581   5.225 -0.8440 -0.2711 -0.6094
11228TIP3   OH255098   0.309   0.193  12.060  0.1680 -0.4584  0.3543
11228TIP3    H155099   0.280   0.265  12.005  0.4771 -0.5774  0.0309
11228TIP3    H255100   0.230   0.159  12.101  0.1891  1.2181  1.9314
11229TIP3   OH255101   2.508   1.173   5.622  0.1522  0.0971  0.4654
11229TIP3    H155102   2.490   1.096   5.568 -1.0556  0.4021  0.4011
11229TIP3    H255103   2.486   1.247   5.566  2.1521  0.5651  0.2061
11230TIP3   OH255104   4.640   2.406   0.270 -0.7822 -0.2449  0.0773
11230TIP3    H155105   4.569   2.466   0.248 -1.5983 -1.0671  0.4239
11230TIP3    H255106   4.613   2.365   0.352  0.5633  0.1617  0.7595
11231TIP3   OH255107   6.670   6.682   3.662 -0.0088 -0.0616  0.2758
11231TIP3    H155108   6.650   6.668   3.569  0.1217  0.6770  0.1280
11231TIP3    H255109   6.710   6.600   3.691  0.4209 -0.1158 -0.4538
11232TIP3   OH255110   0.006   0.385   2.819 -0.0016 -0.8051  0.3779
11232TIP3    H155111  -0.024   0.326   2.887 -0.0363  1.7378  2.7523
11232TIP3    H255112  -0.017   0.473   2.851  3.0761  0.7831 -1.2660
11233TIP3   OH255113   4.450   3.637   0.943  0.1545  0.0663  0.8547
11233TIP3    H155114   4.396   3.566   0.908  1.2626 -0.7633  0.7835
11233TIP3    H255115   4.440   3.631   1.038  0.4276 -0.3437  0.8607
11234TIP3   OH255116   5.007   0.338   3.477  0.4228  0.2392  0.0047
11234TIP3    H155117   4.941   0.380   3.532  1.5696  1.8988  0.1771
11234TIP3    H255118   5.058   0.410   3.440 -1.6794 -0.5212 -5.2354
11235TIP3   OH255119   2.456   3.443  13.871 -0.1226 -0.4483  0.0126
11235TIP3    H155120   2.449   3.524  13.820  1.5488  0.2296  0.7978
11235TIP3    H255121   2.538   3.452  13.920 -0.5199 -2.0938  1.0550
11236TIP3   OH255122   6.095   6.192   3.390  0.5905 -0.4733 -0.1220
11236TIP3    H155123   6.043   6.188   3.470  1.5384 -0.6023  0.5175
11236TIP3    H255124   6.081   6.280   3.356  0.2257 -0.3994  0.2157
11237TIP3   OH255125   4.251   3.531  16.998  0.1795  1.1100  0.4939
11237TIP3    H155126   4.217   3.552  16.911  1.1431 -0.1748 -0.2099
11237TIP3    H255127   4.305   3.606  17.021 -1.9727  2.5902  1.0744
11238TIP3   OH255128   4.356   5.856  11.785 -0.7125 -0.2063 -0.4641
11238TIP3    H155129   4.333   5.941  11.748  0.2505  1.4589  2.3768
11238TIP3    H255130   4.443   5.837  11.751 -1.0465 -0.2187 -1.3313
11239TIP3   OH255131   6.654   2.295   4.046  0.1359  0.9388 -0.8949
11239TIP3    H155132   6.725   2.283   3.983 -0.4795 -3.0445 -1.1343
11239TIP3    H255133   6.578   2.320   3.993  0.2241  0.1785 -1.3990
11240TIP3   OH255134   6.560   5.954   6.367  0.2813 -0.1174  0.6786
11240TIP3    H155135   6.562   6.049   6.354  3.0055 -0.2940 -0.9977
11240TIP3    H255136   6.534   5.943   6.459 -1.5175  2.1291  0.5360
11241TIP3   OH255137   2.109   1.006  12.659  0.3635  0.2694  0.0221
11241TIP3    H155138   2.071   0.924  12.691 -0.9840  0.8243 -0.0605
11241TIP3    H255139   2.094   1.003  12.564  0.5436  0.4924 -0.0120
11242TIP3   OH255140   4.678   6.528  11.723  0.3043  0.0050  0.2808
11242TIP3    H155141   4.679   6.616  11.687  0.0259  0.1439  0.6085
11242TIP3    H255142   4.586   6.503  11.726  0.4151 -0.4737 -0.2310
11243TIP3   OH255143   2.920   4.413  11.821 -0.2519 -0.4470  0.0281
11243TIP3    H155144   2.929   4.428  11.727 -0.9543 -1.8701 -0.3030
11243TIP3    H255145   2.999   4.452  11.859  1.2234 -1.8356 -1.4155
11244TIP3   OH255146   0.432   2.261  10.721 -0.1979 -0.6304  0.5833
11244TIP3    H155147   0.506   2.320  10.737 -0.3363 -0.2538 -0.1040
11244TIP3    H255148   0.460   2.177  10.757  0.7313 -0.5883 -0.0037
11245TIP3   OH255149   2.247   4.300   5.847 -0.2758 -0.5967  0.0412
11245TIP3    H155150   2.338   4.322   5.824  0.0681 -2.1362 -0.1726
11245TIP3    H255151   2.244   4.310   5.942 -0.2217  0.5864 -0.0661
11246TIP3   OH255152   4.578   0.698  12.118 -0.4656 -0.4893  0.0431
11246TIP3    H155153   4.614   0.670  12.034 -0.0726 -1.2946  0.4691
11246TIP3    H255154   4.512   0.763  12.096  0.3539  0.0751 -0.8391
11247TIP3   OH255155   0.106   3.668   1.410  0.2125  0.0059  0.9622
11247TIP3    H155156   0.153   3.616   1.475  0.0933 -1.2633  0.0595
11247TIP3    H255157   0.035   3.611   1.380 -0.8545  1.2343  1.0181
11248TIP3   OH255158   6.694   0.937  12.170  0.1535 -0.5052 -0.9638
11248TIP3    H155159   6.688   0.891  12.086 -1.0774  0.0132 -1.1866
11248TIP3    H255160   6.664   1.026  12.151  0.2640 -0.2667 -0.0632
11249TIP3   OH255161   6.338   6.681   2.829  0.2376 -0.2840  0.1970
11249TIP3    H155162   6.424   6.690   2.788  1.8330 -2.9503  2.5658
11249TIP3    H255163   6.339   6.741   2.903 -1.0004  1.4305 -1.0733
11250TIP3   OH255164   3.456   1.871  11.252  0.3038  0.1789  0.4035
11250TIP3    H155165   3.511   1.846  11.178  0.6414  0.4605  0.5548
11250TIP3    H255166   3.392   1.932  11.215  0.7544  0.6728  0.4241
11251TIP3   OH255167   2.267   5.516  17.038  0.1816  0.0352 -0.3379
11251TIP3    H155168   2.278   5.432  17.084  1.3910  0.5015  0.2760
11251TIP3    H255169   2.202   5.498  16.970  1.3680 -1.7830 -1.0909
11252TIP3   OH255170   0.433   0.075   5.815 -0.6474 -0.3675 -0.3947
11252TIP3    H155171   0.376   0.094   5.889 -2.7668 -2.3773 -1.3924
11252TIP3    H255172   0.379   0.091   5.738  0.9990  0.1568 -1.5008
11253TIP3   OH255173   2.018   0.111  12.519 -0.1563 -0.2608  0.0980
11253TIP3    H155174   1.927   0.135  12.502 -0.3905 -1.6648 -0.7205
11253TIP3    H255175   2.051   0.080  12.435  1.8853  2.5323 -0.2984
11254TIP3   OH255176   0.173   3.787   1.838 -0.8656 -0.1196  0.2729
11254TIP3    H155177   0.125   3.714   1.801 -0.5492  0.3672 -1.1483
11254TIP3    H255178   0.113   3.825   1.903 -1.5087 -0.8640  0.1193
11255TIP3   OH255179   6.137   5.909   0.664 -0.3645  0.5536  0.1140
11255TIP3    H155180   6.068   5.966   0.697 -2.0300 -1.2080 -0.2112
11255TIP3    H255181   6.180   5.876   0.743 -1.8495 -0.6483  0.4585
11256TIP3   OH255182   4.921   2.221  12.527 -0.6147 -0.3281  0.4345
11256TIP3    H155183   4.970   2.140  12.520 -0.8563 -0.4421  0.0406
11256TIP3    H255184   4.983   2.283  12.567  0.2427 -0.1557 -1.0453
11257TIP3   OH255185   4.002   0.272   4.639 -0.4146 -1.0018 -0.1700
11257TIP3    H155186   3.976   0.186   4.607  0.0340 -1.8244  1.5507
11257TIP3    H255187   3.933   0.296   4.701 -0.1964 -0.4062 -0.1524
11258TIP3   OH255188   2.454   2.069   3.744  0.2432 -0.0298 -0.2220
11258TIP3    H155189   2.504   1.996   3.707 -0.1853 -0.6540  0.3994
11258TIP3    H255190   2.363   2.039   3.742  0.1594  0.1054  0.8783
11259TIP3   OH255191   2.627   2.444   2.245 -0.0901 -0.1645 -0.2178
11259TIP3    H155192   2.649   2.524   2.198 -0.1084 -0.3592 -0.5562
11259TIP3    H255193   2.699   2.433   2.308  0.0116  0.0107 -0.3032
11260TIP3   OH255194   3.004   3.372   5.575  0.2848 -0.2803 -0.1034
11260TIP3    H155195   2.937   3.372   5.643  0.3819 -0.5428 -0.0061
11260TIP3    H255196   2.965   3.421   5.503 -0.1254 -0.6762 -0.1526
11261TIP3   OH255197   2.284   6.615  16.885 -0.2545  0.0256 -0.7604
11261TIP3    H155198   2.229   6.664  16.946 -0.1264 -0.1401 -0.5141
11261TIP3    H255199   2.362   6.592  16.935  0.6480  1.3864 -1.4797
11262TIP3   OH255200   5.204   6.168   0.780  0.7393  0.4323  0.4282
11262TIP3    H155201   5.165   6.096   0.731  1.1056  0.3771  0.2160
11262TIP3    H255202   5.296   6.144   0.789  0.8135  0.7633  0.5603
11263TIP3   OH255203   4.869   4.386   5.610  0.3207 -0.4624 -0.4399
11263TIP3    H155204   4.899   4.363   5.522 -0.0239 -2.6083 -0.0463
11263TIP3    H255205   4.930   4.453   5.640  0.5474  0.1834 -2.2344
11264TIP3   OH255206   5.402   3.420  11.274  0.8856  0.1912 -0.0208
11264TIP3    H155207   5.333   3.353  11.277  0.8963  0.0451 -1.7959
11264TIP3    H255208   5.481   3.374  11.303  0.7187 -0.3274 -0.3709
11265TIP3   OH255209   1.146   2.137  13.907 -0.4405 -0.2135 -0.4965
11265TIP3    H155210   1.058   2.133  13.872 -0.7857 -0.4045  0.3700
11265TIP3    H255211   1.189   2.058  13.874 -0.9580 -0.7225  0.0198
11266TIP3   OH255212   4.667   5.057  14.342  0.3001  0.3064  0.3500
11266TIP3    H155213   4.683   4.963  14.353  1.4030  0.1621 -1.9181
11266TIP3    H255214   4.579   5.062  14.305  0.4023  0.1372  0.0815
11267TIP3   OH255215   2.658   1.099   3.920 -0.8424 -0.2693  0.8266
11267TIP3    H155216   2.576   1.104   3.970 -1.1633  2.6543  0.1728
11267TIP3    H255217   2.687   1.190   3.912  1.5246 -1.0599 -0.5428
11268TIP3   OH255218   6.166   3.458   2.087  0.1397 -0.4305  0.0943
11268TIP3    H155219   6.179   3.368   2.056  1.6611 -1.1601  2.5659
11268TIP3    H255220   6.255   3.493   2.095 -0.4397  1.6288 -1.5393
11269TIP3   OH255221   5.149   2.161   4.086 -0.0457 -0.0349 -0.0027
11269TIP3    H155222   5.141   2.230   4.020 -0.7744  0.1147  0.2284
11269TIP3    H255223   5.242   2.157   4.106  0.3711 -0.9809 -1.9706
11270TIP3   OH255224   0.985   0.320  10.872  0.4613  0.1449 -0.1510
11270TIP3    H155225   0.965   0.413  10.867 -1.6957 -0.2985 -0.9263
11270TIP3    H255226   0.996   0.293  10.781  0.4549 -0.4841  0.0301
11271TIP3   OH255227   4.918   0.676  11.950  0.5525 -0.1125 -0.2483
11271TIP3    H155228   4.987   0.731  11.914  0.0356  0.8688  0.2101
11271TIP3    H255229   4.839   0.702  11.903  0.6737 -2.2122 -1.7868
11272TIP3   OH255230   5.138   2.499  16.386 -0.3040  0.1340  0.0609
11272TIP3    H155231   5.224   2.467  16.359 -0.5926  0.6724 -1.6198
11272TIP3    H255232   5.089   2.507  16.304 -2.4857 -1.6335  1.0864
11273TIP3   OH255233   6.190   1.602  13.565  0.0812 -0.0479 -0.3038
11273TIP3    H155234   6.148   1.642  13.489 -0.1025  0.1752 -0.0850
11273TIP3    H255235   6.190   1.670  13.631  1.0581  0.0583 -0.3930
11274TIP3   OH255236   0.659   1.944   4.645  0.1594  0.0912  0.4520
11274TIP3    H155237   0.632   2.029   4.610  0.4994 -0.5611 -1.5325
11274TIP3    H255238   0.646   1.952   4.739 -1.3692  1.7791  0.1624
11275TIP3   OH255239   4.699   1.901  15.558  0.1528 -0.0608  0.7390
11275TIP3    H155240   4.697   1.857  15.643 -2.6888 -0.4684  0.5676
11275TIP3    H255241   4.620   1.870  15.513  2.0332 -0.5952 -2.4828
11276TIP3   OH255242   6.661   3.897  15.695 -1.1015 -0.9111 -0.6433
11276TIP3    H155243   6.592   3.943  15.648 -0.7091  0.7546  0.3417
11276TIP3    H255244   6.652   3.926  15.786 -0.1253 -1.9290 -0.1968
11277TIP3   OH255245   0.540   3.730   3.581 -0.1578 -0.4470 -0.0558
11277TIP3    H155246   0.554   3.752   3.488  0.0605 -1.9488 -0.3969
11277TIP3    H255247   0.486   3.651   3.579 -0.2775 -0.4076  1.1108
11278TIP3   OH255248   5.153   1.817   0.720  0.1129 -0.3657  0.5779
11278TIP3    H155249   5.173   1.903   0.684 -1.0008 -0.5293 -0.4783
11278TIP3    H255250   5.161   1.828   0.815  0.3268  0.8055  0.4329
11279TIP3   OH255251   0.032   3.097   1.401 -0.5574  0.6969 -0.8062
11279TIP3    H155252   0.088   3.131   1.471 -0.9521  1.3795 -0.8054
11279TIP3    H255253   0.017   3.173   1.344 -2.0431  0.7353 -0.4222
11280TIP3   OH255254   3.412   5.589  12.704  0.2066 -0.0528 -0.3695
11280TIP3    H155255   3.438   5.591  12.796  0.6395 -0.0245 -0.4907
11280TIP3    H255256   3.458   5.663  12.665 -0.3528  0.2283 -0.5122
11281TIP3   OH255257   0.484   0.192   6.427  0.2190 -0.2915 -0.2885
11281TIP3    H155258   0.524   0.273   6.395  0.6240 -0.6972 -0.8380
11281TIP3    H255259   0.395   0.217   6.450  0.0507  0.1395 -1.3169
11282TIP3   OH255260   0.064   0.659   0.706  0.0005 -0.2417  0.4790
11282TIP3    H155261   0.066   0.650   0.801 -0.9346 -1.0074  0.4447
11282TIP3    H255262   0.146   0.619   0.676 -0.3342 -1.2621  0.8816
11283TIP3   OH255263   5.642   2.469   2.660  0.3440 -0.0496 -0.4073
11283TIP3    H155264   5.674   2.535   2.722 -1.4713  1.6144 -1.1287
11283TIP3    H255265   5.715   2.457   2.599  1.0392  0.6066  0.2615
11284TIP3   OH255266   0.765   5.657  15.875 -0.5566 -0.3706 -0.9508
11284TIP3    H155267   0.730   5.709  15.803 -0.6238  1.9457  0.6677
11284TIP3    H255268   0.860   5.673  15.873 -0.5936 -0.0359 -0.3670
11285TIP3   OH255269   0.738   1.482  16.162 -0.8873 -0.1946 -0.0184
11285TIP3    H155270   0.714   1.509  16.074  1.6832 -0.1330 -0.7666
11285TIP3    H255271   0.686   1.402  16.177 -2.0468  0.3005 -1.1750
11286TIP3   OH255272   1.236   2.114   4.016 -0.3996  0.2775  0.4546
11286TIP3    H155273   1.245   2.023   4.044  1.7669  0.0638 -0.7020
11286TIP3    H255274   1.268   2.166   4.089  2.4965 -0.1385 -0.4238
11287TIP3   OH255275   5.523   4.913   1.290 -0.2979  0.4822 -0.1877
11287TIP3    H155276   5.443   4.940   1.334 -0.3373  0.7906 -0.4483
11287TIP3    H255277   5.581   4.884   1.361 -0.6009  0.3551  0.0073
11288TIP3   OH255278   6.488   3.670  13.868 -0.5542  0.2782 -0.6139
11288TIP3    H155279   6.443   3.685  13.785 -2.5296 -0.6159  0.2099
11288TIP3    H255280   6.479   3.752  13.916  0.6529  0.8187 -1.2771
11289TIP3   OH255281   2.181   3.802  14.274  0.0908  0.3450  0.0168
11289TIP3    H155282   2.242   3.730  14.293 -0.8696 -0.5205 -0.0744
11289TIP3    H255283   2.215   3.876  14.324  1.8103  0.1972 -0.8635
11290TIP3   OH255284   3.593   0.615  14.949  0.3010  0.3895 -0.0827
11290TIP3    H155285   3.634   0.609  14.863  1.0117  1.1803  0.1786
11290TIP3    H255286   3.641   0.552  15.003  0.9398  1.0360  0.1245
11291TIP3   OH255287   5.794   3.300   2.247 -0.0734 -0.5228 -0.5010
11291TIP3    H155288   5.705   3.307   2.283 -0.3799  0.1029 -1.3569
11291TIP3    H255289   5.783   3.311   2.153  0.9500 -0.1168 -0.5865
11292TIP3   OH255290   5.554   0.949   1.255  0.2761  0.5223 -0.1730
11292TIP3    H155291   5.631   0.992   1.291  1.3138 -2.3757  1.4567
11292TIP3    H255292   5.498   0.931   1.330 -0.8327  0.4450 -0.9938
11293TIP3   OH255293   3.759   0.867   4.225  0.1630 -0.3706 -0.0478
11293TIP3    H155294   3.760   0.953   4.182  0.1587  0.1595  0.9933
11293TIP3    H255295   3.835   0.868   4.283 -0.5549 -0.5712  0.9274
11294TIP3   OH255296   3.576   1.943   1.386  0.0126 -0.3889 -0.0346
11294TIP3    H155297   3.549   1.868   1.440 -0.9136 -1.3840 -1.7597
11294TIP3    H255298   3.526   2.017   1.421  0.1599 -0.7791  1.0460
11295TIP3   OH255299   6.016   5.250   1.033  0.0849 -0.0908 -0.1683
11295TIP3    H155300   5.934   5.202   1.018  0.7318 -0.8540 -1.4131
11295TIP3    H255301   6.060   5.249   0.948  1.4310  0.2332  0.5017
11296TIP3   OH255302   1.433   4.105   4.094 -0.1895 -0.1100 -0.8599
11296TIP3    H155303   1.427   4.174   4.161 -0.2211 -0.0513 -0.9229
11296TIP3    H255304   1.366   4.042   4.118 -0.7869  0.3371 -1.3264
11297TIP3   OH255305   6.623   0.405  10.983 -0.6583 -0.4955 -0.1677
11297TIP3    H155306   6.717   0.411  10.969 -0.3501  0.1185  1.9125
11297TIP3    H255307   6.593   0.344  10.916  1.1799 -0.6052 -0.9576
11298TIP3   OH255308   1.003   1.357   0.040  0.4026 -0.3126 -0.2986
11298TIP3    H155309   1.006   1.288  -0.026 -2.4312  0.8933 -1.8738
11298TIP3    H255310   0.918   1.347   0.082  0.0309  1.9904 -0.3558
11299TIP3   OH255311   4.843   4.243   2.263  0.2169  0.3820  0.1287
11299TIP3    H155312   4.862   4.236   2.169  0.0688 -0.2977  0.1478
11299TIP3    H255313   4.824   4.153   2.291  0.5177  0.5422  0.8676
11300TIP3   OH255314   1.409   2.679   3.843 -0.3745  0.5102  0.1926
11300TIP3    H155315   1.404   2.715   3.754  2.4910 -0.2382 -0.3514
11300TIP3    H255316   1.337   2.615   3.847  0.4109 -0.6364 -2.1858
11301TIP3   OH255317   3.799   5.730   6.373  0.6480 -0.3569  0.0753
11301TIP3    H155318   3.818   5.800   6.435  1.3258 -1.1362  0.7599
11301TIP3    H255319   3.729   5.679   6.415  1.1099 -0.8871  0.2113
11302TIP3   OH255320   5.016   1.081   3.689 -0.8347  0.2375  0.1432
11302TIP3    H155321   5.064   0.999   3.678  1.7904  1.7193 -0.2043
11302TIP3    H255322   5.022   1.101   3.782  0.3164  0.9886 -0.0663
11303TIP3   OH255323   2.283   2.592  11.990 -0.5510  0.2224  0.4196
11303TIP3    H155324   2.353   2.620  11.931  0.7999  0.7203  2.1669
11303TIP3    H255325   2.223   2.666  11.993  0.2503  0.8754  0.9301
11304TIP3   OH255326   2.503   3.811   4.838 -0.1647 -0.7828 -0.3835
11304TIP3    H155327   2.577   3.856   4.879  0.1018  0.1953 -1.8602
11304TIP3    H255328   2.535   3.721   4.826  0.5627 -0.5241 -0.4658
11305TIP3   OH255329   1.571   0.562  16.118 -0.0892 -0.3907  0.1967
11305TIP3    H155330   1.604   0.616  16.190 -0.9124  0.4025 -0.0069
11305TIP3    H255331   1.517   0.621  16.066 -1.6260 -1.5719  0.3855
11306TIP3   OH255332   3.739   0.588  16.485  0.0616  0.6564  0.3291
11306TIP3    H155333   3.750   0.505  16.530 -1.4875 -0.6473 -1.5264
11306TIP3    H255334   3.679   0.638  16.541 -0.0717 -0.0142  0.7945
11307TIP3   OH255335   4.113   6.197  12.520 -0.5871 -0.0963  0.5346
11307TIP3    H155336   4.130   6.158  12.606  1.0748 -1.1481 -0.2115
11307TIP3    H255337   4.198   6.194  12.476 -1.7713 -1.3058 -1.8138
11308TIP3   OH255338   1.590   6.125  15.629 -0.3374 -0.4314 -0.4199
11308TIP3    H155339   1.625   6.066  15.695 -1.8860  0.3973  1.2294
11308TIP3    H255340   1.658   6.192  15.617  0.1638 -0.8668 -0.0302
11309TIP3   OH255341   1.755   4.464   0.076 -0.6682  0.8047 -0.7028
11309TIP3    H155342   1.747   4.493   0.167 -0.2958 -0.8159 -0.1282
11309TIP3    H255343   1.688   4.513   0.029 -0.7503  1.7921  0.4027
11310TIP3   OH255344   1.704   2.518   4.792 -0.3754 -0.2854  0.1268
11310TIP3    H155345   1.675   2.561   4.873  2.5271 -0.8983  1.6209
11310TIP3    H255346   1.631   2.461   4.768 -0.7088 -1.4048  3.3347
11311TIP3   OH255347   6.035   3.218   5.761  0.0493  0.3942  0.3916
11311TIP3    H155348   5.944   3.188   5.770 -0.2068  1.4014  1.7090
11311TIP3    H255349   6.078   3.187   5.841  0.8078  0.1451 -0.1046
11312TIP3   OH255350   3.704   1.829  12.788 -0.1054 -0.3547 -0.4468
11312TIP3    H155351   3.642   1.758  12.770 -0.8620 -0.1179  1.1412
11312TIP3    H255352   3.757   1.834  12.708 -0.2832 -2.4399 -0.7622
11313TIP3   OH255353   1.649   5.021   5.416 -0.8681 -0.4144  0.0410
11313TIP3    H155354   1.636   5.073   5.337  0.5172  0.1506  0.1439
11313TIP3    H255355   1.663   5.086   5.485  0.6195 -0.8887  0.2217
11314TIP3   OH255356   1.913   2.891  14.633  0.1566  0.4713 -0.2884
11314TIP3    H155357   1.912   2.797  14.614 -1.2412  0.9398 -2.8112
11314TIP3    H255358   1.918   2.895  14.729  0.2328 -2.1501 -0.1008
11315TIP3   OH255359   4.800   6.424   4.255  0.2159  0.0053  0.3649
11315TIP3    H155360   4.754   6.505   4.236  1.8821  1.4644  2.1860
11315TIP3    H255361   4.767   6.396   4.341 -0.5734 -1.4601 -0.3731
11316TIP3   OH255362   0.507   6.584  13.426  0.0556 -0.5586  0.2769
11316TIP3    H155363   0.524   6.638  13.504  3.1712 -1.4147  0.3086
11316TIP3    H255364   0.496   6.647  13.355 -1.2788  0.1857  1.0911
11317TIP3   OH255365   6.620   5.280   5.228  0.0744  0.3711 -0.0291
11317TIP3    H155366   6.617   5.365   5.273  1.1642 -0.8521  2.5958
11317TIP3    H255367   6.532   5.269   5.192 -0.4035  2.1582  0.4740
11318TIP3   OH255368   3.834   1.378  13.860  0.6835  0.4160  0.1433
11318TIP3    H155369   3.911   1.418  13.899  0.5985 -0.4941  1.2635
11318TIP3    H255370   3.792   1.450  13.812  1.5927  1.1915  0.4922
11319TIP3   OH255371   6.767   6.046   5.809 -0.0597 -0.9605  0.1375
11319TIP3    H155372   6.784   6.019   5.719 -0.3736 -1.6531  0.2825
11319TIP3    H255373   6.804   5.977   5.863 -1.6900 -1.6234  0.4873
11320TIP3   OH255374   4.440   2.971  12.757 -0.0459 -0.5345 -0.5590
11320TIP3    H155375   4.348   2.957  12.779 -0.2567  0.0310 -1.0523
11320TIP3    H255376   4.488   2.910  12.813 -0.6386  0.0537  0.6424
11321TIP3   OH255377   6.707   6.705   6.737 -0.4553 -0.4740 -0.5325
11321TIP3    H155378   6.779   6.687   6.797 -1.3806 -1.1999  0.3848
11321TIP3    H255379   6.703   6.628   6.680 -0.6950 -0.5683 -0.3889
11322TIP3   OH255380   6.111   3.710  16.804 -0.5050 -0.2083  0.2185
11322TIP3    H155381   6.031   3.692  16.853  1.4632 -0.7694  3.4945
11322TIP3    H255382   6.141   3.625  16.774 -0.6794 -0.0822 -0.3374
11323TIP3   OH255383   1.099   1.838  16.412 -0.3909  0.2212 -0.2424
11323TIP3    H155384   1.073   1.814  16.323 -0.1240 -0.6770 -0.0892
11323TIP3    H255385   1.025   1.810  16.467 -0.3450  0.3265 -0.1272
11324TIP3   OH255386   2.709   5.858   1.953 -0.1083 -0.3916  0.5619
11324TIP3    H155387   2.720   5.764   1.940 -0.9154 -0.5189  0.7475
11324TIP3    H255388   2.628   5.879   1.907 -0.8958 -0.1174  2.0364
11325TIP3   OH255389   4.885   0.602  14.535  0.2997  0.0352 -0.2522
11325TIP3    H155390   4.963   0.635  14.490 -1.4279  0.0633 -3.5655
11325TIP3    H255391   4.815   0.661  14.507 -1.0783 -0.3621  2.0932
11326TIP3   OH255392   6.232   1.432   3.394  0.7112  0.3433 -0.2450
11326TIP3    H155393   6.155   1.465   3.347  0.4434  0.6029  0.3563
11326TIP3    H255394   6.248   1.498   3.462  0.7599 -0.2887  0.3663
11327TIP3   OH255395   5.228   1.010  12.916 -0.1487 -0.5907  0.3121
11327TIP3    H155396   5.258   1.099  12.902  0.8142 -0.6648  1.6332
11327TIP3    H255397   5.201   0.979  12.830 -1.0724  1.1568 -0.0665
11328TIP3   OH255398   4.672   1.208  16.999 -0.5058 -0.9350  0.7665
11328TIP3    H155399   4.762   1.199  17.030  1.5300  1.1214 -3.5122
11328TIP3    H255400   4.637   1.283  17.048  1.8978  1.1298 -0.4012
11329TIP3   OH255401   0.738   0.296   1.229 -0.3322  0.1573 -0.0910
11329TIP3    H155402   0.672   0.240   1.189 -0.8569  0.1526  0.7592
11329TIP3    H255403   0.817   0.242   1.232 -0.7597 -0.4581  0.4778
11330TIP3   OH255404   1.675   2.419   4.505 -0.1895  0.0348  1.0596
11330TIP3    H155405   1.681   2.500   4.554  1.7086  0.4398  0.2520
11330TIP3    H255406   1.648   2.353   4.570  2.0838  0.5713  2.6702
11331TIP3   OH255407   2.307   4.761  14.863 -0.0735 -0.7986 -0.2904
11331TIP3    H155408   2.402   4.759  14.872 -0.0898  0.9617  0.6871
11331TIP3    H255409   2.275   4.703  14.932  0.2771 -1.7824 -0.9357
11332TIP3   OH255410   5.408   5.639   3.006 -0.0474 -0.3624 -0.6464
11332TIP3    H155411   5.316   5.629   2.980  0.3761 -1.1129 -1.9512
11332TIP3    H255412   5.454   5.572   2.956  1.4959  1.3353 -1.5889
11333TIP3   OH255413   6.154   1.577   1.121  1.1402  0.2289  0.1952
11333TIP3    H155414   6.233   1.624   1.095  0.0536  1.5688 -0.9458
11333TIP3    H255415   6.160   1.569   1.216  2.6330  0.3076  0.1208
11334TIP3   OH255416   1.624   3.784  11.611  0.0291  0.2789  0.2248
11334TIP3    H155417   1.711   3.769  11.649 -0.1571  0.8047  0.8901
11334TIP3    H255418   1.630   3.752  11.521  0.5408 -0.8482  0.6474
11335TIP3   OH255419   1.859   6.624   4.114 -0.3747  0.0391 -0.5937
11335TIP3    H155420   1.861   6.697   4.176 -0.2088 -1.3355  1.0858
11335TIP3    H255421   1.779   6.640   4.062 -0.1319  1.5976 -0.5439
11336TIP3   OH255422   0.129   0.221   4.675  0.2458 -0.0693  0.4687
11336TIP3    H155423   0.126   0.238   4.581 -1.4697  0.9470  0.6667
11336TIP3    H255424   0.198   0.155   4.685  2.3726  1.7691 -1.1506
11337TIP3   OH255425   3.130   1.996   2.746 -0.0349  0.2790  0.0505
11337TIP3    H155426   3.152   2.063   2.810  1.0550  0.1205 -0.1308
11337TIP3    H255427   3.077   2.042   2.680 -0.0923  0.7312  0.4082
11338TIP3   OH255428   0.283   2.300   5.885  0.1275  0.1626  0.2237
11338TIP3    H155429   0.349   2.356   5.927  0.0594  0.0613  0.4704
11338TIP3    H255430   0.216   2.289   5.953  0.8218 -1.4008  0.6933
11339TIP3   OH255431   1.228   4.819   0.675 -0.0873 -0.1163  0.1834
11339TIP3    H155432   1.320   4.844   0.677 -0.3453  1.1206 -1.2576
11339TIP3    H255433   1.205   4.821   0.582 -2.2038  2.1898  0.6330
11340TIP3   OH255434   1.548   1.194  11.213 -0.3875 -0.3263  0.3049
11340TIP3    H155435   1.589   1.146  11.284  1.6420  0.2119 -0.4353
11340TIP3    H255436   1.570   1.144  11.134  1.4391  1.5254 -0.4345
11341TIP3   OH255437   5.715   0.550   2.307  0.2175 -0.0879 -1.0398
11341TIP3    H155438   5.621   0.536   2.320  0.2292 -0.5766 -1.4744
11341TIP3    H255439   5.721   0.602   2.227  0.3003  0.3769 -0.7401
11342TIP3   OH255440   5.820   6.455   4.298  0.2292  0.6843  0.5860
11342TIP3    H155441   5.766   6.486   4.226  0.8182 -0.5700 -0.4314
11342TIP3    H255442   5.757   6.419   4.361 -0.1612 -1.2513 -0.8205
11343TIP3   OH255443   6.389   6.078  14.716 -0.1501 -0.2902 -0.2402
11343TIP3    H155444   6.457   6.059  14.781 -1.1479  1.7710  1.5435
11343TIP3    H255445   6.308   6.045  14.755 -0.5584 -0.3736 -1.1277
11344TIP3   OH255446   6.721   5.319  16.281  0.1006  0.1741 -0.2504
11344TIP3    H155447   6.705   5.226  16.298  0.5130  0.0054 -0.7605
11344TIP3    H255448   6.647   5.347  16.228  0.6336 -0.1961 -1.2134
11345TIP3   OH255449   5.855   3.478   5.277  0.5287 -0.5070 -0.5381
11345TIP3    H155450   5.813   3.504   5.195  2.1548  0.1179 -1.2181
11345TIP3    H255451   5.914   3.407   5.251  0.8112 -0.5267  0.1495
11346TIP3   OH255452   3.490   0.171  16.488 -0.0094 -0.5937  0.1068
11346TIP3    H155453   3.439   0.239  16.532 -0.2800 -0.4335 -0.4597
11346TIP3    H255454   3.426   0.121  16.437  0.2748 -0.9110  0.0541
11347TIP3   OH255455   5.109   3.184   4.773 -0.3925 -0.2511  0.2064
11347TIP3    H155456   5.172   3.135   4.825 -0.6887 -0.4778  0.3567
11347TIP3    H255457   5.071   3.247   4.835 -1.3797 -1.1075  0.5012
11348TIP3   OH255458   1.059   0.129   2.826  0.1086 -0.2005 -0.2295
11348TIP3    H155459   1.086   0.219   2.808 -1.3270  0.0174 -1.4963
11348TIP3    H255460   1.072   0.084   2.742  1.2143 -1.3008  0.5006
11349TIP3   OH255461   3.869   0.787  12.595 -0.6901  0.0035  0.3827
11349TIP3    H155462   3.944   0.822  12.643 -1.2963 -0.0085  1.3439
11349TIP3    H255463   3.884   0.693  12.593  1.4150  0.2080 -2.9807
11350TIP3   OH255464   2.247   3.879  14.892 -0.0459  0.0656 -0.3544
11350TIP3    H155465   2.197   3.949  14.935 -0.2276  1.0233 -2.0286
11350TIP3    H255466   2.189   3.847  14.823  0.5656 -0.8270 -0.4703
11351TIP3   OH255467   2.311   4.471  13.043 -0.3844  0.0125 -0.1495
11351TIP3    H155468   2.287   4.483  12.952  2.0422  3.7787 -0.5338
11351TIP3    H255469   2.263   4.540  13.090 -0.0858 -0.5957  1.1008
11352TIP3   OH255470   1.161   0.923   6.734  0.3204  0.1715 -0.3165
11352TIP3    H155471   1.141   0.943   6.826  1.0167 -1.3737  0.2037
11352TIP3    H255472   1.169   1.009   6.692 -1.5937  0.9209  0.6937
11353TIP3   OH255473   4.868   4.950  16.487 -0.7829 -0.0958 -0.0377
11353TIP3    H155474   4.809   4.882  16.454  0.0518 -1.5111  1.2538
11353TIP3    H255475   4.934   4.960  16.418 -0.5048 -1.1348  0.0634
11354TIP3   OH255476   4.504   0.314  14.988 -0.0234  0.3686  0.1639
11354TIP3    H155477   4.421   0.308  14.940 -0.6972 -0.8130  1.3940
11354TIP3    H255478   4.538   0.224  14.988  1.9236  1.0422 -1.3902
11355TIP3   OH255479   3.902   0.954   3.415 -0.4262  0.5523 -0.4055
11355TIP3    H155480   3.928   0.863   3.431  1.8101  1.0190 -0.9732
11355TIP3    H255481   3.861   0.983   3.496  2.2204  0.0997  1.2022
11356TIP3   OH255482   3.352   1.155   1.050 -0.5733 -0.0734  0.0881
11356TIP3    H155483   3.385   1.234   1.094  1.6358 -1.9823  2.1064
11356TIP3    H255484   3.321   1.187   0.965  1.4785  2.7901  0.2583
11357TIP3   OH255485   5.958   0.663   3.729 -0.0931 -0.6862  0.3632
11357TIP3    H155486   5.970   0.744   3.679  0.2670 -1.5966 -1.1112
11357TIP3    H255487   5.997   0.681   3.814 -1.1239  1.0791  0.5186
11358TIP3   OH255488   5.963   3.421  11.263  0.1997  0.3301  0.0232
11358TIP3    H155489   5.942   3.384  11.349  1.7728 -2.6609 -0.7716
11358TIP3    H255490   5.916   3.366  11.201 -0.7996  2.3657 -1.1366
11359TIP3   OH255491   1.424   6.655  14.020  0.2236  0.2298  0.3352
11359TIP3    H155492   1.437   6.750  14.012 -0.2305  0.1004 -3.8130
11359TIP3    H255493   1.333   6.641  13.995  0.0672 -1.3337  1.5845
11360TIP3   OH255494   6.221   5.684  10.627 -0.6571 -0.4049  0.1978
11360TIP3    H155495   6.143   5.633  10.606 -0.3939  0.0461 -2.2704
11360TIP3    H255496   6.248   5.721  10.543  0.7410  1.5580  1.4218
11361TIP3   OH255497   1.042   4.821  14.052 -0.1700  0.6610  0.2786
11361TIP3    H155498   1.039   4.908  14.091  1.5042  0.6426  0.5307
11361TIP3    H255499   1.111   4.775  14.100 -0.8557 -0.7317 -0.0104
11362TIP3   OH255500   1.335   5.929  10.967  0.0609  0.2928  0.2192
11362TIP3    H155501   1.289   5.957  10.888  1.2332 -0.3513 -0.7185
11362TIP3    H255502   1.355   6.011  11.012  0.1455  0.7294 -0.5882
11363TIP3   OH255503   3.941   4.014   1.237 -0.1248 -0.0278  0.0028
11363TIP3    H155504   3.990   4.069   1.296 -1.4881  0.5333  0.6636
11363TIP3    H255505   4.007   3.963   1.189  1.0148 -0.1784  1.6783
11364TIP3   OH255506   6.661   2.974  15.014  0.1947  0.9540  0.2480
11364TIP3    H155507   6.573   2.954  15.046  0.4056  0.0369  0.2923
11364TIP3    H255508   6.671   3.068  15.027 -0.7049  1.0290  0.4269
11365TIP3   OH255509   1.565   5.889  13.904 -0.1865 -0.3707  0.0296
11365TIP3    H155510   1.526   5.960  13.954  0.0286  0.1683 -0.5461
11365TIP3    H255511   1.492   5.851  13.854 -0.1522  0.0159 -0.3208
11366TIP3   OH255512   6.338   2.158  13.406  0.0464 -0.1282  0.4242
11366TIP3    H155513   6.253   2.201  13.397  0.1105 -0.2595 -1.1524
11366TIP3    H255514   6.318   2.065  13.401  0.3400 -0.1444 -0.9720
11367TIP3   OH255515   5.696   2.605   4.232 -0.9540  0.5990  0.5555
11367TIP3    H155516   5.764   2.673   4.236 -0.4962  0.1429  0.6880
11367TIP3    H255517   5.680   2.582   4.323 -0.5410 -0.0192  0.4759
11368TIP3   OH255518   2.369   1.487  16.167  0.7731 -0.4106  0.3210
11368TIP3    H155519   2.426   1.428  16.118 -0.0878 -0.9641 -0.0327
11368TIP3    H255520   2.336   1.434  16.239  0.5299 -0.1578  0.3984
11369TIP3   OH255521   5.594   6.131   1.046 -0.3488  0.0747 -0.4548
11369TIP3    H155522   5.513   6.111   0.998 -1.0448  0.9475  0.3156
11369TIP3    H255523   5.585   6.084   1.128  1.1001 -1.8808 -1.3369
11370TIP3   OH255524   5.429   2.761   4.224  0.0789  0.6103  0.3573
11370TIP3    H155525   5.510   2.760   4.276 -0.0258 -1.2361  0.5434
11370TIP3    H255526   5.459   2.769   4.133  0.4181  0.9681  0.4993
11371TIP3   OH255527   3.776   2.179  10.802  0.1416  0.7125  0.1065
11371TIP3    H155528   3.866   2.176  10.832 -0.5722 -0.1066  2.3829
11371TIP3    H255529   3.767   2.264  10.760  2.8094 -0.4770 -3.2705
11372TIP3   OH255530   1.106   0.683  11.051 -0.0945 -0.5101  0.4788
11372TIP3    H155531   1.029   0.713  11.002 -1.4342 -0.8133  2.2967
11372TIP3    H255532   1.180   0.716  11.001 -1.4179  0.9982 -0.5933
11373TIP3   OH255533   3.591   5.299   3.133  0.5439  0.0518 -0.2527
11373TIP3    H155534   3.571   5.247   3.211  1.8828 -0.7535 -0.4210
11373TIP3    H255535   3.659   5.360   3.162 -0.9520  1.6918 -0.0792
11374TIP3   OH255536   3.658   5.875   3.491  0.5819 -0.4328 -0.4995
11374TIP3    H155537   3.563   5.876   3.495  0.5568  0.3157 -1.0911
11374TIP3    H255538   3.685   5.817   3.563 -0.3138 -0.7204 -0.3919
11375TIP3   OH255539   1.351   4.481  16.739 -0.5291  1.0924 -0.6895
11375TIP3    H155540   1.318   4.542  16.673 -1.1427  1.5467  0.0154
11375TIP3    H255541   1.283   4.479  16.806 -0.5119 -0.3929 -0.6975
11376TIP3   OH255542   1.768   2.017   3.559 -0.4245 -0.7824  0.1353
11376TIP3    H155543   1.788   1.925   3.572 -2.9002 -1.6249 -1.2082
11376TIP3    H255544   1.688   2.032   3.610 -0.8316  0.2081 -0.7289
11377TIP3   OH255545   1.990   5.393  16.596 -0.1421 -0.1936  0.0880
11377TIP3    H155546   1.931   5.327  16.561 -0.0433 -0.0733 -0.3140
11377TIP3    H255547   1.936   5.445  16.655 -0.7319  0.6197 -1.1439
11378TIP3   OH255548   2.241   2.358   5.424  0.3545 -0.4588 -0.4977
11378TIP3    H155549   2.271   2.427   5.365 -0.7862  1.0893  0.6464
11378TIP3    H255550   2.199   2.405   5.496 -1.1314 -2.3831 -0.0252
11379TIP3   OH255551   6.169   5.059   1.577  0.0868 -0.0726  0.6711
11379TIP3    H155552   6.260   5.050   1.552 -0.0485  0.8878 -0.2201
11379TIP3    H255553   6.141   4.970   1.598  0.7956 -0.6088 -0.5718
11380TIP3   OH255554   3.202   5.547   2.412  0.1317  0.1709  0.0819
11380TIP3    H155555   3.183   5.638   2.434  1.2041  0.8944 -1.7499
11380TIP3    H255556   3.119   5.512   2.380  0.3910  1.5149 -2.2497
11381TIP3   OH255557   4.740   6.061   2.123  0.3104 -0.9772  0.0650
11381TIP3    H155558   4.674   6.084   2.189  0.6489 -0.8221  0.3510
11381TIP3    H255559   4.696   5.998   2.066 -1.5910  2.0940 -2.2585
11382TIP3   OH255560   1.846   0.730  15.276  0.7257 -0.3306  0.2377
11382TIP3    H155561   1.773   0.713  15.217 -0.2825  4.6985 -0.3671
11382TIP3    H255562   1.920   0.748  15.219  0.9956 -0.0874  0.6564
11383TIP3   OH255563   4.820   1.993  11.322  0.8870  0.5663  0.0536
11383TIP3    H155564   4.740   1.995  11.270 -0.1032 -0.5605  1.4270
11383TIP3    H255565   4.879   1.935  11.274 -0.5759 -1.7213  0.8311
11384TIP3   OH255566   1.073   6.448  13.934 -0.2876  0.2332  0.2684
11384TIP3    H155567   1.027   6.436  13.851  1.0104  0.9086 -0.5854
11384TIP3    H255568   1.070   6.542  13.950 -1.2497  0.0314  1.4490
11385TIP3   OH255569   1.914   3.671  10.673 -0.1490 -0.0389  0.3538
11385TIP3    H155570   2.007   3.664  10.653  0.4457  1.4119  2.2919
11385TIP3    H255571   1.887   3.755  10.634  0.3327  1.3836  2.8635
11386TIP3   OH255572   4.170   4.327   0.738 -0.5619  0.4052  0.1990
11386TIP3    H155573   4.165   4.387   0.663 -1.5580  0.5984  0.4054
11386TIP3    H255574   4.148   4.241   0.701  0.7159  0.1757 -0.0671
11387TIP3   OH255575   4.072   1.601  12.830  0.3655 -0.3728  0.1131
11387TIP3    H155576   4.023   1.672  12.872 -0.9881 -1.0227 -0.2938
11387TIP3    H255577   4.116   1.556  12.902  0.3559  0.2309  0.4999
11388TIP3   OH255578   5.843   3.597   4.248 -0.3198  0.2330  0.4816
11388TIP3    H155579   5.927   3.603   4.294  0.0606  2.1033 -0.3613
11388TIP3    H255580   5.820   3.688   4.228 -1.2188 -0.4023 -1.6806
11389TIP3   OH255581   3.136   6.118  12.832  0.0938  0.0481  0.2826
11389TIP3    H155582   3.092   6.037  12.858 -1.2512  0.5163 -0.4341
11389TIP3    H255583   3.165   6.157  12.915 -3.0480  0.9085  1.1317
11390TIP3   OH255584   2.095   2.285   3.040 -0.1822  0.4639 -0.3891
11390TIP3    H155585   2.174   2.273   3.093 -1.2898 -2.0095  0.9041
11390TIP3    H255586   2.095   2.378   3.017  2.1799  0.8995  1.0249
11391TIP3   OH255587   4.976   5.683   6.002 -0.1550 -0.0493 -0.6938
11391TIP3    H155588   4.979   5.659   6.094  0.4918  2.8437  0.1187
11391TIP3    H255589   5.026   5.764   5.996  1.7721 -1.2868 -4.0291
11392TIP3   OH255590   0.770   3.090  16.863  0.4794  0.2824 -0.2610
11392TIP3    H155591   0.742   3.020  16.804 -1.5823  0.4194  0.4956
11392TIP3    H255592   0.841   3.051  16.914 -0.9557 -1.4777  0.4935
11393TIP3   OH255593   5.590   3.263   5.762 -0.2627  0.6623 -0.1045
11393TIP3    H155594   5.663   3.308   5.719  1.5525  0.5024  2.5521
11393TIP3    H255595   5.627   3.180   5.791 -1.8032  0.1331  0.4335
11394TIP3   OH255596   2.304   2.880  11.785  0.3847  0.0693 -0.6768
11394TIP3    H155597   2.343   2.932  11.715  2.6578 -0.2850  0.2208
11394TIP3    H255598   2.349   2.796  11.781 -1.7772 -1.1534 -0.8162
11395TIP3   OH255599   5.985   1.869   1.272  0.2008 -0.0815  0.0714
11395TIP3    H155600   6.074   1.882   1.303 -0.2304  0.3117  1.1688
11395TIP3    H255601   5.983   1.912   1.186  1.6480 -1.9416 -0.9803
11396TIP3   OH255602   5.230   0.000  14.492  0.2895 -0.0443 -0.1203
11396TIP3    H155603   5.242  -0.095  14.491  0.6363 -0.0441  1.2493
11396TIP3    H255604   5.176   0.019  14.416 -1.4338 -1.5828  0.6555
11397TIP3   OH255605   4.597   1.340   1.537 -0.0535 -0.3326 -0.5016
11397TIP3    H155606   4.655   1.390   1.481 -0.7076 -0.8783 -1.6887
11397TIP3    H255607   4.644   1.335   1.621  1.5909 -0.7028 -1.3947
11398TIP3   OH255608   0.723   5.218  14.192  0.2019 -0.3310  0.1389
11398TIP3    H155609   0.712   5.205  14.098  2.8286  2.2780 -0.6557
11398TIP3    H255610   0.647   5.270  14.217  0.4058  0.5289 -0.9519
11399TIP3   OH255611   0.944   3.355  12.510  0.7284 -0.6231 -0.0008
11399TIP3    H155612   1.012   3.393  12.454  0.3945  0.3640  0.2368
11399TIP3    H255613   0.962   3.391  12.597 -0.7831  0.6592 -0.1592
11400TIP3   OH255614   3.777   2.100  11.779 -0.2475  0.1166 -0.3995
11400TIP3    H155615   3.682   2.091  11.783 -0.1785 -0.2733  0.9593
11400TIP3    H255616   3.793   2.190  11.807 -0.2107  0.1591 -0.5571
11401TIP3   OH255617   4.932   3.725  15.965 -0.0247 -0.0732 -0.2956
11401TIP3    H155618   4.916   3.644  16.013 -0.8873 -0.0890 -0.6093
11401TIP3    H255619   4.915   3.703  15.874 -0.8453  0.6084 -0.3164
11402TIP3   OH255620   4.867   3.526  16.742  0.4871  1.0680  0.0400
11402TIP3    H155621   4.946   3.579  16.752  0.2147  1.0596  3.1991
11402TIP3    H255622   4.898   3.435  16.747  0.4670  1.0264 -0.5874
11403TIP3   OH255623   2.977   1.453   2.031  0.7163 -0.4079 -0.3391
11403TIP3    H155624   2.956   1.466   2.123  1.1221  0.2283 -0.3354
11403TIP3    H255625   3.066   1.417   2.032  0.6718 -0.5230 -0.4803
11404TIP3   OH255626   1.990   3.089   4.495  0.1718 -0.5187  0.3392
11404TIP3    H155627   1.908   3.120   4.457  0.3303 -0.9670 -0.3828
11404TIP3    H255628   2.057   3.148   4.460  0.4606 -1.5661 -0.9572
11405TIP3   OH255629   2.889   6.376   3.285  0.0419  0.4859  0.1950
11405TIP3    H155630   2.927   6.288   3.289  0.3636  0.6642  1.5104
11405TIP3    H255631   2.808   6.364   3.236 -0.0793 -0.6063  0.6280
11406TIP3   OH255632   0.525   1.555  15.982  0.0901 -0.3662 -0.4061
11406TIP3    H155633   0.438   1.527  16.011  0.5924 -0.1380  1.4824
11406TIP3    H255634   0.528   1.533  15.889 -1.9568 -0.4338 -0.5022
11407TIP3   OH255635   0.552   2.094  13.174  0.0784  0.0090 -0.1956
11407TIP3    H155636   0.617   2.096  13.244  0.4192  0.5900 -0.5239
11407TIP3    H255637   0.601   2.070  13.096 -0.5235 -1.9343 -0.0235
11408TIP3   OH255638   3.832   3.354  12.092 -0.1488  0.2658  0.6580
11408TIP3    H155639   3.856   3.439  12.128 -1.5400  0.1960  1.8583
11408TIP3    H255640   3.736   3.353  12.097 -0.3452 -0.3311 -1.8015
11409TIP3   OH255641   3.416   2.346   2.543 -0.1700  0.1078 -0.4965
11409TIP3    H155642   3.360   2.284   2.496 -0.8564  0.9949 -0.8844
11409TIP3    H255643   3.503   2.333   2.505 -0.1280 -1.1640 -0.0138
11410TIP3   OH255644   5.902   5.861  10.823 -0.1019 -1.1937  0.4547
11410TIP3    H155645   5.911   5.938  10.767 -2.5110 -0.6534  0.6839
11410TIP3    H255646   5.842   5.804  10.775 -0.9775 -1.4064  1.7511
11411TIP3   OH255647   4.366   1.202   0.176  0.4442  1.4258  0.0261
11411TIP3    H155648   4.350   1.144   0.101  2.0923  0.1127  0.6156
11411TIP3    H255649   4.390   1.286   0.137  1.2490  0.7673 -0.9442
11412TIP3   OH255650   0.490   5.572  15.520 -0.3342  0.3594  0.1378
11412TIP3    H155651   0.528   5.501  15.469 -1.1828 -0.1530  0.2000
11412TIP3    H255652   0.553   5.586  15.592  2.6153  3.2942 -2.6449
11413TIP3   OH255653   5.507   2.713  14.325 -0.0591  0.2787 -0.8928
11413TIP3    H155654   5.441   2.671  14.271  0.9884 -2.7936  0.0047
11413TIP3    H255655   5.511   2.660  14.405  2.4075  1.2346 -0.2666
11414TIP3   OH255656   5.535   5.398  16.841  0.1784  0.1412 -0.0195
11414TIP3    H155657   5.573   5.347  16.770 -0.2175 -0.2108  0.0188
11414TIP3    H255658   5.594   5.384  16.915  1.4421  1.7278 -0.6742
11415TIP3   OH255659   6.299   0.258   4.472 -0.2011 -0.3935 -0.1096
11415TIP3    H155660   6.244   0.180   4.460  0.1025 -0.3126 -2.5255
11415TIP3    H255661   6.245   0.331   4.441  0.1972  0.0914  0.3302
11416TIP3   OH255662   3.267   5.694   0.639 -0.0080 -0.0950 -0.2858
11416TIP3    H155663   3.271   5.701   0.735 -3.8357  1.0090 -0.0326
11416TIP3    H255664   3.244   5.603   0.622 -2.6318  0.4102  0.1767
11417TIP3   OH255665   5.652   0.757  15.166  0.1838 -0.0169 -0.0816
11417TIP3    H155666   5.605   0.678  15.192 -0.9283  0.4231 -0.7090
11417TIP3    H255667   5.739   0.725  15.141  0.0121 -0.9302  0.4438
11418TIP3   OH255668   0.585   0.543  15.245 -0.9265 -0.2922  0.1418
11418TIP3    H155669   0.568   0.506  15.159 -0.3727 -0.4351  0.0888
11418TIP3    H255670   0.565   0.636  15.236  0.1811 -0.0864 -0.4603
11419TIP3   OH255671   2.477   5.653   1.572  0.2408 -0.4159 -0.3202
11419TIP3    H155672   2.417   5.620   1.639 -0.0587 -0.7769 -0.7607
11419TIP3    H255673   2.462   5.748   1.571 -1.6820 -0.6818 -1.6970
11420TIP3   OH255674   1.811   5.440  13.397  0.0024 -0.2897  0.0986
11420TIP3    H155675   1.759   5.427  13.318  0.7630 -0.5188 -0.3731
11420TIP3    H255676   1.835   5.533  13.394  1.4935 -0.6832 -0.8699
11421TIP3   OH255677   6.380   2.120   4.595 -0.0044 -0.3445  0.5380
11421TIP3    H155678   6.296   2.130   4.551  1.1452  2.4897 -1.3294
11421TIP3    H255679   6.365   2.152   4.684 -0.3761  3.1625 -0.6151
11422TIP3   OH255680   4.203   3.653  16.442 -0.3079  0.4946 -0.1310
11422TIP3    H155681   4.169   3.580  16.391 -2.2886  0.9603  0.4528
11422TIP3    H255682   4.289   3.623  16.472 -0.9853 -1.5178 -0.0643
11423TIP3   OH255683   0.348   0.270   4.898 -0.0999  0.5078  0.1018
11423TIP3    H155684   0.341   0.175   4.909  1.6193  0.4856  1.4292
11423TIP3    H255685   0.314   0.287   4.810 -0.6540 -1.2953 -0.0708
11424TIP3   OH255686   4.234   3.701   1.461 -0.1725  0.4407  0.0114
11424TIP3    H155687   4.158   3.643   1.467 -0.3107  0.7299  1.4636
11424TIP3    H255688   4.202   3.779   1.416 -0.3664  0.0139 -0.6072
11425TIP3   OH255689   4.118   1.876   1.546 -0.2610  0.5526  0.0521
11425TIP3    H155690   4.154   1.835   1.467  0.9172  1.7163 -0.0699
11425TIP3    H255691   4.024   1.879   1.531 -0.0462  0.9219 -1.4152
11426TIP3   OH255692   1.863   5.226   2.389 -0.2955 -0.3328  0.1307
11426TIP3    H155693   1.781   5.240   2.435 -1.1654 -3.1660 -0.4015
11426TIP3    H255694   1.838   5.211   2.298  1.0027  0.5700 -0.4178
11427TIP3   OH255695   5.429   6.081  12.673  0.2069  0.2042  0.0228
11427TIP3    H155696   5.354   6.022  12.662 -0.3107  0.2313  2.7098
11427TIP3    H255697   5.486   6.035  12.735 -0.1292  2.3580  2.0882
11428TIP3   OH255698   4.797   4.690  13.588 -0.0512  0.2382 -0.0457
11428TIP3    H155699   4.832   4.688  13.677 -0.2300 -1.0446  0.0081
11428TIP3    H255700   4.861   4.743  13.539  0.0441  0.9619  0.8296
11429TIP3   OH255701   0.572   4.302  11.358  0.4142  0.2267 -0.0324
11429TIP3    H155702   0.617   4.335  11.436  1.0066 -0.2498 -0.1667
11429TIP3    H255703   0.625   4.229  11.328 -0.1634 -0.0073 -0.5139
11430TIP3   OH255704   1.134   4.211   1.731 -0.3235 -0.3899 -0.4332
11430TIP3    H155705   1.143   4.163   1.649  2.3443  1.3790 -1.3370
11430TIP3    H255706   1.164   4.300   1.710  2.4274 -0.3204  2.8150
11431TIP3   OH255707   0.833   3.589  10.993 -0.0226  0.0286  0.8823
11431TIP3    H155708   0.874   3.577  11.078  0.1532 -0.8814  0.6776
11431TIP3    H255709   0.903   3.571  10.930 -0.7805 -1.8856  0.5278
11432TIP3   OH255710   4.132   4.784  17.006  0.1898  0.8981 -0.4798
11432TIP3    H155711   4.134   4.858  16.946  0.0674  1.3816  0.1071
11432TIP3    H255712   4.077   4.813  17.078  1.0754  0.6639  0.3058
11433TIP3   OH255713   1.043   5.788  14.989 -0.1349 -0.3218  0.7835
11433TIP3    H155714   0.964   5.791  15.044 -1.8503  0.4877 -1.5437
11433TIP3    H255715   1.085   5.872  15.004 -1.4085  0.5242 -0.1990
11434TIP3   OH255716   6.350   6.640   1.908 -0.3598  1.5743 -0.7143
11434TIP3    H155717   6.436   6.632   1.867  0.3529  1.1030  0.8005
11434TIP3    H255718   6.369   6.654   2.001 -1.9158  2.1950 -0.4593
11435TIP3   OH255719   5.080   0.346   2.333 -0.3638 -0.3345 -0.1394
11435TIP3    H155720   5.082   0.289   2.257  1.6564  0.0977 -0.4577
11435TIP3    H255721   5.130   0.298   2.400  1.2085  0.9117 -0.3558
11436TIP3   OH255722   2.169   2.816  10.484 -0.1327  0.1051 -0.4915
11436TIP3    H155723   2.241   2.864  10.444 -0.8858  0.9967 -0.8201
11436TIP3    H255724   2.176   2.835  10.577 -0.0500  0.3266 -0.5438
11437TIP3   OH255725   6.494   3.228  11.455 -0.0201  0.4104 -0.0614
11437TIP3    H155726   6.482   3.138  11.424  1.6356 -0.2153  0.9586
11437TIP3    H255727   6.468   3.225  11.547 -1.2875  1.3339 -0.3729
11438TIP3   OH255728   1.862   6.227   4.175 -0.0736 -0.0169 -0.0522
11438TIP3    H155729   1.793   6.287   4.145 -1.6712  0.1989  3.5486
11438TIP3    H255730   1.937   6.283   4.192  0.0067  0.2193 -1.1495
11439TIP3   OH255731   0.740   2.857   0.642  0.0233  0.4230  0.0265
11439TIP3    H155732   0.688   2.781   0.617 -0.7833  0.8379  0.4404
11439TIP3    H255733   0.815   2.854   0.582 -0.6359  0.0126 -0.8027
11440TIP3   OH255734   3.445   6.489   5.773  0.1247  0.3002 -0.4804
11440TIP3    H155735   3.386   6.563   5.760 -4.0090 -2.3018  1.2609
11440TIP3    H255736   3.436   6.437   5.693 -0.2342 -0.2190 -0.1148
11441TIP3   OH255737   6.515   0.667  14.404 -0.1110 -0.7268 -0.2291
11441TIP3    H155738   6.556   0.642  14.321  1.5499 -0.6688  0.5321
11441TIP3    H255739   6.534   0.594  14.463  0.2226 -0.0305  0.5576
11442TIP3   OH255740   1.224   2.190   5.776  0.0199 -0.3495  0.1410
11442TIP3    H155741   1.162   2.122   5.800 -0.2406 -0.9891 -2.1696
11442TIP3    H255742   1.303   2.169   5.826 -0.8168 -0.9039  1.2770
11443TIP3   OH255743   4.546   6.092  11.927  0.4914  0.5694  0.0214
11443TIP3    H155744   4.586   6.078  12.013 -1.1898 -0.6601  0.6624
11443TIP3    H255745   4.480   6.158  11.941 -0.2477 -0.1157 -0.1570
11444TIP3   OH255746   6.108   5.342  16.709 -0.0492  0.1725  0.1309
11444TIP3    H155747   6.017   5.344  16.680 -0.8322  1.8994  2.4436
11444TIP3    H255748   6.147   5.421  16.672 -0.4614  1.2239  1.8558
11445TIP3   OH255749   2.203   5.103   2.078  0.6158 -0.3350 -0.4126
11445TIP3    H155750   2.286   5.148   2.096  0.9331 -1.6719  1.7334
11445TIP3    H255751   2.217   5.014   2.109 -1.4674 -0.7313 -0.5144
11446TIP3   OH255752   2.826   1.529  14.814 -0.5235  0.1396  0.1068
11446TIP3    H155753   2.763   1.478  14.865  0.9372 -3.4566 -1.3501
11446TIP3    H255754   2.795   1.522  14.723 -0.3369  2.1014 -0.1575
11447TIP3   OH255755   5.166   4.519   4.243  0.1169 -0.4930 -0.0425
11447TIP3    H155756   5.080   4.509   4.283 -0.1081 -1.2048 -0.6785
11447TIP3    H255757   5.161   4.470   4.161  1.4634 -1.4654  0.4188
11448TIP3   OH255758   3.550   0.339   2.779  0.1409  0.0963  0.2449
11448TIP3    H155759   3.612   0.276   2.742 -1.8941 -1.6814 -0.3815
11448TIP3    H255760   3.507   0.377   2.702  1.0567  2.0466  0.6314
11449TIP3   OH255761   3.358   0.246   6.739  0.2019  0.2959  0.4436
11449TIP3    H155762   3.325   0.243   6.829  1.7420 -2.5309  1.0437
11449TIP3    H255763   3.282   0.224   6.685 -1.3726  4.3999  0.6684
11450TIP3   OH255764   2.926   3.242  12.599 -0.4193  0.0252  0.2238
11450TIP3    H155765   2.858   3.302  12.631  0.7844  2.1001 -0.8774
11450TIP3    H255766   3.007   3.276  12.637  0.2870 -1.0679 -0.2644
11451TIP3   OH255767   5.519   6.044   5.276  0.2929 -0.5876 -0.2282
11451TIP3    H155768   5.613   6.061   5.284 -0.0721  1.0304  1.4709
11451TIP3    H255769   5.496   6.003   5.359 -0.7256  0.3473 -0.0238
11452TIP3   OH255770   1.030   4.759  12.852  0.7998  0.2658 -0.1695
11452TIP3    H155771   1.046   4.676  12.898 -1.9317 -0.8982 -1.0900
11452TIP3    H255772   1.055   4.742  12.762 -0.2412  0.2274 -0.4666
11453TIP3   OH255773   5.507   0.581   5.900 -0.2205  0.6806 -0.5361
11453TIP3    H155774   5.434   0.527   5.929 -1.3348  2.3290 -0.1198
11453TIP3    H255775   5.563   0.591   5.977 -0.8307  1.3768 -0.1739
11454TIP3   OH255776   5.277   5.950   5.143 -0.0314  0.3622 -0.0848
11454TIP3    H155777   5.252   5.883   5.078 -3.2618  0.6101  0.7296
11454TIP3    H255778   5.306   5.899   5.219  0.4467 -0.0139 -0.5095
11455TIP3   OH255779   1.150   1.967   0.876  0.0419  0.0064  0.4661
11455TIP3    H155780   1.237   1.957   0.916  0.9084  2.1242 -0.7359
11455TIP3    H255781   1.107   2.034   0.929 -0.1372  0.2954 -0.0414
11456TIP3   OH255782   1.539   6.178   2.354  0.4908  0.2205 -0.1615
11456TIP3    H155783   1.570   6.264   2.382 -0.6421  0.8707 -0.8443
11456TIP3    H255784   1.468   6.196   2.293  0.2555 -1.2059 -0.3533
11457TIP3   OH255785   3.743   2.404  11.832  0.1824  0.3865  0.6738
11457TIP3    H155786   3.796   2.444  11.900 -0.4087 -1.8411  2.5718
11457TIP3    H255787   3.653   2.412  11.864 -0.0278 -1.5421  0.7158
11458TIP3   OH255788   6.430   4.768   1.626  0.1047  0.2933  0.6321
11458TIP3    H155789   6.447   4.860   1.604 -1.5881  0.3774 -0.4746
11458TIP3    H255790   6.482   4.753   1.705  0.4357  2.1928  0.8269
11459TIP3   OH255791   6.204   1.195  13.485 -0.2024  0.1012 -0.1219
11459TIP3    H155792   6.282   1.154  13.447 -1.4586 -1.0750 -1.5783
11459TIP3    H255793   6.204   1.166  13.577  0.7303 -0.4217 -0.2782
11460TIP3   OH255794   2.033   6.615   5.551  0.6096  0.4021  0.1225
11460TIP3    H155795   1.939   6.605   5.540  0.2454 -0.0069  2.9068
11460TIP3    H255796   2.050   6.707   5.531 -0.2265  0.3140 -1.0970
11461TIP3   OH255797   5.033   4.872   5.789 -0.2452  0.3716  0.3353
11461TIP3    H155798   5.107   4.812   5.797  1.7311  2.5598 -0.5575
11461TIP3    H255799   5.067   4.957   5.817 -2.4715  1.4552 -0.0087
11462TIP3   OH255800   4.518   3.678   1.822  0.0399  0.5825 -0.2223
11462TIP3    H155801   4.507   3.686   1.727  0.6510  0.0745 -0.3410
11462TIP3    H255802   4.612   3.677   1.836 -0.0268 -0.6698  0.2632
11463TIP3   OH255803   6.314   5.023  15.640 -0.0320  0.4671  0.1896
11463TIP3    H155804   6.309   5.117  15.656 -1.1681  0.5050 -0.3026
11463TIP3    H255805   6.393   5.012  15.587  0.9000  0.9559  1.4413
11464TIP3   OH255806   5.332   2.361   1.841  0.2826 -0.4475  0.0588
11464TIP3    H155807   5.394   2.306   1.794 -1.4734 -1.5904 -1.0486
11464TIP3    H255808   5.293   2.304   1.907  1.0862  0.5407  1.4641
11465TIP3   OH255809   4.844   0.060   1.392  0.3744 -0.0201  0.1343
11465TIP3    H155810   4.751   0.061   1.412  0.2399  0.3807 -0.4870
11465TIP3    H255811   4.867  -0.033   1.386  0.7479 -0.2674  3.4887
11466TIP3   OH255812   2.552   4.808  15.881  0.0768 -0.0544  0.1400
11466TIP3    H155813   2.538   4.900  15.902 -0.8927  0.2236 -1.5964
11466TIP3    H255814   2.465   4.773  15.863  0.6721 -0.6553 -1.7322
11467TIP3   OH255815   2.755   4.021  12.108  0.2143 -0.0302  0.1654
11467TIP3    H155816   2.804   4.072  12.044 -0.2689  2.3202  1.5628
11467TIP3    H255817   2.772   4.064  12.192 -4.2753  1.1321  0.7486
11468TIP3   OH255818   6.203   5.997   6.060 -0.4876 -0.0349  0.3173
11468TIP3    H155819   6.226   6.034   6.145  0.5265 -0.7321  0.3669
11468TIP3    H255820   6.141   5.928   6.079 -0.3286 -0.1315  0.4811
11469TIP3   OH255821   6.800   4.901   3.306  0.1635  0.0789  0.6100
11469TIP3    H155822   6.833   4.815   3.280 -1.2180 -1.0257  2.2614
11469TIP3    H255823   6.774   4.943   3.225  1.1640 -0.9090 -0.2606
11470TIP3   OH255824   4.393   1.282  15.688  0.1499  0.3059 -0.1234
11470TIP3    H155825   4.375   1.226  15.612 -1.4835  0.7666 -0.1221
11470TIP3    H255826   4.356   1.234  15.762  3.8777 -1.3215  0.8914
11471TIP3   OH255827   6.423   6.102  15.730 -0.3256 -0.1364 -0.1624
11471TIP3    H155828   6.482   6.081  15.801  0.6821 -0.0503 -0.9497
11471TIP3    H255829   6.347   6.141  15.772  0.3292  0.0795  0.8406
11472TIP3   OH255830   2.426   1.014  12.633  0.1093 -0.5570  0.9816
11472TIP3    H155831   2.480   0.937  12.614 -0.1105 -0.2471 -1.1936
11472TIP3    H255832   2.338   0.979  12.644  0.1321 -0.7036  0.7213
11473TIP3   OH255833   0.506   1.132   5.679  0.1531  0.3844  0.3838
11473TIP3    H155834   0.456   1.214   5.684 -0.9507 -0.2882  0.8677
11473TIP3    H255835   0.591   1.158   5.646 -0.3597  1.6521 -0.0102
11474TIP3   OH255836   3.069   4.367  14.114 -0.2249  0.1359 -0.6635
11474TIP3    H155837   2.983   4.403  14.135 -0.0649 -0.3325  0.9423
11474TIP3    H255838   3.100   4.420  14.040 -1.5902  0.7396 -0.8418
11475TIP3   OH255839   2.994   6.249   6.421 -0.4625  0.1101 -0.3568
11475TIP3    H155840   2.976   6.309   6.348  1.2561  0.5616 -0.4547
11475TIP3    H255841   3.029   6.170   6.379 -0.2938  0.0385 -0.0827
11476TIP3   OH255842   1.112   4.244  12.312 -0.2950  0.2527  0.2905
11476TIP3    H155843   1.045   4.216  12.250  0.5669 -2.2942  0.3897
11476TIP3    H255844   1.178   4.288  12.258 -1.4880  1.8916  0.0663
11477TIP3   OH255845   5.053   2.012  14.875  0.0092  0.1020 -0.1722
11477TIP3    H155846   5.112   1.978  14.807 -0.2388  0.7366 -0.7210
11477TIP3    H255847   4.975   1.957  14.868  0.6124 -0.8905  0.7130
11478TIP3   OH255848   2.350   5.813  13.194 -0.1870 -0.6664  0.5774
11478TIP3    H155849   2.409   5.888  13.185 -1.1130 -0.0287 -0.4924
11478TIP3    H255850   2.263   5.848  13.175 -0.7900 -1.7927  1.1398
11479TIP3   OH255851   0.096   1.253   0.591 -0.2459  0.0211 -0.3884
11479TIP3    H155852   0.069   1.195   0.520  0.1372  0.2614 -0.7342
11479TIP3    H255853   0.027   1.244   0.657 -0.3735 -0.5524 -0.5921
11480TIP3   OH255854   0.201   2.938   3.804 -0.4897 -0.0543 -0.6506
11480TIP3    H155855   0.296   2.940   3.805 -0.4780 -0.4736 -0.6254
11480TIP3    H255856   0.174   3.026   3.829 -0.1030  0.4165 -1.8141
11481TIP3   OH255857   4.954   4.943   2.093  0.1270  0.2972 -0.3198
11481TIP3    H155858   4.910   5.018   2.053 -0.8926  0.4742  1.0584
11481TIP3    H255859   4.917   4.867   2.047  0.4049  0.5690 -1.0141
11482TIP3   OH255860   4.483   4.554   3.315  0.8624 -0.2061  0.1751
11482TIP3    H155861   4.400   4.519   3.283 -0.3152  1.3890  1.3187
11482TIP3    H255862   4.545   4.537   3.245 -0.8447  0.1169 -1.4936
11483TIP3   OH255863   0.054   3.457  14.128  0.3893 -0.2509  0.4304
11483TIP3    H155864   0.001   3.399  14.182  0.4534  0.9963  1.8958
11483TIP3    H255865  -0.002   3.477  14.053  0.0024 -1.4105  0.3933
11484TIP3   OH255866   5.566   4.928  15.146  0.8472  0.7955  0.0266
11484TIP3    H155867   5.627   4.962  15.212  1.7277  1.3562 -1.0330
11484TIP3    H255868   5.615   4.858  15.104 -0.1577 -0.3716  0.7421
11485TIP3   OH255869   1.119   4.870  15.299 -0.6032  0.2111 -0.4379
11485TIP3    H155870   1.075   4.942  15.344 -0.1939 -0.0037  0.3235
11485TIP3    H255871   1.130   4.901  15.209  0.5504  1.5740  0.1203
11486TIP3   OH255872   3.156   5.137   1.603  0.3054  0.2074 -0.2845
11486TIP3    H155873   3.117   5.154   1.517 -1.1246 -1.4625 -0.0107
11486TIP3    H255874   3.221   5.069   1.586 -1.6858 -1.9430  0.2536
11487TIP3   OH255875   4.545   4.940  12.446  0.5764  0.4092 -0.5355
11487TIP3    H155876   4.515   4.972  12.361  0.7505 -1.5907 -1.4049
11487TIP3    H255877   4.584   4.854  12.427 -0.5403 -0.6806  1.7221
11488TIP3   OH255878   1.629   1.304  12.163  0.1371 -0.0309 -0.3356
11488TIP3    H155879   1.650   1.387  12.119 -0.4243 -0.7368 -2.0132
11488TIP3    H255880   1.714   1.265  12.183  0.4299 -0.0846 -1.6111
11489TIP3   OH255881   0.361   1.248   1.954 -0.4189 -0.0791  0.4812
11489TIP3    H155882   0.400   1.319   1.902 -1.5045 -0.3592 -0.7789
11489TIP3    H255883   0.430   1.223   2.015  1.1317 -0.0417 -1.1416
11490TIP3   OH255884   1.125   0.589   0.301 -0.2561 -0.2846 -0.2637
11490TIP3    H155885   1.061   0.655   0.277  1.1021  0.7378 -1.2358
11490TIP3    H255886   1.186   0.634   0.360  2.1529  0.2162 -2.9185
11491TIP3   OH255887   3.769   1.864   4.459  0.1096 -0.0414  0.5906
11491TIP3    H155888   3.676   1.861   4.483 -0.4278 -2.2239 -1.3675
11491TIP3    H255889   3.774   1.929   4.390 -0.0928 -0.2908  0.3357
11492TIP3   OH255890   6.474   2.728  14.840  0.1850  0.4091 -0.0158
11492TIP3    H155891   6.415   2.801  14.820 -0.4661  0.2115  1.1196
11492TIP3    H255892   6.518   2.710  14.757 -0.1655  1.6227 -0.4928
11493TIP3   OH255893   6.100   0.219   0.805  0.9955 -0.2483 -0.6131
11493TIP3    H155894   6.107   0.126   0.828 -1.0500 -0.2267  0.2840
11493TIP3    H255895   6.145   0.265   0.876  2.1776 -0.5250 -1.1557
11494TIP3   OH255896   5.283   3.702  10.847  0.6643 -0.2006 -0.1293
11494TIP3    H155897   5.310   3.714  10.938  0.6258 -1.3582  0.0514
11494TIP3    H255898   5.361   3.724  10.796  0.5177  1.0048  0.1362
11495TIP3   OH255899   4.433   1.727   4.893  0.2652 -0.2664 -0.2738
11495TIP3    H155900   4.398   1.808   4.855 -0.5918 -0.9158 -0.9236
11495TIP3    H255901   4.439   1.667   4.819 -0.4042 -1.2141  0.4241
11496TIP3   OH255902   2.959   3.619  16.424  0.0900 -0.0341 -0.0552
11496TIP3    H155903   2.876   3.665  16.424 -0.9375 -1.7609  1.2876
11496TIP3    H255904   2.952   3.557  16.351  0.6849  0.5715 -0.6437
11497TIP3   OH255905   2.539   5.355   1.107 -0.0267 -0.1471  0.4891
11497TIP3    H155906   2.511   5.384   1.194 -0.3086 -0.0261  0.3596
11497TIP3    H255907   2.590   5.429   1.073 -2.1811  0.9602 -0.5388
11498TIP3   OH255908   0.677   0.855   1.514  0.3918  0.1732  0.1647
11498TIP3    H155909   0.629   0.860   1.596  0.8719  0.9403  0.4052
11498TIP3    H255910   0.643   0.927   1.461  0.4855  0.0315 -0.0912
11499TIP3   OH255911   6.654   5.029  14.267  0.0047  0.4415 -0.5775
11499TIP3    H155912   6.741   5.063  14.288 -0.3212  0.2121  1.4102
11499TIP3    H255913   6.669   4.938  14.244  0.3809  0.6670 -1.2607
11500TIP3   OH255914   0.393   2.559   1.134  0.1040  0.3840 -0.4686
11500TIP3    H155915   0.338   2.514   1.198 -1.2904  2.2370 -0.2984
11500TIP3    H255916   0.398   2.498   1.060 -0.5008 -0.6605  0.3254
11501TIP3   OH255917   0.229   1.291  12.147 -0.0404  0.5269 -0.4013
11501TIP3    H155918   0.165   1.286  12.218 -0.7904  1.7114 -0.9567
11501TIP3    H255919   0.280   1.370  12.166 -0.7199  1.2726 -1.5279
11502TIP3   OH255920   3.945   5.281   1.002  0.3365 -0.0070 -0.0589
11502TIP3    H155921   3.922   5.196   1.038  0.8420  0.4630  1.4538
11502TIP3    H255922   3.866   5.310   0.955  0.0018 -1.0740 -0.1700
11503TIP3   OH255923   2.566   4.952   3.365 -0.1118  0.0516  0.1715
11503TIP3    H155924   2.620   4.971   3.442  0.6731  2.1592 -0.8343
11503TIP3    H255925   2.613   4.991   3.292 -1.3398 -1.0369 -1.2695
11504TIP3   OH255926   6.666   5.327  12.804 -0.5506 -0.2249  0.3806
11504TIP3    H155927   6.743   5.377  12.780  0.7154 -0.8504  2.8140
11504TIP3    H255928   6.617   5.384  12.864 -0.3725 -0.9359  1.2268
11505TIP3   OH255929   4.326   4.717  14.830 -0.4650  0.4148  0.0539
11505TIP3    H155930   4.322   4.790  14.892 -2.1972  0.8961 -0.5726
11505TIP3    H255931   4.396   4.661  14.864 -1.4383  0.5700  2.5160
11506TIP3   OH255932   1.452   2.822   4.636 -0.2721  0.2689  0.1456
11506TIP3    H155933   1.467   2.864   4.552  0.7581 -1.4080 -0.5497
11506TIP3    H255934   1.374   2.769   4.623 -0.3980  0.3831  0.4155
11507TIP3   OH255935   3.339   3.439  13.058 -0.9728 -0.2519 -0.1138
11507TIP3    H155936   3.262   3.382  13.050 -2.8610  1.9898  1.0268
11507TIP3    H255937   3.398   3.390  13.116 -1.8742 -1.6586 -0.3208
11508TIP3   OH255938   3.375   0.466  13.403 -0.4578 -0.3195 -0.2079
11508TIP3    H155939   3.351   0.426  13.320  1.0789 -0.6824 -0.4957
11508TIP3    H255940   3.461   0.430  13.424 -1.1169 -0.8055  1.9221
11509TIP3   OH255941   1.248   1.474  15.717  0.0318 -0.2842 -0.6505
11509TIP3    H155942   1.332   1.506  15.750  1.0937 -1.7111 -1.8527
11509TIP3    H255943   1.250   1.380  15.733 -0.5346 -0.6231 -2.3625
11510TIP3   OH255944   5.536   2.459   4.030 -0.0383 -0.2810 -0.2919
11510TIP3    H155945   5.572   2.497   3.950  0.4643  0.7907  0.4169
11510TIP3    H255946   5.572   2.513   4.100 -1.1483 -0.6767  0.6048
11511TIP3   OH255947   2.780   1.114   2.304 -0.0880 -0.7783 -0.4414
11511TIP3    H155948   2.788   1.031   2.257 -0.0056 -0.7379 -0.4992
11511TIP3    H255949   2.718   1.165   2.252 -0.4504 -0.9535 -0.1904
11512TIP3   OH255950   2.834   6.721  16.722  0.7365  0.2356  0.5995
11512TIP3    H155951   2.770   6.786  16.693  0.7991  0.4724  0.9721
11512TIP3    H255952   2.782   6.651  16.761  0.5977 -0.4964 -0.8257
11513TIP3   OH255953   2.175   0.658   3.335 -0.0564  0.6640 -0.4521
11513TIP3    H155954   2.126   0.600   3.394 -1.0182  1.1385 -0.7639
11513TIP3    H255955   2.131   0.648   3.251  1.1378  0.2007 -1.0458
11514TIP3   OH255956   6.255   5.480   0.700 -0.4441 -0.0351 -0.3563
11514TIP3    H155957   6.185   5.544   0.688  0.9563  1.5256 -0.7146
11514TIP3    H255958   6.215   5.408   0.748 -2.4656  0.4290 -1.2674
11515TIP3   OH255959   5.206   6.291  15.630 -0.0032 -0.4581  0.2141
11515TIP3    H155960   5.280   6.349  15.647 -1.2242  1.5755 -0.9863
11515TIP3    H255961   5.208   6.228  15.701  1.1433  1.3615  1.8979
11516TIP3   OH255962   0.690   2.510  12.665  0.5107  0.4934 -0.5762
11516TIP3    H155963   0.607   2.494  12.620 -0.9139  1.6848  1.4454
11516TIP3    H255964   0.731   2.580  12.615  0.4962 -0.2965 -1.7614
11517TIP3   OH255965   5.965   2.967  11.246 -0.0898 -0.1522  0.0487
11517TIP3    H155966   6.002   3.055  11.249  0.9065 -0.4511 -1.9168
11517TIP3    H255967   5.893   2.973  11.184  0.0146 -0.7296 -0.1355
11518TIP3   OH255968   1.581   1.018   0.785 -0.1200 -0.2308 -0.4653
11518TIP3    H155969   1.492   1.002   0.818 -0.1763  0.3976 -0.2998
11518TIP3    H255970   1.638   0.983   0.854 -0.2396 -0.4490 -0.4759
11519TIP3   OH255971   6.668   1.170   0.769 -0.2469  0.6575 -0.6209
11519TIP3    H155972   6.698   1.079   0.770  0.5097  0.8957  0.5813
11519TIP3    H255973   6.576   1.165   0.744  0.2866 -0.2594 -2.5769
11520TIP3   OH255974   5.142   4.328   1.422 -0.4991 -0.4161  0.5639
11520TIP3    H155975   5.206   4.260   1.404  0.6600  0.2189  2.0828
11520TIP3    H255976   5.180   4.408   1.387 -1.4334 -0.3538 -0.3761
11521TIP3   OH255977   4.574   1.779   1.608 -0.5492 -0.1943  0.0765
11521TIP3    H155978   4.525   1.834   1.547 -1.0181 -0.3173  0.3396
11521TIP3    H255979   4.573   1.827   1.691 -0.4241 -0.3071  0.1451
11522TIP3   OH255980   1.723   1.832  15.144 -0.3044 -0.0495 -0.2037
11522TIP3    H155981   1.653   1.888  15.177 -0.9771 -1.6519  1.2798
11522TIP3    H255982   1.803   1.882  15.159 -0.8225  0.3217  1.5882
11523TIP3   OH255983   0.847   1.669  14.963  0.5307 -0.1504 -0.5030
11523TIP3    H155984   0.825   1.721  14.886 -1.4331  3.0894  1.9795
11523TIP3    H255985   0.770   1.614  14.977  0.4462  0.0272 -0.2711
11524TIP3   OH255986   5.807   6.545  14.871 -0.1557 -0.2451  0.0411
11524TIP3    H155987   5.741   6.570  14.806 -0.6570  0.4581  0.7929
11524TIP3    H255988   5.756   6.510  14.944  0.3585 -0.3874  0.3309
11525TIP3   OH255989   3.841   5.099   5.452 -0.5571 -0.1550  0.0614
11525TIP3    H155990   3.873   5.038   5.519  0.2066  0.6985  0.4993
11525TIP3    H255991   3.756   5.129   5.485  0.9182  2.2698  2.0700
11526TIP3   OH255992   1.236   4.715  10.579 -0.0435  0.1479 -0.0431
11526TIP3    H155993   1.262   4.785  10.520  0.5698  0.7412  0.9022
11526TIP3    H255994   1.162   4.673  10.535  1.3816 -0.4550 -1.9667
11527TIP3   OH255995   3.310   5.146  13.858  0.7656 -0.1371 -0.5011
11527TIP3    H155996   3.362   5.226  13.862 -0.4443  0.6951 -0.7030
11527TIP3    H255997   3.291   5.126  13.950  0.8656 -0.0466 -0.4593
11528TIP3   OH255998   2.164   4.006   0.599 -0.0445  0.6539 -0.2989
11528TIP3    H155999   2.231   3.976   0.660 -0.8856 -0.3322  0.1734
11528TIP3    H256000   2.212   4.025   0.518  0.7318 -0.6071 -0.1633
11529TIP3   OH256001   2.066   3.178  14.283 -0.0156 -0.3034 -0.0838
11529TIP3    H156002   2.072   3.214  14.194  0.1613  1.1412  0.4957
11529TIP3    H256003   1.980   3.204  14.314 -0.7484 -2.1758 -0.3664
11530TIP3   OH256004   2.037   2.555   0.702 -0.0723  0.4055 -0.2809
11530TIP3    H156005   2.013   2.567   0.610  0.6549  1.2139 -0.3805
11530TIP3    H256006   1.957   2.575   0.751 -0.4036  0.1775 -0.7297
11531TIP3   OH256007   0.169   3.442   1.629 -0.3898  0.0775 -0.1732
11531TIP3    H156008   0.150   3.353   1.599  1.1462 -0.3722  0.1122
11531TIP3    H256009   0.164   3.437   1.724 -0.7758  0.4321 -0.1692
11532TIP3   OH256010   4.611   3.766  10.930  0.6352 -0.2568 -0.4893
11532TIP3    H156011   4.655   3.761  10.845 -1.0107  0.0377 -1.3998
11532TIP3    H256012   4.601   3.674  10.956  0.0750 -0.4101 -1.2090
11533TIP3   OH256013   2.739   0.840   4.908 -0.0352  0.1999 -0.2533
11533TIP3    H156014   2.744   0.750   4.874  1.1704 -0.2935  1.1427
11533TIP3    H256015   2.822   0.854   4.953 -0.2677  1.9782 -0.2939
11534TIP3   OH256016   2.335   2.492   2.152  0.7333 -0.1105  0.2019
11534TIP3    H156017   2.421   2.450   2.154  1.7803  1.9065 -0.2985
11534TIP3    H256018   2.318   2.514   2.243  1.1285  0.2143  0.1996
11535TIP3   OH256019   2.210   2.551  10.792  0.4021  0.0963  0.2492
11535TIP3    H156020   2.244   2.508  10.870  1.9536 -1.3894 -1.1773
11535TIP3    H256021   2.136   2.497  10.765 -0.0618  0.5444  0.6035
11536TIP3   OH256022   1.990   2.179   0.606 -0.2787 -0.2270 -0.1561
11536TIP3    H156023   2.057   2.241   0.577  0.0033 -0.4586 -0.0051
11536TIP3    H256024   2.022   2.093   0.577 -0.1308 -0.4276  0.5851
11537TIP3   OH256025   1.344   3.638  12.537  0.2497  0.2119 -0.2437
11537TIP3    H156026   1.331   3.568  12.601 -1.5410 -0.9988 -1.8177
11537TIP3    H256027   1.432   3.670  12.554  0.3077 -0.9483  1.9494
11538TIP3   OH256028   0.063   2.411  13.347 -0.3926 -0.0977  0.4679
11538TIP3    H156029   0.076   2.317  13.360  1.8003  0.1584  0.3834
11538TIP3    H256030   0.125   2.434  13.278 -0.5608  1.5185  0.8397
11539TIP3   OH256031   3.554   0.789   6.014  0.2575 -0.0116 -1.0379
11539TIP3    H156032   3.551   0.872   5.966 -1.4152  0.2391 -0.5495
11539TIP3    H256033   3.474   0.743   5.989  0.3779 -0.7846 -0.0662
11540TIP3   OH256034   6.706   1.901   3.751  0.8436  0.3636  0.5013
11540TIP3    H156035   6.798   1.879   3.737  0.6238  0.0475 -0.5278
11540TIP3    H256036   6.703   1.933   3.841  2.3431  2.3696 -0.0709
11541TIP3   OH256037   6.341   1.828  13.360 -0.1448 -0.2178  1.0604
11541TIP3    H156038   6.323   1.795  13.272 -0.4995 -0.6123  1.2775
11541TIP3    H256039   6.434   1.810  13.375 -0.1681 -0.4634  0.8995
11542TIP3   OH256040   2.728   0.378  12.987 -0.4232 -0.7348  0.7310
11542TIP3    H156041   2.735   0.291  12.947 -0.0673 -0.2044 -0.4266
11542TIP3    H256042   2.791   0.376  13.059  0.6014 -0.9968 -0.1482
11543TIP3   OH256043   3.258   0.133  12.213 -0.1713  0.1838  0.0595
11543TIP3    H156044   3.170   0.110  12.244  0.0801 -1.6483 -0.4787
11543TIP3    H256045   3.244   0.207  12.154 -1.0145  1.6715  2.0238
11544TIP3   OH256046   3.785   0.105   3.830  0.2526  0.2171 -0.1648
11544TIP3    H156047   3.872   0.130   3.862  0.0101  0.2171  0.5167
11544TIP3    H256048   3.725   0.140   3.896 -0.6122  3.9377 -2.6215
11545TIP3   OH256049   2.157   0.540  13.719  0.5701  0.8791 -0.7807
11545TIP3    H156050   2.226   0.474  13.726 -0.2349 -0.0025 -1.0298
11545TIP3    H256051   2.130   0.537  13.628 -0.0322  0.9782 -0.6085
11546TIP3   OH256052   0.930   6.160  13.526  0.6290 -0.7900 -1.0442
11546TIP3    H156053   0.874   6.203  13.592 -0.7550 -3.9381  0.0502
11546TIP3    H256054   0.877   6.162  13.446 -0.1285 -1.7607 -0.5916
11547TIP3   OH256055   3.943   4.344  14.947  0.4616  0.1908  0.1556
11547TIP3    H156056   3.909   4.350  15.036  0.6746  0.0780  0.2472
11547TIP3    H256057   3.936   4.433  14.912 -1.5107 -0.1504 -0.4376
11548TIP3   OH256058   2.281   2.681  15.206  0.0894 -0.9140  0.1231
11548TIP3    H156059   2.343   2.691  15.279 -0.0163 -0.7332  0.1896
11548TIP3    H256060   2.195   2.682  15.248 -0.0283  0.2990 -0.1027
11549TIP3   OH256061   1.231   4.692  12.106  0.5924 -0.0968  0.1608
11549TIP3    H156062   1.317   4.656  12.085  1.0043 -0.6066  2.4451
11549TIP3    H256063   1.250   4.780  12.140  0.0291  0.4153 -0.7959
11550TIP3   OH256064   0.926   0.247  15.926  0.2414  0.1668  0.7290
11550TIP3    H156065   0.894   0.158  15.911 -1.4805  0.6628  1.1644
11550TIP3    H256066   0.985   0.264  15.853  0.3041 -1.1912  0.4327
11551TIP3   OH256067   2.735   2.733  14.371  0.0438 -0.1365  0.4195
11551TIP3    H156068   2.700   2.651  14.407  1.4682 -0.0841  2.0315
11551TIP3    H256069   2.823   2.740  14.408 -0.8594  3.3225  2.3631
11552TIP3   OH256070   2.044   0.982  10.749  0.1688  0.0568 -0.4455
11552TIP3    H156071   2.096   0.950  10.824  2.1452  3.5536 -0.0800
11552TIP3    H256072   2.098   0.961  10.673 -0.4996 -0.9996 -0.6471
11553TIP3   OH256073   2.776   6.272  10.822  0.1397  0.3683 -0.2232
11553TIP3    H156074   2.757   6.358  10.860 -1.1090  0.2499 -0.5348
11553TIP3    H256075   2.790   6.289  10.729 -1.8748  0.0515 -0.6279
11554TIP3   OH256076   4.394   5.241   4.083  0.2811  0.0152  0.4626
11554TIP3    H156077   4.357   5.157   4.112  2.8540 -1.1457  0.6247
11554TIP3    H256078   4.395   5.295   4.162 -0.0078 -0.3183  0.7032
11555TIP3   OH256079   3.044   4.665  11.873 -0.4541  0.0604  0.0346
11555TIP3    H156080   3.080   4.630  11.955 -1.3619 -1.3096 -0.1200
11555TIP3    H256081   3.120   4.670  11.814 -0.2729 -1.7137  0.0670
11556TIP3   OH256082   1.446   1.676  15.283 -0.4324 -0.8394  0.0215
11556TIP3    H156083   1.407   1.739  15.223  2.6056 -1.2140 -2.6425
11556TIP3    H256084   1.523   1.720  15.317  1.3445 -2.7124 -1.3394
11557TIP3   OH256085   1.799   3.101   3.219  0.3362  0.2566  0.2225
11557TIP3    H156086   1.770   3.192   3.227 -0.6631 -0.0979  0.9056
11557TIP3    H256087   1.857   3.088   3.294  0.7272  0.4198 -0.0517
11558TIP3   OH256088   2.233   1.607   5.872  0.2264 -0.1202 -0.0942
11558TIP3    H156089   2.323   1.630   5.848  0.5120  0.9098  1.7133
11558TIP3    H256090   2.243   1.555   5.952 -0.7575 -1.0838 -0.5739
11559TIP3   OH256091   2.776   6.104   0.782  0.1216  0.0041  0.3799
11559TIP3    H156092   2.738   6.142   0.862 -1.3533 -0.4666 -0.0700
11559TIP3    H256093   2.844   6.045   0.814  1.0251  1.4156  1.1756
11560TIP3   OH256094   0.945   4.321  16.246  0.1436 -0.0542  0.0830
11560TIP3    H156095   0.999   4.255  16.288 -0.3166  0.5355  1.6757
11560TIP3    H256096   0.931   4.388  16.314 -0.8366  0.8139 -0.9325
11561TIP3   OH256097   0.503   5.803   6.038 -0.2098 -0.2261  0.0652
11561TIP3    H156098   0.436   5.736   6.051 -0.4277  0.0087  0.1606
11561TIP3    H256099   0.530   5.828   6.127 -0.7755  0.4531  0.0624
11562TIP3   OH256100   1.099   6.285   0.474  0.2576  0.4725 -0.3250
11562TIP3    H156101   1.124   6.239   0.394  0.8291  0.7987 -0.3411
11562TIP3    H256102   1.014   6.324   0.453 -0.9030 -1.6690  0.1502
11563TIP3   OH256103   0.109   0.024  11.885  0.7571  0.5119  0.0485
11563TIP3    H156104   0.080   0.053  11.972 -0.0057  1.1102 -0.3897
11563TIP3    H256105   0.050  -0.048  11.863  1.6928 -0.4164  0.5022
11564TIP3   OH256106   3.381   4.467   4.109 -0.3589  0.2724 -0.1694
11564TIP3    H156107   3.317   4.418   4.058 -0.5076  0.3457 -0.0550
11564TIP3    H256108   3.379   4.556   4.073  0.6968 -0.0593 -1.1003
11565TIP3   OH256109   5.234   4.575  11.784  0.2595  0.3954  0.1607
11565TIP3    H156110   5.273   4.500  11.829 -2.1033 -2.0244 -1.5462
11565TIP3    H256111   5.303   4.605  11.724  1.1392 -0.6498  0.6143
11566TIP3   OH256112   2.624   4.127   0.019  0.2349 -0.1592 -0.2070
11566TIP3    H156113   2.652   4.131   0.110  1.9947  1.5344 -0.7645
11566TIP3    H256114   2.689   4.071  -0.024  0.6803  0.8222 -0.8245
11567TIP3   OH256115   4.174   3.451   1.184  0.0572 -0.1768  0.3463
11567TIP3    H156116   4.130   3.375   1.223 -0.6030 -0.6821 -1.2982
11567TIP3    H256117   4.117   3.525   1.205  0.0230 -0.3425  0.8432
11568TIP3   OH256118   4.483   3.230  12.232  0.1860  0.7098  0.2581
11568TIP3    H156119   4.470   3.155  12.174 -0.3454  0.1372  1.0983
11568TIP3    H256120   4.547   3.285  12.187  0.1075  0.0592 -0.6582
11569TIP3   OH256121   5.691   3.873  12.611  0.2545 -0.0424  0.0657
11569TIP3    H156122   5.738   3.921  12.543  0.7302  0.7348  0.9303
11569TIP3    H256123   5.599   3.877  12.584  0.4843 -0.1511 -0.7634
11570TIP3   OH256124   1.754   2.124   5.888 -0.0162  0.1368 -0.1170
11570TIP3    H156125   1.754   2.178   5.967  0.2723 -1.6976  1.2238
11570TIP3    H256126   1.755   2.034   5.921  0.2480 -0.6973 -2.2301
11571TIP3   OH256127   0.381   5.071  11.903  0.1151  0.2780 -0.1730
11571TIP3    H156128   0.297   5.041  11.938  0.0443 -0.7169 -1.1272
11571TIP3    H256129   0.428   4.990  11.881  0.6652  0.8472 -1.1593
11572TIP3   OH256130   2.535   5.024   4.699 -0.1437 -0.0174 -0.2329
11572TIP3    H156131   2.505   5.016   4.789 -2.1208 -0.0862 -0.8537
11572TIP3    H256132   2.607   4.962   4.692  0.0977  0.0514  1.2978
11573TIP3   OH256133   3.831   6.298   3.549  0.1686 -0.0274  0.5626
11573TIP3    H156134   3.781   6.377   3.529 -0.1702 -0.0148  1.4172
11573TIP3    H256135   3.868   6.314   3.636 -0.4524 -1.0803  1.0373
11574TIP3   OH256136   6.382   6.683  13.233  0.4372  0.4834 -0.6440
11574TIP3    H156137   6.469   6.662  13.265  0.3459  1.3287  0.1955
11574TIP3    H256138   6.391   6.686  13.137  1.0200 -0.7242 -0.6415
11575TIP3   OH256139   6.740   4.132   0.474  0.2278 -0.2301  0.6200
11575TIP3    H156140   6.731   4.061   0.410 -2.8233  1.8279 -1.4924
11575TIP3    H256141   6.729   4.088   0.559 -2.1695 -2.3205 -0.6132
11576TIP3   OH256142   6.048   1.947  15.744 -0.7082 -0.0935 -0.0572
11576TIP3    H156143   6.108   1.902  15.685  0.3103 -0.3505  1.1402
11576TIP3    H256144   5.989   1.878  15.775 -0.8558 -0.0754 -0.2944
11577TIP3   OH256145   4.276   5.707   2.691  0.2140 -0.1997 -0.0461
11577TIP3    H156146   4.273   5.749   2.605  3.5642 -0.0354 -0.2186
11577TIP3    H256147   4.257   5.777   2.753 -1.6044 -0.1812 -0.5557
11578TIP3   OH256148   0.140   2.993  15.147 -0.2581  0.3233 -0.3314
11578TIP3    H156149   0.046   3.005  15.161 -0.5668 -1.3222 -0.7793
11578TIP3    H256150   0.152   3.005  15.053  0.3279  2.3427 -0.0601
11579TIP3   OH256151   3.698   5.323   0.220 -0.1560 -0.4546  0.0767
11579TIP3    H156152   3.637   5.262   0.261 -0.3328  0.1704  0.7544
11579TIP3    H256153   3.710   5.393   0.285  1.1899 -0.5129 -0.0756
11580TIP3   OH256154   4.288   4.553  14.302  0.1249 -0.3708 -0.0985
11580TIP3    H156155   4.345   4.481  14.328  1.0931  0.9463  1.6256
11580TIP3    H256156   4.278   4.605  14.382 -3.2449 -0.3367 -0.4142
11581TIP3   OH256157   4.985   3.221   1.375 -0.5533  0.1548  0.1465
11581TIP3    H156158   5.071   3.260   1.387 -0.8126  0.4164  1.4121
11581TIP3    H256159   4.949   3.264   1.298  1.4035 -1.8015 -2.0164
11582TIP3   OH256160   4.774   5.015  15.692  0.0680  0.2680  0.1019
11582TIP3    H156161   4.805   5.088  15.639 -0.0155  0.3008  0.0993
11582TIP3    H256162   4.854   4.968  15.717  0.0249 -0.6388 -1.3243
11583TIP3   OH256163   0.511   5.774  15.312 -0.5838  0.7955 -0.1342
11583TIP3    H156164   0.603   5.767  15.286 -0.4499  3.0909 -0.5176
11583TIP3    H256165   0.502   5.715  15.387  1.5358  1.4012  0.6742
11584TIP3   OH256166   1.189   1.276  16.834  0.6971 -0.0079  0.5303
11584TIP3    H156167   1.239   1.339  16.886 -0.1952  0.0928  1.2978
11584TIP3    H256168   1.197   1.308  16.744 -0.1725  1.5467  0.9585
11585TIP3   OH256169   0.713   4.697  15.773 -0.0971  0.0025  0.1162
11585TIP3    H156170   0.783   4.695  15.838 -0.1518  0.9621  0.2198
11585TIP3    H256171   0.743   4.640  15.703  0.1348 -0.7355  0.8085
11586TIP3   OH256172   5.335   3.372   5.172  0.3060  0.0698 -0.3508
11586TIP3    H156173   5.256   3.340   5.215  0.2613 -0.3284 -0.7202
11586TIP3    H256174   5.357   3.304   5.108  1.2378 -0.0683  0.1021
11587TIP3   OH256175   0.437   4.647  13.348 -0.0276 -0.3765  0.3174
11587TIP3    H156176   0.418   4.693  13.266 -0.5636  1.1806  1.2912
11587TIP3    H256177   0.356   4.652  13.398  0.5488 -0.5786  1.2897
11588TIP3   OH256178   3.561   4.983  15.218  0.5010  0.0509 -0.8514
11588TIP3    H156179   3.595   5.064  15.181  0.2931 -0.2363 -1.6955
11588TIP3    H256180   3.613   4.914  15.178 -0.2324 -0.3111 -1.2048
11589TIP3   OH256181   2.573   1.345  13.494  0.4271  0.0451 -0.3440
11589TIP3    H156182   2.534   1.288  13.428 -0.8412  0.5740 -0.0938
11589TIP3    H256183   2.624   1.286  13.550 -0.5098 -0.7825 -0.3316
11590TIP3   OH256184   4.829   0.054   6.485  0.2407 -0.4852 -0.1014
11590TIP3    H156185   4.743   0.066   6.443  0.7137  0.6884 -0.8005
11590TIP3    H256186   4.880   0.129   6.454  0.9710 -0.2074  1.6953
11591TIP3   OH256187   0.489   5.606   4.634 -0.5195  0.1071 -0.6089
11591TIP3    H156188   0.581   5.581   4.644 -0.2247  0.8815 -1.3335
11591TIP3    H256189   0.441   5.534   4.676  0.4086 -0.2488 -0.1079
11592TIP3   OH256190   4.186   0.677   4.500  0.4456 -0.2881  0.3272
11592TIP3    H156191   4.149   0.592   4.476  1.5013 -0.5443 -0.4285
11592TIP3    H256192   4.192   0.673   4.596 -1.9065 -0.0346  0.5645
11593TIP3   OH256193   1.052   1.592   5.677  0.3513 -0.3138 -0.1568
11593TIP3    H156194   1.083   1.650   5.747  0.2570  0.0131 -0.3848
11593TIP3    H256195   1.129   1.543   5.650  0.5735  0.1768 -0.4138
11594TIP3   OH256196   0.672   0.100  15.183 -0.0160  0.2026  0.0477
11594TIP3    H156197   0.719   0.039  15.126 -2.1256 -0.5610 -0.9441
11594TIP3    H256198   0.661   0.052  15.265  1.2469  0.5622  0.4671
11595TIP3   OH256199   3.953   3.206  16.386  0.3452  0.0205  0.4012
11595TIP3    H156200   3.972   3.298  16.404  0.9159 -0.4399  2.3311
11595TIP3    H256201   3.960   3.162  16.470  0.0646 -1.8119 -0.4672
11596TIP3   OH256202   2.822   0.787   0.061  0.0303 -0.2642  0.2482
11596TIP3    H156203   2.838   0.800   0.155  0.6962  1.1472 -0.0265
11596TIP3    H256204   2.893   0.835   0.018 -0.8107 -0.0800 -0.9849
11597TIP3   OH256205   4.923   2.374  15.394  0.8631 -0.0422  0.1838
11597TIP3    H156206   4.987   2.389  15.463 -1.0769  2.3520  1.6386
11597TIP3    H256207   4.866   2.306  15.429  1.3088 -0.6016 -0.1629
11598TIP3   OH256208   2.191   2.574  13.228  0.1904 -0.2810 -0.2672
11598TIP3    H156209   2.153   2.634  13.292  0.8257 -0.8154  0.6419
11598TIP3    H256210   2.119   2.555  13.167 -0.3981  0.3214  0.2241
11599TIP3   OH256211   0.742   6.023  16.738 -0.0445 -0.6103  0.7517
11599TIP3    H156212   0.653   5.990  16.751  0.2809 -2.1474 -0.6253
11599TIP3    H256213   0.732   6.091  16.672 -0.5458  1.3404  2.7140
11600TIP3   OH256214   3.287   1.634   1.212 -0.5817  0.4605  0.0066
11600TIP3    H156215   3.272   1.728   1.209  0.4788  0.6791  0.8412
11600TIP3    H256216   3.352   1.622   1.281  2.6221 -0.4020 -2.8726
11601TIP3   OH256217   5.686   4.340   3.324 -0.0082 -0.0829  0.2762
11601TIP3    H156218   5.689   4.405   3.253 -1.3319  0.5587  0.7732
11601TIP3    H256219   5.630   4.270   3.290 -0.6216  0.2121  0.6620
11602TIP3   OH256220   5.009   5.355   5.183 -0.1741  0.3916 -0.1236
11602TIP3    H156221   5.030   5.334   5.092  2.3176 -1.4309  0.7692
11602TIP3    H256222   4.974   5.274   5.219 -1.7109  1.2740  0.4262
11603TIP3   OH256223   0.827   0.000  14.790  0.6956  0.5001  0.0623
11603TIP3    H156224   0.806   0.082  14.746 -0.4225  1.0136  1.4640
11603TIP3    H256225   0.746  -0.050  14.788  1.4511 -0.7279 -1.0424
11604TIP3   OH256226   4.157   3.131  10.896  0.2502 -0.1328 -0.0500
11604TIP3    H156227   4.172   3.192  10.824  0.1928  0.7728  0.6850
11604TIP3    H256228   4.240   3.084  10.905  0.3025 -0.1563 -0.6138
11605TIP3   OH256229   1.827   0.491  15.002  0.2297 -0.1915  0.0832
11605TIP3    H156230   1.783   0.575  15.014  0.7767  0.2112 -0.6256
11605TIP3    H256231   1.761   0.435  14.961  0.4269  0.4847 -1.2036
11606TIP3   OH256232   5.849   1.677  12.273  0.1101 -0.0687  0.4919
11606TIP3    H156233   5.776   1.625  12.239 -0.1728  0.3175  0.4996
11606TIP3    H256234   5.838   1.763  12.231  0.3380  0.1056  0.7923
11607TIP3   OH256235   5.986   0.238  11.730 -0.2838 -0.3528  0.7104
11607TIP3    H156236   5.974   0.255  11.823 -1.0227  0.4846  0.4773
11607TIP3    H256237   5.931   0.161  11.712 -1.5736  0.5577  0.6271
11608TIP3   OH256238   5.259   1.523   3.397 -0.1293 -0.1657  0.0535
11608TIP3    H156239   5.243   1.453   3.460 -0.1021 -0.5783 -0.3888
11608TIP3    H256240   5.272   1.601   3.450 -1.0008 -0.3304  0.5200
11609TIP3   OH256241   6.757   5.111   2.264  0.2409 -0.0344  0.2339
11609TIP3    H156242   6.845   5.146   2.277  0.2281  0.2399 -0.3860
11609TIP3    H256243   6.768   5.043   2.198  0.2193 -1.0343  1.2168
11610TIP3   OH256244   1.917   5.136  10.953 -0.0510  0.2305  0.1292
11610TIP3    H156245   1.966   5.168  11.029 -0.8611 -0.1354  0.8304
11610TIP3    H256246   1.879   5.053  10.983 -0.0446 -0.1249 -0.8187
11611TIP3   OH256247   3.195   2.805   1.688  0.8618  0.5598  0.0595
11611TIP3    H156248   3.280   2.769   1.713  0.9585  0.3437 -0.5634
11611TIP3    H256249   3.159   2.742   1.625  1.2725  1.7816 -1.4673
11612TIP3   OH256250   5.996   6.516  16.623  0.2970 -0.3271  0.2503
11612TIP3    H156251   5.907   6.511  16.656 -0.5462 -0.3999 -1.8854
11612TIP3    H256252   6.012   6.610  16.611 -0.0781 -0.3796 -0.7722
11613TIP3   OH256253   3.704   1.131   4.642 -0.4449  0.1320 -0.2940
11613TIP3    H156254   3.734   1.194   4.708  1.8462 -3.0258  1.9863
11613TIP3    H256255   3.735   1.167   4.559  0.2111  2.2551  0.7824
11614TIP3   OH256256   5.716   4.709  11.523  0.1262 -0.1365  0.6210
11614TIP3    H156257   5.700   4.618  11.548  0.2769  0.1624  1.8379
11614TIP3    H256258   5.641   4.732  11.469  1.3322 -1.7824 -1.9699
11615TIP3   OH256259   4.556   4.632  16.493 -1.0966 -0.6877 -0.7358
11615TIP3    H156260   4.537   4.650  16.585 -0.1612 -1.6889 -0.3215
11615TIP3    H256261   4.541   4.538  16.484 -1.3752 -0.5619 -1.6639
11616TIP3   OH256262   6.069   2.765   1.867  0.2768  0.0538  0.2321
11616TIP3    H156263   6.024   2.769   1.951  1.0336  1.2999  0.5988
11616TIP3    H256264   6.151   2.720   1.886 -1.3345 -3.7022 -0.7397
11617TIP3   OH256265   1.561   6.430   6.160 -0.3021  0.5379 -0.1332
11617TIP3    H156266   1.539   6.339   6.181 -2.8680  0.9202 -0.8299
11617TIP3    H256267   1.599   6.427   6.072 -0.0600  0.1155 -0.0142
11618TIP3   OH256268   1.287   2.754   4.165  0.4944 -0.1183  0.2260
11618TIP3    H156269   1.254   2.778   4.078 -0.4513 -0.1919  0.5517
11618TIP3    H256270   1.270   2.832   4.218  1.3809  0.0518  0.2734
11619TIP3   OH256271   4.965   2.296  11.682  0.3389 -0.1216 -0.5112
11619TIP3    H156272   4.991   2.210  11.648 -1.9150 -1.3097  0.5529
11619TIP3    H256273   4.976   2.288  11.777 -2.3646 -0.2251 -0.1436
11620TIP3   OH256274   3.219   4.008  12.197  0.1576 -0.4363  0.2694
11620TIP3    H156275   3.176   4.009  12.112  3.6703 -1.2718 -1.7071
11620TIP3    H256276   3.218   3.916  12.223  0.2081 -0.3667  0.5233
11621TIP3   OH256277   4.280   4.073   1.979 -0.4940 -0.1832  0.6661
11621TIP3    H156278   4.220   4.063   1.906 -0.8318 -2.4815  1.1873
11621TIP3    H256279   4.253   4.155   2.021 -0.5322  0.9752 -1.5075
11622TIP3   OH256280   2.847   4.713  12.471  0.0457 -0.0696  0.8370
11622TIP3    H156281   2.886   4.654  12.406 -0.3636 -0.5004  0.9758
11622TIP3    H256282   2.921   4.745  12.522  0.3208 -0.1123  0.4756
11623TIP3   OH256283   3.832   2.505  12.660  0.8828  0.6132  1.1731
11623TIP3    H156284   3.753   2.489  12.711  1.3557 -0.5521  1.5706
11623TIP3    H256285   3.832   2.600  12.644 -1.5320  0.4377 -0.4280
11624TIP3   OH256286   3.120   0.102   2.436 -0.0727 -0.4023  1.2411
11624TIP3    H156287   3.136   0.040   2.507 -1.0105 -0.0439  1.7801
11624TIP3    H256288   3.082   0.050   2.365  2.2368 -1.0505  0.3777
11625TIP3   OH256289   0.730   5.840   5.875  0.3975  0.1217  0.2186
11625TIP3    H156290   0.692   5.905   5.816 -0.0782 -0.7570 -0.4628
11625TIP3    H256291   0.658   5.818   5.935 -0.5920 -2.2350 -1.6483
11626TIP3   OH256292   5.099   2.474   0.715  0.3884 -0.5460  0.9551
11626TIP3    H156293   5.010   2.491   0.682  0.7966  0.0930  0.1596
11626TIP3    H256294   5.153   2.542   0.676  1.9117 -2.9244 -1.4435
11627TIP3   OH256295   5.092   5.707   3.429 -0.1741  0.1513 -0.3449
11627TIP3    H156296   5.173   5.704   3.378  1.2232 -0.3589  1.7714
11627TIP3    H256297   5.032   5.759   3.376  1.3211  0.0127 -2.2772
11628TIP3   OH256298   6.563   2.634  10.626  0.3291  0.1378 -0.3150
11628TIP3    H156299   6.585   2.699  10.559  0.4815 -0.3832 -0.7840
11628TIP3    H256300   6.627   2.647  10.695  2.2610 -1.4060 -1.6812
11629TIP3   OH256301   2.963   5.608   1.830  1.0013 -0.1765 -0.3483
11629TIP3    H156302   2.958   5.525   1.781 -0.9261  0.1448 -0.7679
11629TIP3    H256303   2.901   5.597   1.902 -0.1474  1.2723 -1.0567
11630TIP3   OH256304   4.972   0.157  11.966  0.4922  0.3927 -0.2671
11630TIP3    H156305   5.032   0.151  11.892 -0.1520 -1.8950 -0.6847
11630TIP3    H256306   5.011   0.103  12.034 -1.3835 -1.8869 -0.8498
11631TIP3   OH256307   6.066   4.000  13.009 -0.0332  0.0139  0.4280
11631TIP3    H156308   6.033   3.913  12.988 -0.8673  0.3838  0.1448
11631TIP3    H256309   6.018   4.059  12.950  0.5315  0.6619  0.5973
11632TIP3   OH256310   3.927   2.048  12.296 -0.5468 -0.2685 -0.0827
11632TIP3    H156311   4.002   2.095  12.260 -1.3629  0.3741 -0.9837
11632TIP3    H256312   3.879   2.017  12.219 -0.8694 -1.2319  0.4879
11633TIP3   OH256313   2.154   3.395   3.924 -0.2859 -0.0643 -0.7151
11633TIP3    H156314   2.219   3.431   3.865  0.5593  0.5534  0.5554
11633TIP3    H256315   2.094   3.467   3.941  0.4141  0.2741  0.4485
11634TIP3   OH256316   4.674   5.804   4.707  0.0381  0.0773  0.6080
11634TIP3    H156317   4.712   5.728   4.752 -1.1380 -0.1187  1.3180
11634TIP3    H256318   4.609   5.838   4.769  1.4012  2.4459  0.8151
11635TIP3   OH256319   1.505   0.816  14.333 -0.6301  0.0210 -0.1858
11635TIP3    H156320   1.515   0.844  14.242 -1.6280  1.3922  0.0912
11635TIP3    H256321   1.545   0.887  14.384  1.3652 -1.4751  0.4347
11636TIP3   OH256322   5.614   3.598   4.656  0.1873 -0.5296  0.0207
11636TIP3    H156323   5.602   3.573   4.565 -1.4886  0.4180 -0.0606
11636TIP3    H256324   5.606   3.517   4.705 -1.3131 -0.7314 -0.5126
11637TIP3   OH256325   3.635   6.250   3.095  0.3669 -0.1962 -0.0813
11637TIP3    H156326   3.588   6.330   3.117 -1.4546 -1.3540  0.4984
11637TIP3    H256327   3.609   6.230   3.005 -2.7117 -2.3151  1.0976
11638TIP3   OH256328   6.421   3.578  12.433 -0.5439 -0.1135  0.1777
11638TIP3    H156329   6.464   3.493  12.445 -0.6326 -0.2659 -0.5163
11638TIP3    H256330   6.329   3.556  12.419 -0.0946 -0.2356 -3.5408
11639TIP3   OH256331   4.483   2.430  16.225  0.1085 -0.5344 -0.0758
11639TIP3    H156332   4.390   2.449  16.220 -0.0907 -1.4793  0.0203
11639TIP3    H256333   4.500   2.371  16.152  0.5259 -0.7865  0.2206
11640TIP3   OH256334   2.533   1.124   5.886  0.9775  0.2618 -0.1504
11640TIP3    H156335   2.496   1.203   5.925  1.6589  0.7779 -0.5452
11640TIP3    H256336   2.507   1.129   5.794 -1.3300 -1.3543  0.3092
11641TIP3   OH256337   5.008   3.544   1.425  0.0533 -0.1650 -0.1328
11641TIP3    H156338   5.091   3.538   1.378  0.1289  1.1630 -0.2147
11641TIP3    H256339   4.946   3.578   1.360 -0.0736  0.7316  0.4289
11642TIP3   OH256340   1.045   3.573  12.636  0.8969 -0.3752  0.0831
11642TIP3    H156341   1.113   3.615  12.689  0.5533  0.3437 -0.0263
11642TIP3    H256342   0.970   3.565  12.695  0.7175 -0.1404 -0.1081
11643TIP3   OH256343   1.440   2.068  10.569 -0.0633  0.1831 -0.2975
11643TIP3    H156344   1.522   2.024  10.544  0.2667  0.1380  0.8040
11643TIP3    H256345   1.375   1.999  10.569 -0.0935  0.2043 -1.1120
11644TIP3   OH256346   1.744   3.798   2.133 -0.0542  0.1594 -0.1348
11644TIP3    H156347   1.716   3.820   2.044  1.9674  0.7473 -0.6816
11644TIP3    H256348   1.739   3.703   2.138 -1.9573  0.2183 -0.2104
11645TIP3   OH256349   2.025   5.084   4.987  1.1220 -0.3289  0.4867
11645TIP3    H156350   2.103   5.125   4.949  1.5294 -2.2234 -0.8965
11645TIP3    H256351   1.952   5.139   4.957  1.7036 -0.1386 -0.6246
11646TIP3   OH256352   5.490   5.080   1.066  0.4540  0.0863 -0.0448
11646TIP3    H156353   5.498   5.022   1.141  4.0168 -0.5388 -0.7268
11646TIP3    H256354   5.534   5.161   1.092  0.6538  0.3268 -1.0602
11647TIP3   OH256355   0.890   3.310   1.527  0.3780  0.2750  0.6657
11647TIP3    H156356   0.880   3.372   1.599  0.6755 -1.2755  2.0777
11647TIP3    H256357   0.979   3.324   1.494 -0.3900  2.3354 -0.7602
11648TIP3   OH256358   2.831   6.257   0.032  0.5086 -0.0538  0.0068
11648TIP3    H156359   2.865   6.228   0.117  0.1982  2.5484  1.1290
11648TIP3    H256360   2.779   6.335   0.053 -0.9815 -0.3196 -2.4054
11649TIP3   OH256361   4.065   0.015  16.904  0.0013 -0.3492 -0.4361
11649TIP3    H156362   4.000   0.018  16.974 -0.5787 -2.3423 -0.8187
11649TIP3    H256363   4.134   0.075  16.932 -1.5122  1.0425  0.4581
11650TIP3   OH256364   5.660   1.184   4.536  0.5054 -0.1800  0.1259
11650TIP3    H156365   5.639   1.176   4.442  3.4680 -2.2190 -0.5129
11650TIP3    H256366   5.673   1.094   4.565  2.8785  0.5628  1.6330
11651TIP3   OH256367   6.262   4.242   0.027  0.0903 -0.3375  0.1438
11651TIP3    H156368   6.225   4.330   0.026 -0.2646 -0.4802  0.7506
11651TIP3    H256369   6.301   4.233   0.114  0.1086 -0.7917  0.0887
11652TIP3   OH256370   0.451   3.520   4.126  0.1569  0.4260 -0.3326
11652TIP3    H156371   0.416   3.555   4.208  2.3590 -0.0408  0.8756
11652TIP3    H256372   0.438   3.591   4.062 -0.1426  1.4150  0.7962
11653TIP3   OH256373   2.233   2.734  14.673  0.4704 -0.7079  0.4989
11653TIP3    H156374   2.301   2.801  14.671  1.1689 -1.3959  0.6132
11653TIP3    H256375   2.156   2.779  14.706  1.4600 -0.4149  2.5795
11654TIP3   OH256376   1.347   5.366  11.835 -0.3959 -0.1230 -0.8155
11654TIP3    H156377   1.325   5.273  11.846  1.4754 -0.5668 -0.4076
11654TIP3    H256378   1.438   5.365  11.803  0.7340  1.5896  1.9915
11655TIP3   OH256379   5.022   3.568  12.787 -0.0750  0.2188 -0.0611
11655TIP3    H156380   5.020   3.646  12.843 -0.3709  0.7118 -0.7436
11655TIP3    H256381   4.930   3.542  12.779  0.1360 -1.1331  1.4105
11656TIP3   OH256382   6.050   0.121  16.377 -0.0882  0.2891 -0.3993
11656TIP3    H156383   6.091   0.112  16.291 -1.2420  2.0673 -1.1904
11656TIP3    H256384   6.105   0.185  16.423 -0.4165  0.6103 -0.4474
11657TIP3   OH256385   0.029   5.568  12.176  0.1704 -0.3996 -0.1168
11657TIP3    H156386  -0.025   5.635  12.218  0.2317  0.0576 -0.7439
11657TIP3    H256387  -0.019   5.545  12.096  1.1531  0.4205 -0.9780
11658TIP3   OH256388   3.710   4.750  14.586 -0.3501 -0.1898 -0.3157
11658TIP3    H156389   3.789   4.706  14.555  0.1004 -0.0225  0.5627
11658TIP3    H256390   3.710   4.735  14.681 -1.4557 -0.3177 -0.3256
11659TIP3   OH256391   0.669   3.476  17.003  0.3157  0.2130 -0.2944
11659TIP3    H156392   0.683   3.408  16.937 -0.6850  1.6202 -2.0258
11659TIP3    H256393   0.586   3.517  16.980 -0.8684 -0.1703  2.7344
11660TIP3   OH256394   6.026   2.316   4.282  0.7776 -0.5208  0.3912
11660TIP3    H156395   6.062   2.400   4.255  0.5802 -0.3804  0.5617
11660TIP3    H256396   5.932   2.324   4.266  1.1144 -2.1551 -3.5114
11661TIP3   OH256397   1.967   1.588  14.226  0.4377 -0.2921 -0.5076
11661TIP3    H156398   1.988   1.495  14.232  1.9383 -0.0028 -0.7795
11661TIP3    H256399   2.039   1.626  14.175 -0.3643  0.9518 -0.7748
11662TIP3   OH256400   6.406   0.688   4.688  0.6012  0.0557  0.1566
11662TIP3    H156401   6.396   0.595   4.708  0.8605 -0.8361 -3.1800
11662TIP3    H256402   6.484   0.692   4.632 -0.4067  1.9734 -1.2261
11663TIP3   OH256403   1.035   0.421  12.488 -0.1293 -0.1844 -0.3470
11663TIP3    H156404   1.103   0.400  12.425 -0.0004 -0.6097 -0.0682
11663TIP3    H256405   0.963   0.362  12.468  0.7610 -1.9392  1.3311
11664TIP3   OH256406   4.194   3.834  10.657 -0.3578  0.1921  0.1045
11664TIP3    H156407   4.277   3.807  10.620  0.7345  1.2432  1.6558
11664TIP3    H256408   4.146   3.752  10.671  0.5036 -0.4431 -0.5524
11665TIP3   OH256409   2.972   3.754   4.498 -0.5911 -0.1394  0.0671
11665TIP3    H156410   2.917   3.689   4.454 -1.5287  1.1067 -0.6778
11665TIP3    H256411   3.020   3.796   4.427  1.4553 -1.2375  0.7018
11666TIP3   OH256412   3.340   4.553  14.009  0.0567  0.2808 -0.6030
11666TIP3    H156413   3.394   4.629  14.033  1.2470 -0.3787 -1.1118
11666TIP3    H256414   3.401   4.493  13.967 -1.2498 -0.1688 -1.9248
11667TIP3   OH256415   2.819   3.206  16.546 -0.2977  0.5370 -0.0944
11667TIP3    H156416   2.778   3.155  16.475  0.7578 -1.5502  0.6965
11667TIP3    H256417   2.759   3.196  16.620  0.9366 -1.5544  0.7221
11668TIP3   OH256418   1.063   1.724  15.751 -0.6230 -0.1839  0.0801
11668TIP3    H156419   1.123   1.791  15.786 -1.7560  1.6596 -1.3223
11668TIP3    H256420   1.119   1.648  15.736  0.5698  0.1227  2.4689
11669TIP3   OH256421   0.272   5.751  14.863 -0.3557 -0.5313 -0.4162
11669TIP3    H156422   0.307   5.698  14.792  0.1355  0.6886 -1.1271
11669TIP3    H256423   0.267   5.840  14.826  1.7972  0.5575  1.6360
11670TIP3   OH256424   2.000   5.651  17.034 -0.4574 -0.1751  0.1018
11670TIP3    H156425   2.027   5.684  17.120  0.6442  0.4037 -0.4463
11670TIP3    H256426   2.079   5.655  16.981 -0.9569 -1.1746 -0.7594
11671TIP3   OH256427   6.455   4.295   4.354 -0.0428 -0.4523  0.5224
11671TIP3    H156428   6.446   4.351   4.277 -0.7898 -1.0924  0.1395
11671TIP3    H256429   6.424   4.349   4.427  0.3911  0.0517  0.3418
11672TIP3   OH256430   4.928   4.456  12.012  0.5546 -0.4250 -0.0483
11672TIP3    H156431   4.934   4.480  11.919  1.9464 -1.5112 -0.2776
11672TIP3    H256432   4.898   4.365  12.010 -0.1526 -0.2086  0.6084
11673TIP3   OH256433   2.747   6.207   5.042  0.2295 -0.4203  0.1904
11673TIP3    H156434   2.834   6.227   5.077 -0.2964 -0.7021  1.7206
11673TIP3    H256435   2.688   6.269   5.085 -0.2510  0.4425 -1.5687
11674TIP3   OH256436   3.574   4.420   3.208  0.5703  0.0394 -0.2149
11674TIP3    H156437   3.580   4.333   3.169  2.2440 -0.3321  0.7608
11674TIP3    H256438   3.623   4.477   3.148 -0.6846  0.3730 -0.9517
11675TIP3   OH256439   1.052   5.014   0.778 -0.1653  0.2708  0.2581
11675TIP3    H156440   1.108   4.939   0.758  1.1547  1.1257  0.6214
11675TIP3    H256441   0.976   5.003   0.722  0.0217 -1.3122  0.2657
11676TIP3   OH256442   4.026   5.689   1.180 -0.8392  0.0508 -0.5188
11676TIP3    H156443   4.108   5.733   1.203 -0.9536 -1.1012  2.5117
11676TIP3    H256444   4.042   5.597   1.197 -2.5637 -0.2761 -0.4606
11677TIP3   OH256445   6.330   1.457  15.210 -0.1888  0.0967  0.0377
11677TIP3    H156446   6.293   1.545  15.196  1.1227  0.7234  0.3807
11677TIP3    H256447   6.276   1.419  15.279 -2.3695 -0.3807 -1.7846
11678TIP3   OH256448   3.910   5.198   3.713 -0.0045  0.0816 -0.1714
11678TIP3    H156449   3.880   5.173   3.800  0.2974 -0.0200 -0.0931
11678TIP3    H256450   3.944   5.287   3.724 -0.0408  0.0994 -0.2027
11679TIP3   OH256451   1.658   2.312   6.087 -0.0307  0.4554 -0.0636
11679TIP3    H156452   1.627   2.267   6.166 -1.6593  0.8022 -0.4787
11679TIP3    H256453   1.675   2.401   6.116  0.6264  0.2603  0.1696
11680TIP3   OH256454   6.206   0.999  10.486  0.3524  0.3668  0.1625
11680TIP3    H156455   6.118   0.992  10.447 -0.0151  2.3981  0.5120
11680TIP3    H256456   6.224   0.911  10.518 -1.0422 -0.3989 -0.9888
11681TIP3   OH256457   5.518   3.209   4.988 -0.3095 -0.2191 -0.2720
11681TIP3    H156458   5.614   3.217   4.990 -0.3194 -0.2025  0.2457
11681TIP3    H256459   5.497   3.158   5.066 -0.8429  1.0126  0.4164
11682TIP3   OH256460   2.330   4.859  12.270 -0.1438 -0.5323  0.5681
11682TIP3    H156461   2.375   4.890  12.192 -2.4632  1.5649 -0.0733
11682TIP3    H256462   2.293   4.938  12.309 -2.5167 -1.9774  1.4552
11683TIP3   OH256463   5.069   5.187  16.181  0.3986 -0.0299  0.1514
11683TIP3    H156464   5.120   5.129  16.237  1.6262 -0.8938 -1.7646
11683TIP3    H256465   5.005   5.129  16.139 -0.0440  0.4744  0.1196
11684TIP3   OH256466   1.948   3.440   5.624  0.1018  0.1061  0.1602
11684TIP3    H156467   1.854   3.429   5.634  0.3363 -0.9616  1.5315
11684TIP3    H256468   1.981   3.446   5.714  1.5111 -1.2034 -0.2353
11685TIP3   OH256469   0.795   6.641  15.211 -0.6718 -0.2458 -0.3116
11685TIP3    H156470   0.882   6.609  15.187 -0.7801 -0.2460 -0.7156
11685TIP3    H256471   0.738   6.564  15.201 -0.6333 -0.3945  0.4945
11686TIP3   OH256472   0.493   4.520   6.361  0.1634  0.0415  0.4784
11686TIP3    H156473   0.477   4.468   6.282  0.8747 -0.6744  0.7935
11686TIP3    H256474   0.406   4.545   6.391 -0.0772  1.8354 -1.5081
11687TIP3   OH256475   1.316   3.916   5.883 -0.5248  0.4221  0.2140
11687TIP3    H156476   1.341   3.894   5.973  0.8385 -0.3943 -0.3362
11687TIP3    H256477   1.293   4.009   5.886 -0.5166  0.3968  1.4035
11688TIP3   OH256478   3.409   5.051  15.676 -0.4672 -0.5363 -0.2509
11688TIP3    H156479   3.390   5.084  15.588  1.8239 -0.9917 -1.0035
11688TIP3    H256480   3.442   5.128  15.723 -0.1003 -0.6255 -0.3524
11689TIP3   OH256481   4.681   4.520   3.520  0.4422  0.4931  0.2690
11689TIP3    H156482   4.757   4.487   3.471  0.3382 -0.3991  0.6734
11689TIP3    H256483   4.610   4.522   3.456 -0.1838 -2.4461  0.6914
11690TIP3   OH256484   1.989   4.406  13.943 -0.8114 -0.3420  0.0358
11690TIP3    H156485   2.004   4.363  13.859 -0.8301  0.7424 -0.5384
11690TIP3    H256486   1.897   4.431  13.941 -0.5077  0.8112 -0.1697
11691TIP3   OH256487   2.853   4.201   1.234  0.3110  0.9480  0.1164
11691TIP3    H156488   2.901   4.231   1.311  0.7718 -0.2858  0.3344
11691TIP3    H256489   2.814   4.118   1.261  0.0007  0.7850 -0.8009
11692TIP3   OH256490   4.736   5.574   4.220 -0.2764 -0.4164  0.1672
11692TIP3    H156491   4.766   5.663   4.204 -1.1610 -0.2487 -0.6781
11692TIP3    H256492   4.762   5.526   4.142  1.4040 -1.2513  1.1867
11693TIP3   OH256493   3.620   4.872  13.384  0.0916 -0.3836 -0.2262
11693TIP3    H156494   3.596   4.906  13.470  1.0375 -1.2858  0.4269
11693TIP3    H256495   3.617   4.948  13.326 -0.2981  0.2918  0.6561
11694TIP3   OH256496   5.305   3.054  15.565  0.0112  0.1748 -0.1289
11694TIP3    H156497   5.267   3.003  15.637 -0.7428 -0.6360 -1.0834
11694TIP3    H256498   5.292   3.145  15.591 -0.7752 -0.1050  0.4964
11695TIP3   OH256499   5.622   6.322   3.850  0.6132 -0.1574  0.2471
11695TIP3    H156500   5.686   6.378   3.895  1.6269 -1.7054  0.8129
11695TIP3    H256501   5.541   6.334   3.898  0.1102  2.6646 -1.1191
11696TIP3   OH256502   0.116   5.172  12.131  0.0117 -0.1222 -0.4100
11696TIP3    H156503   0.056   5.232  12.176 -0.3867 -0.2983 -0.7034
11696TIP3    H256504   0.159   5.123  12.202  1.3486  1.4298 -0.0852
11697TIP3   OH256505   6.731   4.917  14.895 -0.2968 -0.0915  0.3356
11697TIP3    H156506   6.774   4.870  14.967  1.0681  0.8364  0.1583
11697TIP3    H256507   6.728   5.008  14.925 -2.8733 -0.2060  0.6619
11698TIP3   OH256508   0.322   1.995  11.675 -0.2240  0.4242  0.7475
11698TIP3    H156509   0.231   2.023  11.689 -0.3202  1.2823 -1.2224
11698TIP3    H256510   0.320   1.949  11.591  0.8428 -1.3135  1.6203
11699TIP3   OH256511   5.433   1.775  14.060 -0.0782 -0.0906  0.2575
11699TIP3    H156512   5.464   1.723  14.134 -0.5324 -0.5271  0.1445
11699TIP3    H256513   5.506   1.833  14.039  0.5021 -0.8267  0.2469
11700TIP3   OH256514   5.905   2.696   5.911  0.4206 -0.2820 -0.1308
11700TIP3    H156515   5.895   2.637   5.986 -1.3248 -1.5380 -1.2813
11700TIP3    H256516   5.979   2.752   5.934  1.6872 -2.4254  1.3404
11701TIP3   OH256517   4.068   1.119   4.661 -0.8824 -0.9084 -0.2825
11701TIP3    H156518   3.982   1.097   4.623  0.2091  0.8244 -4.2440
11701TIP3    H256519   4.129   1.061   4.616  0.4207  0.4517 -0.3278
11702TIP3   OH256520   2.400   1.789   3.569 -0.2460 -0.1267 -0.1805
11702TIP3    H156521   2.393   1.696   3.589 -0.1980  0.1103  1.0369
11702TIP3    H256522   2.488   1.813   3.595 -0.4311  0.3684  0.0013
11703TIP3   OH256523   4.895   4.305  13.417 -0.0298  0.0154  0.6183
11703TIP3    H156524   4.854   4.269  13.338 -0.8633 -2.3611  2.0121
11703TIP3    H256525   4.989   4.301  13.399 -0.2141  2.6189 -1.4454
11704TIP3   OH256526   5.332   1.040   1.103 -0.2219 -0.4077 -0.5225
11704TIP3    H156527   5.296   0.976   1.042 -1.2170 -0.6035  0.2525
11704TIP3    H256528   5.411   0.999   1.138 -0.5384 -0.9704 -0.4609
11705TIP3   OH256529   4.255   3.360   3.381  0.1883 -0.2246 -0.4435
11705TIP3    H156530   4.248   3.331   3.472 -0.3081  0.1167 -0.3633
11705TIP3    H256531   4.328   3.423   3.382 -0.3281  0.3927 -0.1022
11706TIP3   OH256532   1.593   4.478  15.652 -0.3557  0.1560  0.0455
11706TIP3    H156533   1.550   4.503  15.734  0.4862 -0.1478  0.5997
11706TIP3    H256534   1.626   4.389  15.669 -0.1618  0.0974 -0.6157
11707TIP3   OH256535   6.343   3.193  10.809  0.0659  0.1344  0.0985
11707TIP3    H156536   6.340   3.097  10.804  1.5554  0.0892 -0.7878
11707TIP3    H256537   6.281   3.222  10.742  0.4154 -0.2379 -0.3972
11708TIP3   OH256538   3.394   6.669  12.770 -0.9571 -0.3948  0.4803
11708TIP3    H156539   3.419   6.593  12.823 -1.7969 -2.7400 -2.2315
11708TIP3    H256540   3.326   6.636  12.712 -0.9516  2.3136 -1.2369
11709TIP3   OH256541   0.094   2.882  12.757  0.0961  0.0163  0.1987
11709TIP3    H156542   0.160   2.812  12.754 -0.2349 -0.2618 -1.1059
11709TIP3    H256543   0.010   2.836  12.756 -0.1971  0.3785 -3.5319
11710TIP3   OH256544   5.201   0.930   5.432  0.0617  0.0579  0.3987
11710TIP3    H156545   5.183   0.930   5.338  0.2426  0.8836  0.3546
11710TIP3    H256546   5.172   1.016   5.462  1.7393  0.5416  0.7496
11711TIP3   OH256547   2.700   2.429  15.510 -0.2201  0.0285 -0.0951
11711TIP3    H156548   2.624   2.413  15.566  0.6928  0.5558  1.3363
11711TIP3    H256549   2.760   2.357  15.528 -0.4226 -0.4844 -1.3532
11712TIP3   OH256550   4.842   1.662   3.877 -0.1197  0.2197  0.1388
11712TIP3    H156551   4.834   1.755   3.898  0.1984  0.0161  1.2231
11712TIP3    H256552   4.927   1.637   3.914  0.1527 -0.3318 -0.8225
11713TIP3   OH256553   2.137   2.875  13.246 -0.8792  0.3748  0.6004
11713TIP3    H156554   2.163   2.966  13.259 -3.0529  0.8185  2.4269
11713TIP3    H256555   2.192   2.845  13.173  0.2266  2.9714  0.2416
11714TIP3   OH256556   1.008   2.414  11.610 -0.9444 -0.7211 -0.5102
11714TIP3    H156557   0.928   2.364  11.625 -1.7797  0.1873 -1.7186
11714TIP3    H256558   0.993   2.497  11.655 -0.1050 -1.0339  0.3865
11715TIP3   OH256559   3.670   2.816   1.780 -0.5133 -0.3815  0.4322
11715TIP3    H156560   3.726   2.878   1.826  0.4251  0.2889 -1.4915
11715TIP3    H256561   3.702   2.730   1.807  1.1282 -0.0095 -0.2083
11716TIP3   OH256562   0.939   2.124   5.678  0.6457 -0.1849 -0.4422
11716TIP3    H156563   0.965   2.201   5.628 -2.6816  0.8649 -0.7781
11716TIP3    H256564   0.981   2.136   5.764 -0.0454  2.2552 -0.3576
11717TIP3   OH256565   2.564   6.378   6.230 -0.2066 -0.8226 -0.5511
11717TIP3    H156566   2.553   6.443   6.300  0.1510  1.3218 -2.3672
11717TIP3    H256567   2.485   6.385   6.177  0.6164 -0.4622 -1.8058
11718TIP3   OH256568   3.924   4.646   6.176  0.6169  0.2999  0.4265
11718TIP3    H156569   3.912   4.631   6.270  1.9347  1.0662  0.7465
11718TIP3    H256570   3.960   4.735   6.171  0.4444  0.3133 -0.8179
11719TIP3   OH256571   4.466   4.046  14.594 -0.2883  0.3821  0.2309
11719TIP3    H156572   4.544   3.991  14.602 -1.3875 -1.2996 -0.0280
11719TIP3    H256573   4.422   4.038  14.679 -1.4511 -0.7882 -0.4360
11720TIP3   OH256574   2.002   3.284  14.923  0.1279  0.1180 -0.2388
11720TIP3    H156575   2.037   3.298  14.835 -0.0685  2.1040 -0.0362
11720TIP3    H256576   2.051   3.345  14.978 -2.1506  1.4748  0.4100
11721TIP3   OH256577   4.771   0.956  14.264 -0.0463 -0.8697  0.1804
11721TIP3    H156578   4.682   0.990  14.274  0.6925  0.9697  0.8772
11721TIP3    H256579   4.802   0.994  14.182  0.8219  0.2826  1.0107
11722TIP3   OH256580   0.308   5.742  16.817  0.6267  0.4645  0.2563
11722TIP3    H156581   0.362   5.730  16.895  0.3767 -0.2300  0.3295
11722TIP3    H256582   0.233   5.792  16.847  0.3519 -0.1141  0.5449
11723TIP3   OH256583   3.958   5.596   6.206 -0.1437  0.7452 -0.5013
11723TIP3    H156584   3.910   5.569   6.127 -0.2733  1.7417 -0.7877
11723TIP3    H256585   3.892   5.641   6.259  0.0336  0.4175  0.0063
11724TIP3   OH256586   2.186   6.762   1.816  0.2949 -0.2541 -0.5208
11724TIP3    H156587   2.116   6.824   1.795 -0.8500 -0.7048  1.6801
11724TIP3    H256588   2.266   6.813   1.805 -0.3540  0.4728 -2.4312
11725TIP3   OH256589   5.238   5.297   5.947 -0.7301  0.6153 -0.4599
11725TIP3    H156590   5.274   5.302   5.859 -1.3171  0.5095 -0.7117
11725TIP3    H256591   5.149   5.332   5.939 -2.1460 -2.6617 -0.6905
11726TIP3   OH256592   3.985   5.422  15.513 -0.3373  0.5953 -0.1335
11726TIP3    H156593   3.930   5.460  15.581  1.8690  0.8307  1.6523
11726TIP3    H256594   4.072   5.419  15.553  0.4753 -2.0317 -1.9038
11727TIP3   OH256595   5.954   4.780   4.100  0.4208  0.7371 -0.3912
11727TIP3    H156596   5.908   4.755   4.180  0.3403  0.3066 -0.5680
11727TIP3    H256597   5.899   4.846   4.060 -0.1949  0.0253 -0.7466
11728TIP3   OH256598   0.767   2.645   1.947  0.1616 -0.3000  0.0257
11728TIP3    H156599   0.709   2.583   1.901  0.1743  0.4078 -0.9870
11728TIP3    H256600   0.724   2.730   1.936  1.3236  0.2218 -0.6551
11729TIP3   OH256601   5.265   4.035  16.511 -0.4754  0.6515 -0.1375
11729TIP3    H156602   5.180   4.033  16.554  0.1389  0.7345  1.1241
11729TIP3    H256603   5.290   4.127  16.510  0.3436  0.4583  1.0454
11730TIP3   OH256604   2.995   1.768  13.866  0.1482 -0.4498 -0.7495
11730TIP3    H156605   2.909   1.802  13.891  1.2378  0.4346  2.3772
11730TIP3    H256606   2.991   1.675  13.888 -0.4750 -0.7972 -2.2084
11731TIP3   OH256607   3.096   3.888  12.606  0.3435 -0.6144  0.3835
11731TIP3    H156608   3.038   3.957  12.637  0.9631  0.6952 -1.2044
11731TIP3    H256609   3.058   3.862  12.522  2.2803  0.6933 -0.9838
11732TIP3   OH256610   2.613   3.174  12.500 -0.0174  0.8463 -0.5602
11732TIP3    H156611   2.557   3.112  12.548  0.2897 -0.2945 -1.6166
11732TIP3    H256612   2.610   3.143  12.410  1.4659  1.3959 -0.8194
11733TIP3   OH256613   1.983   4.609   3.036 -0.2608  0.4316 -0.0684
11733TIP3    H156614   2.032   4.565   2.967  0.9011 -0.7721  1.4304
11733TIP3    H256615   1.964   4.539   3.099  0.7628  1.8526  1.9361
11734TIP3   OH256616   4.259   1.935  12.668 -0.5699 -0.1111  0.0452
11734TIP3    H156617   4.301   1.851  12.651 -2.1496 -0.1889 -5.5077
11734TIP3    H256618   4.328   2.000  12.656 -0.5658 -0.4980 -2.6985
11735TIP3   OH256619   2.793   6.657   3.726 -0.7535  0.4783 -0.0201
11735TIP3    H156620   2.882   6.652   3.761 -1.7313 -2.6151  2.5549
11735TIP3    H256621   2.792   6.592   3.655 -1.1124 -0.1030  0.5038
11736TIP3   OH256622   6.189   5.246   3.675  0.2081 -0.9185  0.1305
11736TIP3    H156623   6.113   5.285   3.631 -0.2354 -0.0386  1.5887
11736TIP3    H256624   6.152   5.198   3.749  1.0595 -0.3655  0.9430
11737TIP3   OH256625   4.447   3.973   2.298 -0.3435 -0.2630  0.0530
11737TIP3    H156626   4.389   4.048   2.286  0.7612  0.5935 -0.0728
11737TIP3    H256627   4.400   3.900   2.258 -0.4299  0.8277 -1.9379
11738TIP3   OH256628   0.720   1.358   1.878  0.3394  0.2696 -0.1287
11738TIP3    H156629   0.699   1.388   1.967  1.8556 -1.0704  0.7294
11738TIP3    H256630   0.764   1.433   1.838  0.7449  0.4703  0.6734
11739TIP3   OH256631   5.350   5.912   0.678 -0.1895 -0.2437  0.2879
11739TIP3    H156632   5.256   5.899   0.691 -0.1136 -1.7899 -0.4412
11739TIP3    H256633   5.390   5.884   0.760 -0.3133 -0.4562  0.2766
11740TIP3   OH256634   2.399   6.527   2.328 -0.1308 -0.3859 -0.0099
11740TIP3    H156635   2.412   6.549   2.420  0.6596 -0.3113 -0.1361
11740TIP3    H256636   2.433   6.439   2.319 -0.3202 -0.4403 -0.2118
11741TIP3   OH256637   0.111   2.161   0.453  0.1319 -0.2106 -0.7821
11741TIP3    H156638   0.101   2.227   0.383  0.4026  0.5420 -0.1213
11741TIP3    H256639   0.189   2.189   0.501 -1.0679  0.3318  0.9347
11742TIP3   OH256640   4.850   3.464   0.481  0.0493  0.5055 -0.0438
11742TIP3    H156641   4.908   3.394   0.452  0.1511  1.1271 -1.4311
11742TIP3    H256642   4.780   3.465   0.415  0.1658  1.8283 -0.1714
11743TIP3   OH256643   2.406   1.467  15.432  0.2269  0.3610 -0.3465
11743TIP3    H156644   2.489   1.465  15.479  0.2822  0.4625 -0.4413
11743TIP3    H256645   2.425   1.513  15.350  0.5681 -1.4170 -1.3211
11744TIP3   OH256646   5.135   0.005   5.689  0.5006  0.3593 -0.2327
11744TIP3    H156647   5.125  -0.030   5.600  1.1874 -0.3041 -0.0533
11744TIP3    H256648   5.192  -0.057   5.733 -1.2801 -0.3217  1.2435
11745TIP3   OH256649   3.908   2.507  10.412  0.5109 -0.6237  0.6639
11745TIP3    H156650   3.825   2.519  10.459  1.2221  0.3241  1.7468
11745TIP3    H256651   3.885   2.519  10.320 -0.7629 -1.5924  0.8298
11746TIP3   OH256652   4.019   2.482  13.895  0.3252  0.1316  0.4557
11746TIP3    H156653   4.083   2.528  13.840  0.8278 -0.9972  0.0545
11746TIP3    H256654   3.963   2.436  13.833 -0.2971  0.3586  0.8418
11747TIP3   OH256655   0.305   1.526  13.939  0.0673  0.1237  1.0560
11747TIP3    H156656   0.330   1.495  14.026 -0.1538 -2.7951  0.1911
11747TIP3    H256657   0.209   1.521  13.938 -0.0251  1.4065  1.0156
11748TIP3   OH256658   6.745   2.976   3.319 -0.0268 -0.1290  0.4529
11748TIP3    H156659   6.760   3.023   3.402  2.5432 -0.4490  0.2576
11748TIP3    H256660   6.806   3.018   3.258  1.3333 -2.7313 -0.0977
11749TIP3   OH256661   4.858   0.948  16.805 -0.4410  0.9936  0.5128
11749TIP3    H156662   4.876   0.967  16.897  0.6992  0.0818  0.4947
11749TIP3    H256663   4.848   0.853  16.802  2.6187  0.6281 -0.7679
11750TIP3   OH256664   0.598   1.979  16.643  0.0291  0.2385 -0.1209
11750TIP3    H156665   0.639   1.910  16.591 -0.4555 -0.1591  0.0120
11750TIP3    H256666   0.528   2.013  16.587  1.1043  1.5510 -0.7182
11751TIP3   OH256667   0.173   0.409  12.402 -0.1450 -0.3882  0.4957
11751TIP3    H156668   0.198   0.501  12.406 -2.8827  0.4052  1.7602
11751TIP3    H256669   0.118   0.403  12.324 -1.1413 -0.5875  1.1976
11752TIP3   OH256670   2.208   0.202   3.858 -0.0953 -0.2645 -0.2194
11752TIP3    H156671   2.201   0.108   3.844  0.2428 -0.2692 -0.3720
11752TIP3    H256672   2.281   0.229   3.802  1.1519 -0.2391  1.3583
11753TIP3   OH256673   6.256   2.419   0.975 -0.0481 -0.5472 -0.0113
11753TIP3    H156674   6.230   2.329   0.954  2.9896 -1.4682 -0.3887
11753TIP3    H256675   6.217   2.472   0.906 -0.1629 -1.8738 -1.0218
11754TIP3   OH256676   1.916   4.319   1.049 -0.5549 -0.2442  0.6174
11754TIP3    H156677   2.001   4.307   1.008 -0.2613  0.6868  0.9311
11754TIP3    H256678   1.876   4.391   1.001 -2.0645 -2.0002 -0.9085
11755TIP3   OH256679   2.602   1.262   0.255  0.0187 -0.0433 -0.6350
11755TIP3    H156680   2.532   1.222   0.203 -0.7878  1.3424 -0.6633
11755TIP3    H256681   2.670   1.196   0.258 -0.7834 -0.9555 -1.6841
11756TIP3   OH256682   2.000   5.943   4.178 -0.5732 -0.1423 -0.2970
11756TIP3    H156683   2.067   5.957   4.245  0.4587 -1.8029 -0.8942
11756TIP3    H256684   1.952   6.025   4.173  1.9999  1.4404 -0.4684
11757TIP3   OH256685   2.353   6.047   6.160 -0.3694  0.0320  0.2626
11757TIP3    H156686   2.389   6.123   6.113 -0.9219 -0.0325 -0.2722
11757TIP3    H256687   2.267   6.076   6.189 -0.5275 -0.3517  0.1721
11758TIP3   OH256688   4.051   3.844  12.475 -0.2604  0.4232 -0.3049
11758TIP3    H156689   4.104   3.893  12.538  1.6476  0.6234 -1.9623
11758TIP3    H256690   4.028   3.908  12.408  0.3372 -0.4030 -1.3330
11759TIP3   OH256691   5.039   3.196   5.658  0.0413 -0.2592 -0.1016
11759TIP3    H156692   5.031   3.155   5.572 -1.9583  2.3182 -1.2737
11759TIP3    H256693   5.133   3.193   5.678  0.2596 -3.2172 -1.0913
11760TIP3   OH256694   6.201   4.079  16.948  0.1468  0.1066 -0.2098
11760TIP3    H156695   6.213   4.139  17.021 -1.1541  0.3802 -0.2008
11760TIP3    H256696   6.253   4.117  16.877 -2.0755  2.3272 -0.7914
11761TIP3   OH256697   6.142   1.888  12.137  0.6306 -0.3334  0.5221
11761TIP3    H156698   6.100   1.920  12.057  1.1627 -2.2325 -0.5662
11761TIP3    H256699   6.180   1.967  12.176 -0.0455  0.7196 -0.8357
11762TIP3   OH256700   2.497   2.677  14.907  0.0298  0.2447 -0.0138
11762TIP3    H156701   2.545   2.596  14.924  1.3184  0.9300 -0.2916
11762TIP3    H256702   2.501   2.688  14.812 -0.0997  0.6608  0.0269
11763TIP3   OH256703   5.086   5.139   4.134 -0.2668 -0.7226 -0.2346
11763TIP3    H156704   5.098   5.063   4.077 -0.2795 -0.4939 -0.5450
11763TIP3    H256705   5.054   5.208   4.076 -2.5447 -1.1367  0.4512
11764TIP3   OH256706   0.635   4.213  12.750  0.2327  0.5815  0.0227
11764TIP3    H156707   0.655   4.193  12.842  1.9922  1.7637 -0.0587
11764TIP3    H256708   0.709   4.177  12.701 -1.3051 -1.2024 -1.1325
11765TIP3   OH256709   3.982   4.980   2.688  0.5897  0.3902 -0.2885
11765TIP3    H156710   3.888   4.974   2.671  0.5445  0.6013 -0.1238
11765TIP3    H256711   4.001   4.904   2.743  0.3541  0.7805  0.3564
11766TIP3   OH256712   5.291   0.941   4.000 -0.3697  0.4326 -0.3374
11766TIP3    H156713   5.268   0.936   4.093 -1.5023 -1.5232 -0.6747
11766TIP3    H256714   5.371   0.995   3.998 -0.0343  0.1046  1.8154
11767TIP3   OH256715   0.999   0.016  11.998 -0.3956  0.5548  0.3080
11767TIP3    H156716   1.025   0.026  12.090 -0.3313 -1.2354  0.5084
11767TIP3    H256717   0.975   0.105  11.971  1.3557  1.4388  1.4946
11768TIP3   OH256718   2.522   5.402  16.872  0.1711 -0.1358 -0.1133
11768TIP3    H156719   2.586   5.471  16.882  0.4754  0.0605 -2.6972
11768TIP3    H256720   2.457   5.419  16.940  2.2172  0.3055  1.8505
11769TIP3   OH256721   5.022   2.371   2.615 -0.1147 -0.3484 -0.2420
11769TIP3    H156722   5.046   2.355   2.707  1.1548  0.8532 -0.3425
11769TIP3    H256723   4.964   2.298   2.593  0.9220 -1.6073  1.0085
11770TIP3   OH256724   5.216   2.112   4.404 -0.8697 -0.6385 -0.2784
11770TIP3    H156725   5.137   2.159   4.428  0.7069  1.9144  0.3054
11770TIP3    H256726   5.261   2.171   4.342  0.7685 -1.7991 -0.2605
11771TIP3   OH256727   0.955   1.907  15.548  0.2909 -0.1761 -0.0316
11771TIP3    H156728   0.981   1.866  15.631  1.3700  0.9189  0.1900
11771TIP3    H256729   0.933   1.833  15.491 -2.0413 -0.9163  1.6878
11772TIP3   OH256730   0.385   1.499   0.558 -0.0037 -0.3491 -0.2119
11772TIP3    H156731   0.373   1.504   0.463  1.0392 -0.2820 -0.3506
11772TIP3    H256732   0.440   1.422   0.571  1.8442  0.9780  0.1235
11773TIP3   OH256733   3.589   1.389   4.940 -0.3746  0.4345  0.0330
11773TIP3    H156734   3.579   1.417   4.849 -0.9079 -0.4369 -0.1836
11773TIP3    H256735   3.617   1.468   4.986 -0.0043  0.8647 -0.8998
11774TIP3   OH256736   2.349   0.410  11.085 -0.3289  0.2590  0.5042
11774TIP3    H156737   2.374   0.468  11.157  1.6579  0.7372 -0.4962
11774TIP3    H256738   2.328   0.469  11.012 -1.6408 -0.2337  0.4489
11775TIP3   OH256739   4.417   6.358   1.579 -0.4259  0.2334  0.1003
11775TIP3    H156740   4.469   6.278   1.575 -0.8762 -0.0124 -1.2204
11775TIP3    H256741   4.328   6.329   1.560 -0.3844  1.2358 -1.7564
11776TIP3   OH256742   0.615   5.825  11.867 -0.1146 -0.0083 -0.6533
11776TIP3    H156743   0.696   5.776  11.852 -0.8415 -1.1138 -1.0606
11776TIP3    H256744   0.598   5.815  11.961 -0.2262 -0.4869 -0.7238
11777TIP3   OH256745   6.355   0.801   1.426 -0.5565 -0.2851 -0.0289
11777TIP3    H156746   6.269   0.827   1.457  0.0227  0.0077  1.4355
11777TIP3    H256747   6.395   0.882   1.394 -1.0460 -0.5374 -1.3551
11778TIP3   OH256748   4.722   0.180   2.514  0.3543 -0.5986 -0.0750
11778TIP3    H156749   4.744   0.228   2.594  1.5448 -2.0327  0.5043
11778TIP3    H256750   4.730   0.088   2.539 -0.2954 -1.0844 -1.5779
11779TIP3   OH256751   4.643   3.824   4.565  0.1273 -0.0320 -0.1301
11779TIP3    H156752   4.665   3.823   4.472  0.9919  0.8940  0.0499
11779TIP3    H256753   4.654   3.733   4.593 -1.6775 -0.6609 -1.2448
11780TIP3   OH256754   5.403   3.441   0.482  0.0677  0.7903 -0.5191
11780TIP3    H156755   5.463   3.502   0.525  0.9911 -0.4111 -0.0071
11780TIP3    H256756   5.352   3.403   0.554  2.0574 -1.7076 -0.2633
11781TIP3   OH256757   2.033   4.349   4.957 -0.0591  0.3453  0.0114
11781TIP3    H156758   1.967   4.353   4.887  0.1902 -0.0142 -0.2474
11781TIP3    H256759   2.005   4.415   5.020  0.3711  1.5336 -0.9958
11782TIP3   OH256760   0.043   2.728   3.495  0.1003 -0.0954  0.0431
11782TIP3    H156761   0.028   2.744   3.402 -0.3226  1.9457  0.4109
11782TIP3    H256762   0.137   2.736   3.506 -0.0143  1.4072  0.0553
11783TIP3   OH256763   1.346   5.159   1.640  0.3771 -0.3740  0.1276
11783TIP3    H156764   1.332   5.226   1.707 -0.2775  0.3232 -0.6701
11783TIP3    H256765   1.316   5.201   1.558  0.8636 -1.3026 -0.5435
11784TIP3   OH256766   4.991   2.760   5.276 -0.0724 -0.5951  0.0536
11784TIP3    H156767   4.982   2.746   5.182  1.4223 -0.0207 -0.1932
11784TIP3    H256768   5.034   2.682   5.309 -0.4805 -0.7413  0.2518
11785TIP3   OH256769   0.696   1.403   2.410  0.0429  0.0329  0.4502
11785TIP3    H156770   0.776   1.428   2.456 -0.0369 -0.8251  1.0800
11785TIP3    H256771   0.666   1.324   2.455 -0.8022 -0.0314 -0.1976
11786TIP3   OH256772   1.073   1.415   4.400  0.2762 -0.8952 -0.5128
11786TIP3    H156773   1.041   1.364   4.475  2.0066  2.3806  2.7867
11786TIP3    H256774   0.995   1.459   4.366 -0.2667 -0.6928  0.9011
11787TIP3   OH256775   3.417   0.626  16.823 -0.0360  0.2014  0.2243
11787TIP3    H156776   3.373   0.596  16.903 -0.2823 -0.7310 -0.2426
11787TIP3    H256777   3.372   0.707  16.800  0.0202  0.4619  1.0137
11788TIP3   OH256778   3.385   3.073   0.588  0.1274 -0.8125 -0.2955
11788TIP3    H156779   3.296   3.053   0.618  0.5437 -2.3631  0.0477
11788TIP3    H256780   3.386   3.047   0.496 -0.2939  1.0591 -0.8619
11789TIP3   OH256781   2.015   4.036  13.296 -0.2931 -0.5479 -0.3376
11789TIP3    H156782   2.098   3.993  13.314  0.2517  0.8582  0.6121
11789TIP3    H256783   2.036   4.104  13.232 -0.6327  0.0714  0.1990
11790TIP3   OH256784   6.549   0.999  14.806  0.0364  0.3403 -0.2755
11790TIP3    H156785   6.623   1.039  14.760  0.0684  0.6740  0.0542
11790TIP3    H256786   6.509   0.941  14.742  1.4854 -1.0015 -0.0231
11791TIP3   OH256787   5.406   5.459   4.246 -0.3825  0.3696 -0.3604
11791TIP3    H156788   5.339   5.484   4.309 -1.9129 -0.2208 -1.6793
11791TIP3    H256789   5.474   5.418   4.299 -0.9772  1.1053  1.0430
11792TIP3   OH256790   1.844   3.626   1.496 -0.4663  0.2595 -0.0016
11792TIP3    H156791   1.887   3.647   1.579  1.2203  1.4893 -1.1090
11792TIP3    H256792   1.839   3.710   1.450  0.5804 -0.6931 -2.0010
11793TIP3   OH256793   6.599   5.263   1.536 -0.1542 -0.1231  0.5325
11793TIP3    H156794   6.556   5.346   1.519  1.8518  0.4748 -2.2651
11793TIP3    H256795   6.659   5.250   1.463  1.7977 -2.6085  2.3390
11794TIP3   OH256796   5.590   6.306  10.449  0.1178 -0.0741  0.2598
11794TIP3    H156797   5.631   6.222  10.469  1.1293  0.1187 -0.9201
11794TIP3    H256798   5.624   6.330  10.363 -2.0198  0.4042 -0.5060
11795TIP3   OH256799   0.323   2.732   3.619  0.0708 -0.1074  0.3228
11795TIP3    H156800   0.407   2.769   3.592 -1.1643  0.8479 -2.5641
11795TIP3    H256801   0.285   2.798   3.676  0.6074  0.1141  0.4357
11796TIP3   OH256802   0.073   6.718  10.384 -0.2878 -0.2226  0.3843
11796TIP3    H156803   0.082   6.771  10.305  2.0972 -0.4948  0.3995
11796TIP3    H256804   0.061   6.629  10.351  0.3623 -0.2905  0.3286
11797TIP3   OH256805   6.077   4.123   2.461 -0.2245  0.0318 -0.2158
11797TIP3    H156806   6.159   4.172   2.458  0.3723 -0.9622 -2.7394
11797TIP3    H256807   6.009   4.189   2.454  0.4661  0.6887 -0.8088
11798TIP3   OH256808   5.721   4.534  11.903  0.1375  0.3686 -0.3967
11798TIP3    H156809   5.779   4.609  11.916  0.4459 -0.0180  0.4966
11798TIP3    H256810   5.757   4.489  11.827  0.8953  0.2478  0.0244
11799TIP3   OH256811   5.498   0.662  11.121 -0.0405 -0.5938  0.0721
11799TIP3    H156812   5.525   0.575  11.147 -0.4269 -0.5662  0.5712
11799TIP3    H256813   5.575   0.717  11.136  0.2991 -0.8895 -0.5171
11800TIP3   OH256814   6.803   1.427  11.243 -0.0112  0.1015  0.1046
11800TIP3    H156815   6.848   1.364  11.187  0.0835  1.1229 -0.9998
11800TIP3    H256816   6.802   1.385  11.329  2.1263 -0.4131 -0.0547
11801TIP3   OH256817   1.192   6.108  16.837 -0.1833 -0.3591  0.2561
11801TIP3    H156818   1.234   6.099  16.752 -0.3854 -0.4595  0.1678
11801TIP3    H256819   1.217   6.196  16.867 -0.2639 -0.2529  0.0107
11802TIP3   OH256820   0.055   0.089  13.048 -0.6241 -0.0787 -0.0180
11802TIP3    H156821   0.125   0.124  12.992 -0.8500  0.9727  0.3483
11802TIP3    H256822  -0.011   0.057  12.986  0.3009 -1.4136 -0.3816
11803TIP3   OH256823   2.803   6.496   0.205  0.3883 -0.7073  0.0958
11803TIP3    H156824   2.728   6.466   0.255  1.0721 -3.0909 -0.1668
11803TIP3    H256825   2.790   6.590   0.196 -2.4130 -0.9902  0.2741
11804TIP3   OH256826   0.606   6.759   6.469 -0.1333  0.1386  0.4115
11804TIP3    H156827   0.549   6.834   6.452  0.3031  0.4032  0.0860
11804TIP3    H256828   0.556   6.683   6.441 -0.9324  0.2111  1.5560
11805TIP3   OH256829   4.489   2.382  15.739  0.3384 -0.1922  0.3784
11805TIP3    H156830   4.566   2.440  15.741  0.0005  0.2594  0.5444
11805TIP3    H256831   4.526   2.294  15.741  0.9148 -0.0193 -1.3066
11806TIP3   OH256832   3.279   2.081  16.998  0.2830  0.4054  0.4103
11806TIP3    H156833   3.227   2.046  17.070 -0.5193  0.6162 -0.0473
11806TIP3    H256834   3.217   2.090  16.926  1.1545 -0.1821 -0.4405
11807TIP3   OH256835   4.208   1.294  13.295  0.5037  0.5840 -0.2481
11807TIP3    H156836   4.159   1.269  13.373  0.9588  0.9229  0.1492
11807TIP3    H256837   4.298   1.270  13.314  1.0304  2.8479  0.3129
11808TIP3   OH256838   3.350   6.593   5.421 -0.1326 -0.6735  0.3576
11808TIP3    H156839   3.386   6.509   5.449  1.4457 -0.7496 -1.6010
11808TIP3    H256840   3.419   6.656   5.441 -1.0111  0.0638  1.1420
11809TIP3   OH256841   6.103   0.411   0.603 -0.2873 -0.2415  0.7615
11809TIP3    H156842   6.094   0.502   0.630 -0.7572 -0.3154  0.8628
11809TIP3    H256843   6.127   0.364   0.683  1.5922  0.0277  0.4004
11810TIP3   OH256844   0.443   2.975   1.391 -0.4273  0.1711 -0.7884
11810TIP3    H156845   0.474   3.061   1.421  0.3553 -0.2093 -0.4843
11810TIP3    H256846   0.491   2.959   1.310  0.5436 -0.6155 -0.0881
11811TIP3   OH256847   5.121   0.212   1.924 -0.3943 -0.1493  0.2567
11811TIP3    H156848   5.144   0.136   1.871 -0.7588 -0.5878  0.7186
11811TIP3    H256849   5.205   0.253   1.946 -0.2799  1.4913 -2.7032
11812TIP3   OH256850   2.603   2.253  17.075 -0.2480 -0.3291  0.4265
11812TIP3    H156851   2.662   2.242  17.150  0.3585 -1.3413 -0.1743
11812TIP3    H256852   2.574   2.165  17.053 -2.3202  0.1711  0.9214
11813TIP3   OH256853   0.268   6.496   2.453  0.4836 -0.0876  0.1594
11813TIP3    H156854   0.327   6.447   2.395  1.1864 -1.0894  1.6396
11813TIP3    H256855   0.326   6.532   2.520 -0.2498  1.4676 -0.0120
11814TIP3   OH256856   2.731   2.999   2.322  0.0956 -0.2639  0.6689
11814TIP3    H156857   2.775   2.987   2.406 -0.1327 -2.1817  0.5602
11814TIP3    H256858   2.800   3.024   2.262  0.5253 -0.3195  1.1337
11815TIP3   OH256859   6.141   4.573   4.083  0.0993 -0.0807  0.4938
11815TIP3    H156860   6.159   4.542   3.994  2.0770 -0.3432  0.9453
11815TIP3    H256861   6.078   4.644   4.072  1.5397  0.9991 -1.2848
11816TIP3   OH256862   1.948   6.191   5.043 -0.6338 -0.1250 -0.2502
11816TIP3    H156863   1.867   6.227   5.077  0.1255  1.6475 -0.2360
11816TIP3    H256864   1.923   6.106   5.006 -2.0686 -0.6398  1.7163
11817TIP3   OH256865   1.606   5.511   0.313  0.3462  0.2515  0.4120
11817TIP3    H156866   1.592   5.449   0.385  1.2452 -2.3468 -1.4773
11817TIP3    H256867   1.550   5.478   0.242  1.0721  1.4255 -0.7546
11818TIP3   OH256868   2.533   4.290   1.272  0.0420 -0.4602  0.4802
11818TIP3    H156869   2.590   4.220   1.238  1.0488 -0.1136  1.3940
11818TIP3    H256870   2.518   4.267   1.363 -1.2385 -0.4894  0.2757
11819TIP3   OH256871   4.886   5.411   2.234 -0.3202 -0.1390  0.0901
11819TIP3    H156872   4.870   5.481   2.298 -1.1253 -0.9653  0.8462
11819TIP3    H256873   4.810   5.415   2.175  1.2383  1.7055 -1.9116
11820TIP3   OH256874   6.690   1.595   5.099  0.1693 -0.8203  1.1412
11820TIP3    H156875   6.601   1.627   5.115  0.7052 -0.1507  3.0460
11820TIP3    H256876   6.746   1.672   5.112  1.0812 -1.3443  0.4643
11821TIP3   OH256877   5.291   6.447  12.901 -0.6490  0.4411  0.2332
11821TIP3    H156878   5.229   6.441  12.974 -0.4921 -0.8980  0.2911
11821TIP3    H256879   5.269   6.371  12.846  0.4989  0.3391 -0.1003
11822TIP3   OH256880   4.279   4.503   5.337  0.1281  0.0386  0.2010
11822TIP3    H156881   4.286   4.429   5.398  0.5247  0.2347  0.3988
11822TIP3    H256882   4.268   4.579   5.394 -0.0675  0.1555  0.0045
11823TIP3   OH256883   6.337   2.106   2.146 -0.1246 -0.0829 -0.3117
11823TIP3    H156884   6.271   2.146   2.090  0.5909 -2.0630 -2.7639
11823TIP3    H256885   6.288   2.043   2.199 -0.4858  0.0203 -0.5239
11824TIP3   OH256886   1.727   4.694  15.447  0.8185 -0.3441  0.2305
11824TIP3    H156887   1.809   4.645  15.442 -0.3370 -2.2483 -1.5052
11824TIP3    H256888   1.667   4.635  15.493 -0.2364 -0.0245 -0.6961
11825TIP3   OH256889   2.269   4.192  13.903 -0.0736 -0.0493 -0.5422
11825TIP3    H156890   2.176   4.188  13.879  0.2834  1.6359 -2.4913
11825TIP3    H256891   2.314   4.150  13.831  0.7512  0.0386 -0.0896
11826TIP3   OH256892   1.510   2.569  13.400 -0.2425 -0.1578  0.0324
11826TIP3    H156893   1.447   2.622  13.450 -1.1317 -0.2850 -0.9125
11826TIP3    H256894   1.562   2.525  13.467 -1.3239 -0.2247  0.8680
11827TIP3   OH256895   5.773   4.601  13.723  0.6289  0.3015  0.4633
11827TIP3    H156896   5.766   4.665  13.795 -0.4659  0.0554  0.6009
11827TIP3    H256897   5.715   4.529  13.750 -0.5533  0.6192 -1.0711
11828TIP3   OH256898   0.267   1.344   2.347  0.0670 -0.4668 -0.0855
11828TIP3    H156899   0.348   1.386   2.376  0.3653 -1.0163 -0.1142
11828TIP3    H256900   0.199   1.409   2.364  0.3503 -0.4350  1.0275
11829TIP3   OH256901   1.623   6.585   3.181 -0.6346 -0.5362  0.1814
11829TIP3    H156902   1.687   6.519   3.152 -2.3694 -2.0718 -0.2973
11829TIP3    H256903   1.562   6.593   3.108 -0.5411  1.5613  0.2778
11830TIP3   OH256904   4.162   3.260   2.863  0.1666 -0.3090  0.1751
11830TIP3    H156905   4.096   3.328   2.872  0.6019 -0.0905  2.6111
11830TIP3    H256906   4.123   3.184   2.906  0.7128 -0.7731 -0.1470
11831TIP3   OH256907   1.075   6.649  12.560 -0.6527  0.2603  0.1578
11831TIP3    H156908   1.046   6.612  12.477 -0.2075  0.1141  0.0640
11831TIP3    H256909   1.030   6.598  12.627  1.0905 -1.4946  0.0818
11832TIP3   OH256910   0.607   3.573   1.162 -0.0672 -0.4203 -0.5445
11832TIP3    H156911   0.539   3.560   1.228 -0.5864 -1.2266 -1.2047
11832TIP3    H256912   0.564   3.625   1.094  0.3845  0.1886 -0.3742
11833TIP3   OH256913   6.804   3.652  15.856  0.1097 -0.4275 -0.6731
11833TIP3    H156914   6.753   3.669  15.935  0.8496  0.4423 -0.3719
11833TIP3    H256915   6.783   3.726  15.798  0.8807 -0.1529 -0.6138
11834TIP3   OH256916   0.996   0.297  16.222 -0.8583 -0.3228  0.2042
11834TIP3    H156917   0.970   0.220  16.173  2.0131 -1.1695 -0.1344
11834TIP3    H256918   1.046   0.350  16.160  2.3888 -1.1559  1.8847
11835TIP3   OH256919   0.441   3.468  11.152  0.2908 -0.4719 -0.5726
11835TIP3    H156920   0.440   3.557  11.116 -1.0025 -0.0277  0.4758
11835TIP3    H256921   0.521   3.429  11.118  3.3076  2.5459  2.3875
11836TIP3   OH256922   1.339   0.621   2.194  0.0881 -0.6773  0.0575
11836TIP3    H156923   1.422   0.579   2.217  0.9025  0.1911 -1.1686
11836TIP3    H256924   1.276   0.586   2.258  1.4290 -1.1671  1.1710
11837TIP3   OH256925   3.582   1.776  10.998 -0.0519  0.0501  0.2520
11837TIP3    H156926   3.666   1.799  10.957  0.6255 -2.2054  0.2190
11837TIP3    H256927   3.541   1.716  10.936 -0.3461 -1.1435  1.5569
11838TIP3   OH256928   4.886   2.806  12.107  0.3247  0.4257  0.3031
11838TIP3    H156929   4.843   2.836  12.186 -0.4983  0.1793 -0.0369
11838TIP3    H256930   4.892   2.711  12.117  0.3233  0.4054  0.1281
11839TIP3   OH256931   2.724   1.653  16.208 -0.0459  0.2192  0.4507
11839TIP3    H156932   2.759   1.734  16.245  2.5704 -1.2022  1.3762
11839TIP3    H256933   2.689   1.605  16.283 -1.8615  0.5682 -0.1351
11840TIP3   OH256934   5.798   3.906  16.958 -0.0253  1.1225 -0.3290
11840TIP3    H156935   5.822   3.834  17.016  0.1059  1.7310  0.3950
11840TIP3    H256936   5.788   3.981  17.016 -0.3549  1.6455 -1.0423
11841TIP3   OH256937   3.507   3.020  16.712 -0.3639 -0.0031 -0.2359
11841TIP3    H156938   3.416   3.010  16.741 -1.0281  0.9609 -1.8537
11841TIP3    H256939   3.504   3.007  16.617  1.2403 -0.1770 -0.2946
11842TIP3   OH256940   0.648   3.555  16.594 -0.1910  0.2505  0.1397
11842TIP3    H156941   0.619   3.492  16.659 -0.1753 -0.7220 -0.7779
11842TIP3    H256942   0.587   3.628  16.603 -0.2096  0.1233  1.2129
11843TIP3   OH256943   0.709   2.239  12.438  0.1393 -0.6625 -0.5805
11843TIP3    H156944   0.786   2.240  12.382  0.7971 -0.6531  0.3034
11843TIP3    H256945   0.673   2.327  12.432  1.5139  0.0173  0.7676
11844TIP3   OH256946   5.711   0.999   5.304 -0.1334 -0.1702  0.4548
11844TIP3    H156947   5.677   0.980   5.217  0.2446 -1.7519  0.6322
11844TIP3    H256948   5.634   1.028   5.354 -0.0596  2.6458 -0.8389
11845TIP3   OH256949   0.738   2.430   4.190  0.0079 -0.2817  0.6262
11845TIP3    H156950   0.668   2.420   4.124 -0.1424  0.9807  0.5588
11845TIP3    H256951   0.750   2.525   4.196  0.2870 -0.3981  2.1504
11846TIP3   OH256952   6.462   6.299   3.682  0.3886 -0.1405  0.1917
11846TIP3    H156953   6.537   6.352   3.653  1.1679 -0.1895  1.9582
11846TIP3    H256954   6.435   6.250   3.604  0.1040  2.2813 -1.3195
11847TIP3   OH256955   1.759   1.590  12.693 -0.4840  0.0081  0.0791
11847TIP3    H156956   1.720   1.651  12.630  0.2087  0.9249  0.5137
11847TIP3    H256957   1.699   1.515  12.694  0.0655 -0.5793 -2.5287
11848TIP3   OH256958   1.650   3.631   4.214 -0.1838  0.7185  0.0127
11848TIP3    H156959   1.731   3.676   4.239 -0.9445  1.1640  1.9049
11848TIP3    H256960   1.588   3.655   4.283 -2.2538  1.2263 -1.9036
11849TIP3   OH256961   4.658   3.310   1.498  0.1135 -0.0207  0.0361
11849TIP3    H156962   4.609   3.313   1.416 -1.2129  0.8054  0.8319
11849TIP3    H256963   4.703   3.226   1.496 -0.6724 -0.4350 -1.1070
11850TIP3   OH256964   5.345   1.063  14.682 -0.5061 -0.1925  0.0815
11850TIP3    H156965   5.332   1.158  14.680 -2.1549 -0.3694 -2.2862
11850TIP3    H256966   5.427   1.049  14.633 -0.0627  0.0193  0.7568
11851TIP3   OH256967   5.993   5.288  15.783  0.2447  0.4454  0.0904
11851TIP3    H156968   5.900   5.306  15.795  0.3085  0.3522  0.7678
11851TIP3    H256969   5.997   5.192  15.776  0.1211  0.5430 -1.5301
11852TIP3   OH256970   3.961   2.242   2.793 -0.0789  0.4972  0.5222
11852TIP3    H156971   3.905   2.176   2.834  1.6834 -1.0129  0.6483
11852TIP3    H256972   3.976   2.208   2.704  0.0594  1.2269  0.2648
11853TIP3   OH256973   5.950   0.119   1.327 -0.2341 -0.4837 -0.3951
11853TIP3    H156974   5.996   0.062   1.389 -0.0523  0.3058  0.2128
11853TIP3    H256975   5.935   0.064   1.250  1.2738 -0.9192 -0.4057
11854TIP3   OH256976   6.451   4.222  13.550  0.8846  0.0085  0.5769
11854TIP3    H156977   6.465   4.218  13.455  0.6249  0.7091  0.5011
11854TIP3    H256978   6.421   4.135  13.574  3.3954 -0.9838  0.4159
11855TIP3   OH256979   6.001   0.840   5.071 -0.3505 -0.0162  0.3425
11855TIP3    H156980   6.054   0.829   5.150 -1.8283  2.4826  1.8331
11855TIP3    H256981   5.911   0.825   5.100 -0.9711  1.3596 -0.7454
11856TIP3   OH256982   4.256   2.262   2.792  0.1850 -0.2565 -0.0491
11856TIP3    H156983   4.230   2.301   2.709 -0.4496  2.5899  1.3626
11856TIP3    H256984   4.174   2.246   2.838  0.5806  0.7089  1.0454
11857TIP3   OH256985   6.187   1.542  15.704  0.1794 -0.2588 -0.0027
11857TIP3    H156986   6.204   1.624  15.657  2.0659 -0.5974  0.0015
11857TIP3    H256987   6.212   1.561  15.795  2.4777 -1.3216 -0.3462
11858TIP3   OH256988   6.448   5.850  13.307 -0.4193  0.6832 -0.4619
11858TIP3    H156989   6.419   5.760  13.291  0.0638  0.5949 -0.8778
11858TIP3    H256990   6.391   5.881  13.377 -0.0307 -0.2423  0.3015
11859TIP3   OH256991   6.568   0.703   1.597  0.3926 -0.6186  0.1738
11859TIP3    H156992   6.652   0.727   1.557 -0.4432  1.4246 -0.5117
11859TIP3    H256993   6.506   0.764   1.559 -1.3003 -1.6381  1.1917
11860TIP3   OH256994   1.806   3.669   2.916  0.3952  0.6128 -0.0867
11860TIP3    H156995   1.711   3.674   2.905  0.5358 -0.3000 -2.3847
11860TIP3    H256996   1.821   3.688   3.008 -1.9702  1.2515  0.2325
11861TIP3   OH256997   3.775   4.279   2.392  0.0019  0.2672  0.1141
11861TIP3    H156998   3.709   4.282   2.462  0.0529  0.2015  0.1647
11861TIP3    H256999   3.746   4.346   2.330  0.2468  0.6951  0.4579
11862TIP3   OH257000   4.267   1.333  14.413  0.1889 -0.2374  0.6345
11862TIP3    H157001   4.289   1.406  14.471  1.0399  0.2061 -0.2308
11862TIP3    H257002   4.171   1.337  14.405  0.2646  1.0509  0.2610
11863TIP3   OH257003   5.614   4.722   1.140  0.0144 -0.0902 -0.0856
11863TIP3    H157004   5.564   4.789   1.186 -1.6204 -1.3477  0.0442
11863TIP3    H257005   5.705   4.750   1.149 -0.4681  1.0558  1.6800
11864TIP3   OH257006   2.826   6.188  12.129  0.3128 -0.6881 -0.5172
11864TIP3    H157007   2.759   6.207  12.194  0.6992  0.8898 -0.5426
11864TIP3    H257008   2.804   6.244  12.054  0.7183 -1.3717 -1.1636
11865TIP3   OH257009   5.633   5.292  17.089  0.0117  0.2187 -0.1810
11865TIP3    H157010   5.571   5.276  17.160 -0.6982  0.6846 -0.6705
11865TIP3    H257011   5.653   5.205  17.054 -0.6163  0.0787 -0.2119
11866TIP3   OH257012   2.016   3.154   5.932  0.0168  0.5857 -0.4700
11866TIP3    H157013   2.079   3.211   5.976  1.0743 -0.4606 -0.5880
11866TIP3    H257014   2.068   3.078   5.904 -1.4168 -0.6197  0.0244
11867TIP3   OH257015   1.690   5.499   6.301  0.0484  0.0293  0.8650
11867TIP3    H157016   1.741   5.521   6.379 -1.2195  1.8986  1.2612
11867TIP3    H257017   1.751   5.508   6.228  0.6698  0.6796  1.4542
11868TIP3   OH257018   5.014   1.664  13.350  0.2124  0.3106  0.5258
11868TIP3    H157019   5.058   1.742  13.314 -0.2336 -0.2216 -1.2841
11868TIP3    H257020   5.064   1.642  13.428  2.3539  0.5600 -0.6899
11869TIP3   OH257021   2.186   6.053  12.056 -0.8068 -0.0238 -0.1410
11869TIP3    H157022   2.203   6.075  12.148  0.4470 -0.1853 -0.3209
11869TIP3    H257023   2.197   5.959  12.051 -1.6177 -0.1153 -0.3156
11870TIP3   OH257024   0.175   4.281   1.711  0.2211  0.0920 -0.7050
11870TIP3    H157025   0.179   4.375   1.695 -0.8337  0.6032  1.6841
11870TIP3    H257026   0.222   4.268   1.793  1.3175 -1.6740 -1.5374
11871TIP3   OH257027   0.880   3.615  14.853  0.4131 -0.0403  0.1459
11871TIP3    H157028   0.796   3.632  14.896 -0.5624 -1.1852 -1.2136
11871TIP3    H257029   0.907   3.700  14.818 -0.1897  0.3276  0.5544
11872TIP3   OH257030   6.754   0.536  13.094 -0.6050  0.2459 -0.2770
11872TIP3    H157031   6.834   0.523  13.043 -0.4969  1.8149 -0.5709
11872TIP3    H257032   6.727   0.448  13.118 -0.1874 -0.5106 -2.3112
11873TIP3   OH257033   2.133   5.738  16.571  0.0399 -0.2022  0.2289
11873TIP3    H157034   2.219   5.747  16.529 -0.4244  2.1712 -0.3444
11873TIP3    H257035   2.071   5.737  16.499 -0.5710  0.8428  0.7178
11874TIP3   OH257036   3.325   3.179   2.779 -0.4214  0.4127  0.0258
11874TIP3    H157037   3.329   3.144   2.868  0.0908  0.9594  0.2276
11874TIP3    H257038   3.320   3.274   2.791  0.8934  0.5794 -0.5317
11875TIP3   OH257039   2.286   4.024  16.585 -0.3286 -0.0500 -0.3391
11875TIP3    H157040   2.199   4.033  16.624  0.9724  0.4596  2.7879
11875TIP3    H257041   2.273   3.967  16.509 -3.5265  0.9880 -0.7334
11876TIP3   OH257042   3.396   5.360  12.101 -0.1131  0.7140  0.5300
11876TIP3    H157043   3.420   5.362  12.194  0.2820  1.5309  0.4222
11876TIP3    H257044   3.354   5.444  12.085  0.6414  0.9661 -0.2374
11877TIP3   OH257045   3.251   5.688  15.653 -0.0737  0.1219  0.3118
11877TIP3    H157046   3.316   5.664  15.588 -0.7918 -1.5313  0.1400
11877TIP3    H257047   3.276   5.775  15.683  1.1111  0.2836 -1.0984
11878TIP3   OH257048   0.155   3.218  16.408 -0.4164  0.2391  1.0268
11878TIP3    H157049   0.091   3.188  16.473  0.2188 -0.0430  1.5307
11878TIP3    H257050   0.238   3.178  16.435 -0.1054  0.2633  0.1420
11879TIP3   OH257051   5.901   1.103  13.392  0.2296  0.1785  0.3422
11879TIP3    H157052   5.827   1.063  13.438 -0.0581  0.4220  0.0833
11879TIP3    H257053   5.950   1.148  13.461 -0.0711  0.3398  0.4501
11880TIP3   OH257054   4.994   2.224   0.476 -0.2131 -0.5951 -0.0113
11880TIP3    H157055   5.053   2.156   0.445 -0.5115 -1.0616  0.4201
11880TIP3    H257056   4.920   2.220   0.416  0.4353  0.3778 -0.9005
11881TIP3   OH257057   3.517   2.452   1.118 -0.7498  0.1734  0.4482
11881TIP3    H157058   3.474   2.524   1.071 -0.4068  0.4051  0.4800
11881TIP3    H257059   3.583   2.420   1.056 -0.6888  0.0969  0.5537
11882TIP3   OH257060   3.989   0.251  11.564 -0.0248 -0.1481 -0.1509
11882TIP3    H157061   3.956   0.241  11.653 -0.1549 -0.9949 -0.2763
11882TIP3    H257062   3.972   0.165  11.523  0.0627  0.2140 -0.9726
11883TIP3   OH257063   0.109   0.131   5.651  0.3839 -0.2991  0.1958
11883TIP3    H157064   0.039   0.129   5.587 -0.9053  0.2528  1.5258
11883TIP3    H257065   0.186   0.097   5.605 -0.8257 -1.2345 -1.1933
11884TIP3   OH257066   2.644   6.773   1.219  0.5515 -0.0061  0.7392
11884TIP3    H157067   2.680   6.806   1.136  1.5883  1.8477  1.8503
11884TIP3    H257068   2.707   6.800   1.285 -1.8305  1.5415  2.5626
11885TIP3   OH257069   1.337   4.072   2.754  0.0245  0.4891  0.1784
11885TIP3    H157070   1.391   4.078   2.833  0.5409 -0.0707 -0.1201
11885TIP3    H257071   1.400   4.074   2.682 -0.2348 -1.2365 -0.1465
11886TIP3   OH257072   6.689   1.396  13.632  0.1975 -0.3256  0.5480
11886TIP3    H157073   6.665   1.350  13.713 -0.0517 -0.4681  0.3943
11886TIP3    H257074   6.775   1.360  13.609 -0.4897 -1.5507 -0.1860
11887TIP3   OH257075   5.371   4.667  11.510 -0.8371 -0.0027  0.7007
11887TIP3    H157076   5.422   4.689  11.588  0.0464  0.3921  0.0206
11887TIP3    H257077   5.424   4.699  11.436 -2.1598  0.5992 -0.0166
11888TIP3   OH257078   6.576   6.669   1.442 -0.4042 -0.5975 -0.0524
11888TIP3    H157079   6.605   6.725   1.370  1.2227  0.1454  1.1074
11888TIP3    H257080   6.585   6.580   1.408  0.4240 -0.2669 -0.7525
11889TIP3   OH257081   1.303   0.184   6.217  0.2734  0.1770  0.6310
11889TIP3    H157082   1.317   0.273   6.184 -0.4664 -0.0836 -0.4382
11889TIP3    H257083   1.391   0.152   6.239  0.9634  0.0485 -2.0063
11890TIP3   OH257084   1.930   4.523  15.423  0.0298  0.7355 -0.1279
11890TIP3    H157085   2.015   4.560  15.443  0.3753 -0.4490  0.7067
11890TIP3    H257086   1.949   4.441  15.377 -0.5928 -0.1803  1.1726
11891TIP3   OH257087   5.402   2.925   1.426  0.1094  0.3845 -0.3398
11891TIP3    H157088   5.336   2.925   1.356 -0.8083  1.5838  0.4790
11891TIP3    H257089   5.441   3.012   1.422  0.2423  0.3685  0.4632
11892TIP3   OH257090   5.877   0.585  17.098 -0.0697 -0.1453  0.1923
11892TIP3    H157091   5.886   0.631  17.182  0.4886  0.4044 -0.1620
11892TIP3    H257092   5.821   0.643  17.045  0.7876  0.2303 -0.3217
11893TIP3   OH257093   2.794   5.383  11.173 -0.4427 -0.1141  0.2804
11893TIP3    H157094   2.834   5.346  11.251 -0.7502 -1.2465 -0.0757
11893TIP3    H257095   2.792   5.311  11.110  1.4646  1.2230 -1.4508
11894TIP3   OH257096   6.794   2.265   4.282 -0.0784 -0.6925 -0.6295
11894TIP3    H157097   6.776   2.273   4.189 -1.2552 -2.4518 -0.5944
11894TIP3    H257098   6.715   2.226   4.319 -0.1420  1.1428  1.3438
11895TIP3   OH257099   3.018   2.203   2.604  0.4259 -0.3844  0.4093
11895TIP3    H157100   2.928   2.225   2.581  0.4257 -1.2724 -0.5187
11895TIP3    H257101   3.049   2.278   2.654 -1.0123 -0.3095  1.2528
11896TIP3   OH257102   6.793   3.018  16.829 -0.4316  0.1763  0.0492
11896TIP3    H157103   6.786   2.980  16.741 -0.5514 -1.0078  0.5445
11896TIP3    H257104   6.709   2.998  16.871  0.3213 -1.0607  1.0739
11897TIP3   OH257105   0.484   5.134   5.633 -0.1724  0.6331  0.4745
11897TIP3    H157106   0.416   5.195   5.603 -0.3714  0.5473  0.7471
11897TIP3    H257107   0.565   5.170   5.599 -0.2776  1.1067  0.7163
11898TIP3   OH257108   1.357   1.836  16.175 -0.1430 -0.2374 -0.3097
11898TIP3    H157109   1.378   1.907  16.235 -1.3526 -0.0694 -0.0722
11898TIP3    H257110   1.329   1.879  16.095  0.7930 -0.4656 -0.7806
11899TIP3   OH257111   6.806   0.842   5.192  0.2924  0.3359 -0.1513
11899TIP3    H157112   6.781   0.763   5.143 -0.4321  0.3283  0.2272
11899TIP3    H257113   6.877   0.813   5.250  0.6469  0.1764 -0.6500
11900TIP3   OH257114   3.815   3.099  11.817 -0.2442  0.7248  0.2230
11900TIP3    H157115   3.738   3.156  11.810 -0.8447 -0.2791 -2.3430
11900TIP3    H257116   3.887   3.160  11.834 -1.2144  1.9996 -0.0160
11901TIP3   OH257117   5.384   0.820  12.644  0.0365 -0.0902  0.0998
11901TIP3    H157118   5.290   0.839  12.650 -0.3577 -1.4391 -1.3637
11901TIP3    H257119   5.395   0.778  12.559  1.5508 -2.2763  1.2867
11902TIP3   OH257120   4.217   3.903   6.063 -0.8065 -0.0054  0.5879
11902TIP3    H157121   4.261   3.985   6.087 -0.1407 -0.2381  0.1880
11902TIP3    H257122   4.202   3.911   5.969  1.1872 -1.2237  0.1253
11903TIP3   OH257123   2.984   2.043  14.953 -0.3672  0.6622  0.0164
11903TIP3    H157124   3.030   2.125  14.933 -0.7216  0.9013  0.1681
11903TIP3    H257125   3.009   2.021  15.042  0.4071  0.1429 -0.3223
11904TIP3   OH257126   5.985   0.604  15.405 -0.4708 -0.3492 -0.9299
11904TIP3    H157127   5.988   0.597  15.310 -1.4889  2.1519 -1.2338
11904TIP3    H257128   6.018   0.692  15.424 -0.1148 -0.8437  1.0604
11905TIP3   OH257129   5.349   3.984   3.365 -0.3908  0.0990 -0.3184
11905TIP3    H157130   5.283   4.007   3.430 -1.4813  2.2795 -2.0521
11905TIP3    H257131   5.401   3.915   3.406 -2.2526 -0.0119  2.0338
11906TIP3   OH257132   2.819   3.502  15.240 -0.0099  0.1209 -0.6757
11906TIP3    H157133   2.915   3.506  15.238  0.0862 -0.9490  0.3894
11906TIP3    H257134   2.796   3.430  15.183 -0.0774 -0.5032  0.1177
11907TIP3   OH257135   4.744   6.110  17.130  0.0419 -0.2722 -0.1965
11907TIP3    H157136   4.746   6.173  17.058 -1.6136 -0.8008 -0.7626
11907TIP3    H257137   4.778   6.029  17.091 -0.1492 -0.3615 -0.1793
11908TIP3   OH257138   1.739   4.791   1.968  0.1297  0.1277 -0.1410
11908TIP3    H157139   1.688   4.872   1.971 -0.8339 -0.4793  0.2036
11908TIP3    H257140   1.676   4.722   1.986  0.9243 -0.7178 -0.5077
11909TIP3   OH257141   4.354   5.801  15.924 -0.2364 -0.2886  0.2802
11909TIP3    H157142   4.418   5.754  15.872  0.0909 -0.3091  0.6966
11909TIP3    H257143   4.358   5.891  15.892  0.1126 -0.2576  0.4090
11910TIP3   OH257144   5.514   4.401  15.940  0.3479 -0.5946 -0.0700
11910TIP3    H157145   5.542   4.322  15.894  1.2261 -0.8372  0.8580
11910TIP3    H257146   5.552   4.473  15.889  0.0457 -0.7823 -0.5713
11911TIP3   OH257147   2.493   3.125   2.181  0.2620 -0.3208 -0.0431
11911TIP3    H157148   2.575   3.170   2.161 -0.2212  0.8402  0.5465
11911TIP3    H257149   2.427   3.194   2.183 -0.7278 -1.2289 -0.4272
11912TIP3   OH257150   0.074   6.006  14.428 -0.5507  0.6170 -0.0225
11912TIP3    H157151  -0.019   6.016  14.451 -0.2815  1.7490  0.6738
11912TIP3    H257152   0.088   6.071  14.359 -0.2868  0.4148 -0.1598
11913TIP3   OH257153   2.020   2.622  14.856 -0.8509 -0.1911  0.1891
11913TIP3    H157154   2.101   2.586  14.890  0.2129  0.1806 -1.7766
11913TIP3    H257155   2.018   2.594  14.764 -2.6655  0.2787  0.0410
11914TIP3   OH257156   5.123   6.545  12.674  0.5378  0.4070 -0.4544
11914TIP3    H157157   5.209   6.551  12.632 -0.0286  2.1646 -1.4659
11914TIP3    H257158   5.099   6.452  12.665  2.1817 -0.0600 -0.3996
11915TIP3   OH257159   3.084   1.107  11.610  0.2777 -0.0090  0.1901
11915TIP3    H157160   3.173   1.142  11.618  1.0230 -1.9466  0.7208
11915TIP3    H257161   3.046   1.118  11.697 -0.0929  0.9459 -0.0708
11916TIP3   OH257162   5.902   1.332  11.917 -0.3201 -0.2176  0.1392
11916TIP3    H157163   5.962   1.386  11.969 -0.0815  0.2596 -0.6170
11916TIP3    H257164   5.865   1.392  11.853 -0.2827 -0.8946 -0.5295
11917TIP3   OH257165   5.696   1.877  12.713 -0.5259 -0.2244  0.4727
11917TIP3    H157166   5.756   1.808  12.741  0.3072  0.6187  0.8047
11917TIP3    H257167   5.624   1.830  12.670 -0.0876 -1.3066  0.8880
11918TIP3   OH257168   6.782   6.006   1.226  0.5390  0.3277  0.4326
11918TIP3    H157169   6.862   6.033   1.271  0.9828 -0.3996  0.1148
11918TIP3    H257170   6.774   5.913   1.247 -1.2959  0.7907  2.0454
11919TIP3   OH257171   4.018   1.109  14.472 -0.1048 -1.0863 -0.4489
11919TIP3    H157172   3.989   1.024  14.506  1.5785 -1.6199 -0.2402
11919TIP3    H257173   3.948   1.169  14.497 -0.8173 -2.2078  0.3944
11920TIP3   OH257174   0.446   5.516  14.390 -0.1928  0.5314  0.1919
11920TIP3    H157175   0.399   5.519  14.473  0.5144  2.1758  0.5573
11920TIP3    H257176   0.444   5.423  14.366 -1.0113  0.1224  1.6769
11921TIP3   OH257177   1.838   2.968   5.815  0.0789 -0.4043  0.6694
11921TIP3    H157178   1.844   2.988   5.722 -0.5343  1.4984  0.9903
11921TIP3    H257179   1.903   3.024   5.856 -0.5493 -0.2579  1.4932
11922TIP3   OH257180   4.511   2.063  13.007  0.0966  0.6678 -0.1753
11922TIP3    H157181   4.553   2.139  13.048  0.3197  0.0350  0.7953
11922TIP3    H257182   4.537   2.068  12.915  2.3132  0.3179  0.3750
11923TIP3   OH257183   1.037   1.333  15.551  0.0992 -0.1309 -0.1807
11923TIP3    H157184   0.949   1.351  15.520  0.3760  0.4563 -0.6577
11923TIP3    H257185   1.089   1.407  15.520  0.7764 -0.5128  0.0099
11924TIP3   OH257186   6.324   6.427  15.627  0.0837  0.6206  0.6165
11924TIP3    H157187   6.416   6.456  15.632  0.6843 -1.0350 -0.2864
11924TIP3    H257188   6.328   6.341  15.585 -2.0334  1.2472 -1.0371
11925TIP3   OH257189   3.258   4.517  16.317 -0.1215 -0.2119  0.2362
11925TIP3    H157190   3.263   4.512  16.222 -2.5567  0.1896  0.0340
11925TIP3    H257191   3.348   4.533  16.345  0.3791  1.5301 -2.1240
11926TIP3   OH257192   6.596   0.116   3.423 -0.0791 -0.2558  0.5690
11926TIP3    H157193   6.584   0.021   3.415 -1.4346  0.0190 -1.4689
11926TIP3    H257194   6.526   0.144   3.483 -0.4128 -0.4170  0.2582
11927TIP3   OH257195   2.715   2.826   3.681  0.4127 -0.5565  0.4578
11927TIP3    H157196   2.664   2.901   3.650 -0.4180 -1.2803  0.0134
11927TIP3    H257197   2.723   2.769   3.605  1.1457 -0.8618  0.7574
11928TIP3   OH257198   3.059   4.948   3.270  0.5736 -0.0423  0.7809
11928TIP3    H157199   3.093   4.867   3.309  0.6197  0.1940  1.2415
11928TIP3    H257200   3.137   4.997   3.246  0.5897  0.7310  2.3155
11929TIP3   OH257201   6.126   3.836   1.476  0.2935 -0.0886 -0.1752
11929TIP3    H157202   6.106   3.866   1.388  1.6949  2.1780  0.1894
11929TIP3    H257203   6.201   3.778   1.466  0.4544  0.1717 -0.4700
11930TIP3   OH257204   2.018   0.209   2.486  0.2506  0.2104  0.1597
11930TIP3    H157205   1.934   0.167   2.466  1.1012 -0.7006 -1.7914
11930TIP3    H257206   2.014   0.293   2.441  0.7181 -0.2441 -0.7674
11931TIP3   OH257207   3.563   4.978   6.540  0.2377 -0.4368  0.3316
11931TIP3    H157208   3.469   4.972   6.558  0.1410 -1.2217 -0.3727
11931TIP3    H257209   3.586   4.893   6.503  0.2379  1.1900 -4.0868
11932TIP3   OH257210   0.289   0.725  15.343 -0.2798 -0.1682  0.4104
11932TIP3    H157211   0.259   0.637  15.320 -0.7861  0.2753 -0.6903
11932TIP3    H257212   0.348   0.750  15.271 -1.8695  1.2358 -0.4771
11933TIP3   OH257213   0.115   1.331   2.779  0.1206  0.1231  0.6897
11933TIP3    H157214   0.142   1.420   2.756  3.3888 -1.1995 -1.3437
11933TIP3    H257215   0.190   1.294   2.824 -0.3970 -2.1439 -0.1707
11934TIP3   OH257216   2.984   3.404   3.058  0.0901  0.6945  0.5180
11934TIP3    H157217   3.070   3.380   3.091  0.2752  0.5810 -0.0355
11934TIP3    H257218   2.931   3.325   3.070  0.2779  0.5076  0.1303
11935TIP3   OH257219   5.432   1.102   3.396  0.8095  0.3425 -0.6187
11935TIP3    H157220   5.363   1.071   3.338  1.1059  1.0224 -1.3555
11935TIP3    H257221   5.411   1.065   3.482 -0.4361  0.5045 -0.8447
11936TIP3   OH257222   4.833   5.021  13.750  0.3245 -0.6569  0.7463
11936TIP3    H157223   4.830   4.928  13.770 -0.6828 -0.4692  1.5565
11936TIP3    H257224   4.743   5.043  13.724  0.2747  0.3061  1.6405
11937TIP3   OH257225   5.327   2.394   3.319 -0.5378  0.0316 -0.0775
11937TIP3    H157226   5.370   2.377   3.235 -0.0787  1.1674 -0.0819
11937TIP3    H257227   5.336   2.488   3.332  1.6402 -0.4225  2.4737
11938TIP3   OH257228   6.301   1.360  16.574  0.1107  0.2012  0.7803
11938TIP3    H157229   6.369   1.368  16.642 -0.7808 -0.3998  1.7766
11938TIP3    H257230   6.306   1.269  16.545  0.2020  0.3444  0.3408
11939TIP3   OH257231   3.014   4.889   6.048  0.3452  0.2530 -0.2364
11939TIP3    H157232   2.988   4.938   6.126 -1.0760 -2.5458  1.1777
11939TIP3    H257233   3.085   4.832   6.078 -0.9924 -1.6935 -0.5966
11940TIP3   OH257234   0.053   5.030   6.073 -0.1729 -0.1335 -0.6648
11940TIP3    H157235   0.142   4.996   6.070  0.4022  1.3903 -2.7537
11940TIP3    H257236   0.033   5.035   6.167  2.2602  0.2884 -0.0952
11941TIP3   OH257237   3.117   1.426  13.129  0.0035 -0.0186 -0.1132
11941TIP3    H157238   3.022   1.423  13.141 -0.3343 -0.6362 -2.4846
11941TIP3    H257239   3.146   1.335  13.144 -0.1177 -0.3035 -1.4533
11942TIP3   OH257240   5.718   4.105  14.776  0.2303 -0.5619  0.0210
11942TIP3    H157241   5.739   4.051  14.699 -3.9454 -0.4119 -1.5079
11942TIP3    H257242   5.732   4.195  14.746  1.2063 -0.5549  0.4472
11943TIP3   OH257243   5.843   5.023   5.785 -0.1516 -0.5320  0.4853
11943TIP3    H157244   5.783   5.089   5.818 -1.1324 -1.3437  0.3778
11943TIP3    H257245   5.856   4.963   5.859 -0.7189 -1.2110  0.0521
11944TIP3   OH257246   5.355   2.194   5.306  0.0174 -0.2013  0.3792
11944TIP3    H157247   5.261   2.177   5.317  0.2124 -1.8603 -0.2453
11944TIP3    H257248   5.362   2.239   5.222 -0.1249 -1.1550 -0.1515
11945TIP3   OH257249   3.778   1.194  14.825  0.4694 -0.0395  0.0939
11945TIP3    H157250   3.831   1.159  14.896  1.7177  1.1842 -0.1915
11945TIP3    H257251   3.727   1.120  14.794  2.0466 -1.2693  0.3465
11946TIP3   OH257252   1.772   4.535  14.942  0.2741  0.5942  0.0288
11946TIP3    H157253   1.729   4.601  14.996  0.1390  1.7785 -1.4626
11946TIP3    H257254   1.812   4.584  14.871 -1.2542 -1.0382 -2.1104
11947TIP3   OH257255   6.410   5.410   1.288 -0.7139 -0.2890  0.3004
11947TIP3    H157256   6.347   5.357   1.337 -2.3400  1.7642  0.5391
11947TIP3    H257257   6.413   5.494   1.334  0.4495  0.4792 -1.0665
11948TIP3   OH257258   2.899   1.570   2.566  0.2299  0.3907 -0.2681
11948TIP3    H157259   2.966   1.616   2.615  1.1086 -0.3739 -0.7246
11948TIP3    H257260   2.845   1.639   2.528 -1.0416  1.0176  2.4370
11949TIP3   OH257261   1.986   3.969  15.862  0.2430 -0.1671  0.2945
11949TIP3    H157262   1.908   4.024  15.861 -0.5633 -1.2221  1.5535
11949TIP3    H257263   2.048   4.017  15.916 -1.6575 -1.8730  4.4481
11950TIP3   OH257264   2.744   2.263  16.328  0.3225  0.4341  0.4108
11950TIP3    H157265   2.673   2.277  16.390  1.8630  1.1634  2.1056
11950TIP3    H257266   2.804   2.204  16.374  0.7994 -0.2321 -1.0106
11951TIP3   OH257267   5.110   3.565   1.141 -0.1391  0.0176 -0.3879
11951TIP3    H157268   5.043   3.589   1.077  0.7440  1.2980 -0.8590
11951TIP3    H257269   5.148   3.648   1.169 -1.6187 -0.3107  3.1148
11952TIP3   OH257270   3.727   0.129   4.837  0.3961 -0.2847  0.6987
11952TIP3    H157271   3.728   0.039   4.868  0.7486 -0.5074  0.0466
11952TIP3    H257272   3.746   0.123   4.743  0.1692  0.4454  0.5971
11953TIP3   OH257273   0.386   1.658  16.747  0.1375  0.5956  0.2513
11953TIP3    H157274   0.473   1.624  16.726 -0.1339 -0.3983  0.7084
11953TIP3    H257275   0.401   1.751  16.766  0.6112  1.2956 -2.9653
11954TIP3   OH257276   2.650   3.792   4.573  0.3468  0.1049 -0.4999
11954TIP3    H157277   2.697   3.714   4.544  0.5118 -1.0323  2.4814
11954TIP3    H257278   2.564   3.760   4.600 -0.4189  1.3737 -1.3079
11955TIP3   OH257279   3.884   5.810   2.640 -0.1082  0.1706 -0.0109
11955TIP3    H157280   3.966   5.844   2.676 -0.1277 -0.5382  0.7093
11955TIP3    H257281   3.869   5.864   2.562 -0.2432  1.9761  1.1860
11956TIP3   OH257282   6.310   6.170   5.173 -0.2244  1.2143 -0.5336
11956TIP3    H157283   6.259   6.252   5.180  1.8809  2.5102  0.6842
11956TIP3    H257284   6.392   6.189   5.218  1.6172 -0.5980 -2.8523
11957TIP3   OH257285   6.412   1.058   5.809 -0.0589 -0.1549  0.5804
11957TIP3    H157286   6.440   1.145   5.782 -1.4404  0.2618  0.4205
11957TIP3    H257287   6.347   1.074   5.877  0.3250 -1.0986  1.1912
11958TIP3   OH257288   1.428   0.351   0.180  0.4332 -0.0589  0.0023
11958TIP3    H157289   1.445   0.264   0.215  1.4025  0.5043  1.0135
11958TIP3    H257290   1.344   0.343   0.135  0.3007 -1.4070  0.4348
11959TIP3   OH257291   0.304   0.704   2.536 -0.5187 -0.2322 -0.1391
11959TIP3    H157292   0.358   0.693   2.614  0.1960  0.6743 -0.4919
11959TIP3    H257293   0.311   0.620   2.491  2.4937  0.5277 -1.3274
11960TIP3   OH257294   4.399   2.242   4.605 -0.1366 -0.4541 -0.2618
11960TIP3    H157295   4.351   2.231   4.523  0.1817  2.0043 -0.8800
11960TIP3    H257296   4.491   2.230   4.582 -0.1265 -0.9005 -0.0052
11961TIP3   OH257297   5.807   3.213   4.943  0.9260 -0.1260 -0.1847
11961TIP3    H157298   5.857   3.223   5.024  1.3578 -2.4485 -0.1127
11961TIP3    H257299   5.870   3.227   4.873  1.3391 -1.4443 -0.0934
11962TIP3   OH257300   1.768   2.890  10.788  0.0965  0.4927  0.2327
11962TIP3    H157301   1.698   2.952  10.768  1.6484  1.3923 -3.0701
11962TIP3    H257302   1.744   2.809  10.743 -1.2508 -1.0829  3.4268
11963TIP3   OH257303   0.161   1.423   4.237  0.3822 -0.1417 -0.3866
11963TIP3    H157304   0.218   1.491   4.274  0.5956 -0.4864 -0.0770
11963TIP3    H257305   0.156   1.445   4.144  1.2709 -0.2801 -0.4758
11964TIP3   OH257306   4.201   1.469  14.670  0.4542  0.2651  0.5736
11964TIP3    H157307   4.260   1.516  14.729 -1.9791  0.3066  3.1636
11964TIP3    H257308   4.118   1.517  14.676 -1.6323 -3.2157  1.9673
11965TIP3   OH257309   5.190   2.251  11.173  0.1209 -0.0919  0.5602
11965TIP3    H157310   5.236   2.171  11.149  0.7646  0.6803 -0.9730
11965TIP3    H257311   5.120   2.259  11.108  1.2755  1.5526 -0.5755
11966TIP3   OH257312   4.946   2.604   4.375  0.0251 -0.7365  0.3932
11966TIP3    H157313   4.983   2.521   4.405 -2.4555 -2.1065 -0.0290
11966TIP3    H257314   4.914   2.647   4.455 -0.9439 -1.4170  0.3888
11967TIP3   OH257315   0.968   5.804   3.646 -0.4599 -0.2585  0.6642
11967TIP3    H157316   0.936   5.783   3.734  0.9950 -0.1538  1.2483
11967TIP3    H257317   1.010   5.890   3.656  0.2880 -0.5376  0.0218
11968TIP3   OH257318   4.800   1.710  15.748 -0.7581 -0.1923  0.0426
11968TIP3    H157319   4.765   1.621  15.752  0.1989 -0.6531 -1.2819
11968TIP3    H257320   4.882   1.705  15.797 -0.4105 -0.1987 -0.5315
11969TIP3   OH257321   0.618   4.839  11.848 -0.2211 -0.8592 -0.3294
11969TIP3    H157322   0.708   4.806  11.848  0.2357  0.3201  0.2676
11969TIP3    H257323   0.567   4.768  11.889  0.1472 -2.1835 -2.0448
11970TIP3   OH257324   2.270   0.242   2.633 -0.2212 -0.1301  0.7835
11970TIP3    H157325   2.187   0.223   2.589 -0.7134  0.5704  1.3876
11970TIP3    H257326   2.322   0.287   2.566 -0.2736 -0.7045  0.3567
11971TIP3   OH257327   2.477   0.299  11.505  0.2260  0.3395 -1.0753
11971TIP3    H157328   2.556   0.303  11.453  0.7322 -0.4484 -0.3931
11971TIP3    H257329   2.430   0.222  11.473 -0.0396  0.5413 -1.1731
11972TIP3   OH257330   2.868   6.238  15.265  0.1009 -0.1148  0.3624
11972TIP3    H157331   2.836   6.241  15.355 -1.8673 -1.8495 -0.2047
11972TIP3    H257332   2.805   6.290  15.215  0.2819 -0.4480 -0.2277
11973TIP3   OH257333   0.225   4.683   3.403 -0.1276 -0.1222  0.9562
11973TIP3    H157334   0.251   4.642   3.321 -3.1605 -0.2284 -0.0563
11973TIP3    H257335   0.181   4.613   3.452 -0.8489  0.6275  1.4128
11974TIP3   OH257336   2.029   1.838  14.518  0.0491  0.1273 -0.3072
11974TIP3    H157337   2.100   1.903  14.517  1.0895 -0.9625 -0.4080
11974TIP3    H257338   1.986   1.851  14.603  1.5907 -0.4106  0.6110
11975TIP3   OH257339   3.549   6.036   5.750 -0.3274  0.0769  0.0723
11975TIP3    H157340   3.576   5.954   5.791  0.5452  0.4362  0.2482
11975TIP3    H257341   3.457   6.023   5.728 -0.7338 -0.2416  1.8490
11976TIP3   OH257342   3.069   1.978  14.269 -0.1472 -0.1239 -0.6189
11976TIP3    H157343   3.055   2.067  14.302  0.6509 -0.3727  0.4684
11976TIP3    H257344   3.089   1.990  14.176  1.1258  0.9655 -0.2491
11977TIP3   OH257345   6.012   5.034  11.507  0.3869  0.7580  0.1278
11977TIP3    H157346   6.079   5.080  11.558 -1.2027  1.1953  1.9641
11977TIP3    H257347   5.937   5.092  11.507 -0.6478 -0.5190 -0.1829
11978TIP3   OH257348   4.350   3.124  15.249  0.1567  0.5234  0.6610
11978TIP3    H157349   4.320   3.084  15.331 -2.6521  1.4079  0.1874
11978TIP3    H257350   4.363   3.217  15.271 -0.2099  0.6860  0.1999
11979TIP3   OH257351   5.163   2.578  14.992 -0.4908 -0.4197 -0.5335
11979TIP3    H157352   5.187   2.492  14.957 -1.0452  0.6509 -3.9740
11979TIP3    H257353   5.248   2.621  15.009 -0.2148 -1.4352  0.8174
11980TIP3   OH257354   2.736   6.240  15.485  0.1816  0.3477  0.0097
11980TIP3    H157355   2.653   6.201  15.458  0.5087  0.7689 -1.7214
11980TIP3    H257356   2.774   6.177  15.547 -1.3824  0.1337  0.8028
11981TIP3   OH257357   4.761   0.287   3.876  0.1430  0.4727 -0.6065
11981TIP3    H157358   4.707   0.343   3.931  0.5466 -0.7911  1.1745
11981TIP3    H257359   4.700   0.252   3.811 -0.3913  1.8357 -0.8711
11982TIP3   OH257360   6.465   0.345   2.339 -0.2010 -0.7632 -0.0706
11982TIP3    H157361   6.376   0.370   2.365  0.3208  1.5177 -0.2665
11982TIP3    H257362   6.505   0.312   2.420 -0.8240 -0.5875  0.3162
11983TIP3   OH257363   3.851   2.645  12.181  0.3553 -0.0660 -0.3955
11983TIP3    H157364   3.771   2.640  12.233  0.3285  3.1360  0.0588
11983TIP3    H257365   3.828   2.605  12.098 -2.0675  1.6019 -0.6143
11984TIP3   OH257366   2.339   5.657  15.180 -0.0137 -1.0916  0.2641
11984TIP3    H157367   2.374   5.739  15.213  0.1389 -1.1163  0.1657
11984TIP3    H257368   2.417   5.604  15.159 -0.1072 -1.0820 -0.1128
11985TIP3   OH257369   3.192   2.613   0.066 -0.1947 -0.4841  0.1057
11985TIP3    H157370   3.143   2.694   0.049  2.2649  1.1507  0.2895
11985TIP3    H257371   3.204   2.573  -0.020  0.7672  0.7480 -0.3638
11986TIP3   OH257372   4.062   4.219  12.639  0.1879  0.1885  0.9462
11986TIP3    H157373   4.050   4.232  12.545 -2.1486 -3.0785  0.6110
11986TIP3    H257374   3.978   4.242  12.678  0.5435 -0.1867  1.9730
11987TIP3   OH257375   5.264   1.823   1.969 -0.5716  0.0909  0.2272
11987TIP3    H157376   5.246   1.789   2.056  0.2215  1.6977  1.0768
11987TIP3    H257377   5.181   1.818   1.923 -0.6878 -2.0357  0.6002
11988TIP3   OH257378   3.315   3.628  14.595  0.8170 -0.3018 -0.1847
11988TIP3    H157379   3.347   3.709  14.556 -1.3981  0.6766 -0.0688
11988TIP3    H257380   3.288   3.574  14.520  0.8327 -0.3107 -0.1838
11989TIP3   OH257381   4.010   3.268  11.879  0.3762  0.1505  0.4534
11989TIP3    H157382   4.077   3.332  11.857  0.5556  0.3020  1.4032
11989TIP3    H257383   3.951   3.314  11.939 -0.0579 -0.2693  0.3582
11990TIP3   OH257384   2.711   6.317  12.466  0.0139 -0.4976 -0.4094
11990TIP3    H157385   2.802   6.342  12.451 -0.5426  1.1761 -1.3244
11990TIP3    H257386   2.708   6.289  12.557  1.4345 -0.5330 -0.3569
11991TIP3   OH257387   6.652   2.400   1.269  0.3410 -0.2136 -0.2340
11991TIP3    H157388   6.623   2.414   1.179  0.3231 -0.1087 -0.2111
11991TIP3    H257389   6.733   2.450   1.276  0.9826 -1.1815 -0.5539
11992TIP3   OH257390   3.854   3.604  15.297  0.1851 -0.0412 -0.0073
11992TIP3    H157391   3.865   3.692  15.261 -2.8802 -0.8507 -3.6002
11992TIP3    H257392   3.772   3.607  15.345 -0.0270 -0.9401 -0.2927
11993TIP3   OH257393   1.426   2.895   3.270 -0.3896 -0.0569 -0.1037
11993TIP3    H157394   1.395   2.805   3.270 -0.9807  0.0442  3.2189
11993TIP3    H257395   1.522   2.888   3.269 -0.4334 -0.6749 -0.4703
11994TIP3   OH257396   5.018   0.083  15.729  0.2166  0.3737 -0.2681
11994TIP3    H157397   5.036   0.174  15.706 -0.5238  0.4891 -0.3925
11994TIP3    H257398   5.062   0.032  15.661  1.4099  0.5999  0.3066
11995TIP3   OH257399   5.943   1.667  12.777  0.4034  0.1161  0.0680
11995TIP3    H157400   5.981   1.648  12.691  0.4657 -0.0799  0.1392
11995TIP3    H257401   5.902   1.584  12.804 -0.0017  0.3006  0.0286
11996TIP3   OH257402   3.988   6.204  14.708  0.4099  0.1908 -0.0884
11996TIP3    H157403   4.053   6.136  14.692  0.0366 -0.3101  0.4800
11996TIP3    H257404   3.989   6.218  14.802 -1.0928 -0.6608  0.0970
11997TIP3   OH257405   3.489   2.855  15.667  0.2832  0.0036  0.7764
11997TIP3    H157406   3.540   2.883  15.742 -2.7000  1.1628  2.5219
11997TIP3    H257407   3.483   2.933  15.611  0.6661 -0.2417  0.3781
11998TIP3   OH257408   5.895   6.497   3.091 -0.0298 -0.7526  0.0271
11998TIP3    H157409   5.972   6.527   3.041  1.6218 -3.0680  1.0029
11998TIP3    H257410   5.887   6.561   3.162  1.4346 -0.7837  0.2646
11999TIP3   OH257411   3.619   2.780  15.912 -0.3267  0.0813 -0.4592
11999TIP3    H157412   3.634   2.727  15.990 -1.3301 -0.4477 -0.6130
11999TIP3    H257413   3.564   2.852  15.942 -2.0382 -0.9545 -0.9359
12000TIP3   OH257414   0.954   0.298  15.464  0.4702  0.0818 -0.0461
12000TIP3    H157415   0.904   0.354  15.405  1.0395  0.4112 -0.2261
12000TIP3    H257416   0.914   0.211  15.455  0.0829  0.2906 -0.3534
12001TIP3   OH257417   0.176   0.147   2.647 -0.1853  0.3813 -0.5631
12001TIP3    H157418   0.214   0.082   2.588 -0.8982 -1.3058  0.7365
12001TIP3    H257419   0.225   0.137   2.728  0.2101  2.0494 -0.5742
12002TIP3   OH257420   4.616   3.498   0.657  0.4066  0.0277 -0.3977
12002TIP3    H157421   4.704   3.501   0.695 -0.1211 -0.0514  0.8985
12002TIP3    H257422   4.619   3.426   0.595  1.4102  0.3838 -0.7796
12003TIP3   OH257423   0.356   4.294   6.208  0.5098 -0.4394 -0.3431
12003TIP3    H157424   0.265   4.316   6.193  1.2834  2.2776 -1.7290
12003TIP3    H257425   0.356   4.247   6.291 -1.9060  2.0031  1.2198
12004TIP3   OH257426   4.369   4.995   5.565  0.7507  0.6752 -0.2287
12004TIP3    H157427   4.302   5.032   5.508  0.2104 -0.6818 -0.5207
12004TIP3    H257428   4.323   4.977   5.647  0.7059 -0.3583 -0.4638
12005TIP3   OH257429   1.086   1.709  14.475  0.4565  0.0026 -0.2610
12005TIP3    H157430   1.027   1.732  14.546  0.1241  0.0558 -0.5506
12005TIP3    H257431   1.125   1.626  14.501  0.0310 -0.1790 -0.2034
12006TIP3   OH257432   3.718   0.822   1.735 -0.4559  0.4860 -0.8118
12006TIP3    H157433   3.737   0.837   1.642  0.0657  1.3406 -0.5773
12006TIP3    H257434   3.629   0.789   1.736 -0.2617 -0.1084 -1.6631
12007TIP3   OH257435   6.439   1.372   1.856  0.1378 -0.2956 -0.2068
12007TIP3    H157436   6.422   1.304   1.790 -1.5054  0.3349 -0.4695
12007TIP3    H257437   6.401   1.452   1.819 -0.5686  0.1385  1.3828
12008TIP3   OH257438   2.616   3.665   5.344 -0.2212  0.1435  0.1359
12008TIP3    H157439   2.535   3.696   5.303 -0.4029 -0.1237  0.2898
12008TIP3    H257440   2.602   3.676   5.438 -0.3189 -0.4690  0.1967
12009TIP3   OH257441   0.829   1.808  14.737  0.0718 -0.3557  0.0541
12009TIP3    H157442   0.739   1.809  14.704  0.1356 -0.4886 -0.1296
12009TIP3    H257443   0.864   1.894  14.716  0.0645 -0.3884 -0.0939
12010TIP3   OH257444   4.796   4.227   1.986 -0.4043  0.1197 -0.2504
12010TIP3    H157445   4.797   4.182   1.901  0.9985  1.6704 -1.1052
12010TIP3    H257446   4.714   4.277   1.985 -0.0094  0.7901 -1.0960
12011TIP3   OH257447   0.337   1.841  15.277 -0.3337  0.6125 -0.0207
12011TIP3    H157448   0.310   1.863  15.188  2.0340  0.6609 -0.7823
12011TIP3    H257449   0.428   1.813  15.268  0.0576  0.9197  2.4298
12012TIP3   OH257450   6.320   1.407   4.123 -0.0368  0.7965 -0.1150
12012TIP3    H157451   6.343   1.334   4.065  1.2166  1.2219 -0.1785
12012TIP3    H257452   6.364   1.386   4.205 -1.5766  0.3417  0.6215
12013TIP3   OH257453   6.780   5.376  13.147  0.2336  0.1734 -0.7195
12013TIP3    H157454   6.756   5.426  13.226 -1.5819 -2.0227  0.2386
12013TIP3    H257455   6.743   5.428  13.075  1.6613  2.0680 -0.1705
12014TIP3   OH257456   1.575   6.646   3.435  0.2655 -0.4210 -0.0213
12014TIP3    H157457   1.590   6.624   3.343 -1.0159  1.0403 -0.6337
12014TIP3    H257458   1.659   6.631   3.478  1.2325  0.0197 -1.6770
12015TIP3   OH257459   1.236   1.453  13.455 -0.4411 -0.1000 -0.0277
12015TIP3    H157460   1.263   1.515  13.523  0.9187 -1.4255  0.7122
12015TIP3    H257461   1.317   1.431  13.409 -0.6456 -2.1768  0.4849
12016TIP3   OH257462   5.964   1.966   1.016 -0.3310  0.2648 -0.1835
12016TIP3    H157463   5.869   1.978   1.021 -0.8285 -0.9925 -3.7385
12016TIP3    H257464   5.975   1.874   0.994  1.6964  0.5097 -0.3364
12017TIP3   OH257465   0.285   4.667  16.045 -0.2250  0.1565  0.0597
12017TIP3    H157466   0.379   4.677  16.033 -0.4446  2.4814 -0.1714
12017TIP3    H257467   0.250   4.655  15.956 -0.0137 -3.3431  0.2860
12018TIP3   OH257468   3.965   0.434  12.676  0.2112 -0.0559  0.1935
12018TIP3    H157469   4.035   0.484  12.635  0.7011 -0.6169  0.3353
12018TIP3    H257470   3.910   0.405  12.603  0.7595 -0.5661 -0.0301
12019TIP3   OH257471   0.555   3.837   3.830 -0.5501  0.1515 -0.5177
12019TIP3    H157472   0.625   3.900   3.846 -0.6810  0.2295 -0.2448
12019TIP3    H257473   0.572   3.804   3.742 -0.8726  1.0661 -0.9288
12020TIP3   OH257474   3.858   4.141   4.440 -0.1017 -0.2349  0.0355
12020TIP3    H157475   3.806   4.087   4.499  0.2233 -0.7582 -0.1505
12020TIP3    H257476   3.903   4.203   4.497 -1.5964  0.8175  0.1282
12021TIP3   OH257477   1.341   3.489   3.086  0.6734  0.5920  0.2412
12021TIP3    H157478   1.353   3.558   3.022 -0.7117  0.5235 -0.1199
12021TIP3    H257479   1.263   3.442   3.057  1.5693 -1.1523  0.4586
12022TIP3   OH257480   2.710   6.436   4.476  0.8209  0.0955  0.3000
12022TIP3    H157481   2.805   6.442   4.463  0.7056  1.1935 -0.1676
12022TIP3    H257482   2.687   6.519   4.519  0.2163 -0.6177  1.4013
12023TIP3   OH257483   2.153   5.515   5.455 -0.1370  0.4062  0.1608
12023TIP3    H157484   2.156   5.522   5.359 -1.1991 -1.2521 -0.0435
12023TIP3    H257485   2.061   5.525   5.477  0.0425  0.3503  0.9702
12024TIP3   OH257486   1.899   4.282   2.381 -0.3706  0.2095 -0.4196
12024TIP3    H157487   1.982   4.260   2.423 -0.2064  1.9401  0.2837
12024TIP3    H257488   1.839   4.212   2.407  0.0845  0.5043  1.6355
12025TIP3   OH257489   3.886   4.722   4.520 -0.7732 -0.3372  0.1244
12025TIP3    H157490   3.896   4.647   4.462  0.4362 -0.6274  0.6628
12025TIP3    H257491   3.842   4.788   4.467  2.0726  0.1633 -1.8689
12026TIP3   OH257492   0.361   6.217   1.989 -0.8382  0.0282  0.5823
12026TIP3    H157493   0.274   6.217   1.948 -1.3584  0.4794  1.6462
12026TIP3    H257494   0.404   6.295   1.954 -0.9129 -0.1115  0.1684
12027TIP3   OH257495   0.578   5.613  13.746 -0.0554  0.4976 -0.7468
12027TIP3    H157496   0.531   5.671  13.806 -0.9472 -2.0411  1.1646
12027TIP3    H257497   0.515   5.595  13.676 -0.6311  0.0189 -0.1180
12028TIP3   OH257498   2.783   3.408  13.739  0.2442 -0.1345  0.0380
12028TIP3    H157499   2.849   3.477  13.730 -1.6603  1.5207 -2.8098
12028TIP3    H257500   2.720   3.445  13.801  0.3612 -0.3236  0.2710
12029TIP3   OH257501   6.273   0.683   5.113  0.0373  0.1226 -0.2937
12029TIP3    H157502   6.352   0.736   5.114  0.6938 -0.7659  2.0275
12029TIP3    H257503   6.304   0.593   5.105 -0.9135 -0.1104 -1.7479
12030TIP3   OH257504   0.346   3.654  15.234 -0.2270  0.2153 -0.0021
12030TIP3    H157505   0.434   3.636  15.266 -1.1067 -4.7967  0.4096
12030TIP3    H257506   0.303   3.699  15.307  1.0369 -0.5358  1.2529
12031TIP3   OH257507   2.614   0.219  16.113 -0.2598  0.0318 -0.2246
12031TIP3    H157508   2.669   0.295  16.128  0.9228 -0.8079 -0.1344
12031TIP3    H257509   2.549   0.248  16.050 -0.2637  1.3018  0.3451
12032TIP3   OH257510   3.890   5.156   0.692 -0.4810  0.5487  0.3968
12032TIP3    H157511   3.950   5.173   0.764  0.0297 -1.7199  0.5773
12032TIP3    H257512   3.825   5.226   0.697  0.1902  1.0779  2.3366
12033TIP3   OH257513   5.357   4.395   0.216 -0.1238 -0.4545  0.7030
12033TIP3    H157514   5.424   4.453   0.251 -0.7823 -0.7513  2.5800
12033TIP3    H257515   5.394   4.307   0.226  0.3207 -0.4774 -0.8798
12034TIP3   OH257516   5.643   1.202   4.812 -0.0030 -0.3161 -0.3138
12034TIP3    H157517   5.671   1.179   4.724  2.3739 -1.6725  0.6995
12034TIP3    H257518   5.692   1.282   4.833  0.2264 -0.5669  0.1208
12035TIP3   OH257519   3.674   6.370  16.482 -0.2119  0.4811  0.2686
12035TIP3    H157520   3.765   6.398  16.474  0.2386 -0.8307  0.5154
12035TIP3    H257521   3.624   6.433  16.429  0.9261  0.7593 -0.4987
12036TIP3   OH257522   1.287   6.050  10.709 -0.6501 -0.1822 -0.1406
12036TIP3    H157523   1.329   6.136  10.713  0.0646 -0.5997  2.7771
12036TIP3    H257524   1.195   6.070  10.688 -0.9070  1.4982  2.2511
12037TIP3   OH257525   4.353   3.266   5.694  0.0272  0.0466 -0.0487
12037TIP3    H157526   4.289   3.276   5.764  0.1809 -1.8393  0.4193
12037TIP3    H257527   4.325   3.329   5.627  0.3518  2.4796  1.9594
12038TIP3   OH257528   2.558   3.770  11.942  0.6744  0.1321 -0.1765
12038TIP3    H157529   2.525   3.698  11.996  0.6302  1.5675  1.7841
12038TIP3    H257530   2.648   3.782  11.970  0.4096  1.4170  0.1602
12039TIP3   OH257531   5.932   4.857   1.396  0.6246  0.1831  0.1812
12039TIP3    H157532   5.934   4.946   1.429 -0.3790 -0.9441  3.7654
12039TIP3    H257533   6.024   4.836   1.377  1.5155  0.8252  3.1411
12040TIP3   OH257534   4.129   1.518  12.572  0.1916 -0.7558 -0.0909
12040TIP3    H157535   4.093   1.561  12.650 -0.5509  0.0436 -0.8618
12040TIP3    H257536   4.078   1.553  12.499 -0.4837 -2.9916 -0.7694
12041TIP3   OH257537   2.468   2.341  16.452  0.2753 -1.0267 -0.3605
12041TIP3    H157538   2.395   2.372  16.506  1.6044 -0.3417  1.1212
12041TIP3    H257539   2.446   2.368  16.363 -0.8197  0.0066  0.2006
12042TIP3   OH257540   1.865   1.046   2.925 -0.5058 -0.2840  0.3904
12042TIP3    H157541   1.910   1.131   2.922 -1.3924  0.1914  0.2958
12042TIP3    H257542   1.853   1.028   3.018 -0.3874 -0.2684  0.4087
12043TIP3   OH257543   4.777   2.133  14.119  0.3516 -0.6391 -0.0448
12043TIP3    H157544   4.754   2.079  14.195 -1.4920 -1.4449 -1.1031
12043TIP3    H257545   4.856   2.092  14.084 -0.4218 -2.0696 -0.2023
12044TIP3   OH257546   4.277   1.426  15.113  0.3281  0.2570 -0.3251
12044TIP3    H157547   4.308   1.474  15.190 -0.4680  1.0849 -0.4979
12044TIP3    H257548   4.230   1.350  15.149  0.1946  0.4945  0.0028
12045TIP3   OH257549   3.366   3.910   4.846  0.1256  0.0131 -0.4579
12045TIP3    H157550   3.296   3.943   4.790 -0.2999 -1.0824 -0.5870
12045TIP3    H257551   3.368   3.971   4.920 -1.8456 -0.6484  0.1955
12046TIP3   OH257552   6.223   2.494  14.980 -0.0387 -0.3283  0.3015
12046TIP3    H157553   6.132   2.464  14.972 -1.1662  2.4808  1.2361
12046TIP3    H257554   6.256   2.450  15.058 -1.5045  0.5278  1.4601
12047TIP3   OH257555   0.150   2.772  14.489 -0.2169  0.2333 -0.1559
12047TIP3    H157556   0.081   2.705  14.488 -1.2197  1.2399 -0.7083
12047TIP3    H257557   0.190   2.763  14.576  1.0236 -2.3901 -0.9110
12048TIP3   OH257558   1.765   5.223   4.918  0.0770 -0.2273 -0.0319
12048TIP3    H157559   1.670   5.214   4.921 -0.0484  1.0968  0.7424
12048TIP3    H257560   1.791   5.181   4.836 -1.5461  2.4051 -2.0137
12049TIP3   OH257561   4.305   3.275   9.799  0.4091 -0.3508 -0.2033
12049TIP3    H157562   4.216   3.242   9.815  0.7136 -1.3937 -0.5909
12049TIP3    H257563   4.336   3.303   9.885  0.9742 -3.2370  0.6633
12050TIP3   OH257564   5.665   1.036  15.749 -0.0597  0.4172  0.1332
12050TIP3    H157565   5.702   0.959  15.705  1.7056  1.5459 -0.4865
12050TIP3    H257566   5.587   1.004  15.793 -1.0375 -1.1126 -2.5290
12051TIP3   OH257567   4.775   1.688   1.990  0.5328  0.0465  0.9680
12051TIP3    H157568   4.800   1.603   1.954  2.6297 -0.4275  3.3280
12051TIP3    H257569   4.701   1.670   2.047  0.0946  0.0671  0.4177
12052TIP3   OH257570   4.773   3.168  12.911  0.3948  0.0327 -0.5517
12052TIP3    H157571   4.705   3.104  12.933 -0.4820  0.4810 -1.8771
12052TIP3    H257572   4.838   3.158  12.981 -0.4267 -1.2712  0.0677
12053TIP3   OH257573   4.181   6.469  16.133 -0.0685  0.0617  0.0458
12053TIP3    H157574   4.228   6.496  16.212 -1.8704 -0.0352  1.2314
12053TIP3    H257575   4.089   6.470  16.160 -0.7411  0.0900 -2.0972
12054TIP3   OH257576   0.258   4.431  13.484 -0.4578  0.1332 -0.0078
12054TIP3    H157577   0.188   4.493  13.463 -0.6893  0.0686  0.5683
12054TIP3    H257578   0.260   4.428  13.579  2.0309  2.0773  0.1066
12055TIP3   OH257579   0.471   0.416  14.503  0.3978  0.3565  0.2409
12055TIP3    H157580   0.460   0.321  14.500 -1.4902  0.3061  3.8634
12055TIP3    H257581   0.388   0.451  14.473  0.0780  0.7308  1.4909
12056TIP3   OH257582   6.195   5.069   0.506  0.4940 -0.3978 -0.1276
12056TIP3    H157583   6.161   5.151   0.469 -2.1025 -0.6258  1.4751
12056TIP3    H257584   6.289   5.072   0.489  0.5748  3.0957  0.2084
12057TIP3   OH257585   2.209   2.712   5.932  0.4926 -0.2921 -0.1791
12057TIP3    H157586   2.282   2.693   5.991  1.3697  0.7915 -0.8707
12057TIP3    H257587   2.148   2.639   5.945  0.8893 -0.3428  1.6726
12058TIP3   OH257588   2.078   2.955   4.147  0.6945  0.0728  0.4537
12058TIP3    H157589   1.983   2.945   4.144  0.6556  0.6763 -0.5251
12058TIP3    H257590   2.101   2.999   4.065  1.7151  0.8297  1.1168
12059TIP3   OH257591   6.724   1.890  17.047  0.0816 -0.6623 -0.4419
12059TIP3    H157592   6.818   1.904  17.032  0.0379 -1.3133 -1.4297
12059TIP3    H257593   6.684   1.901  16.961 -0.9351  0.8665  0.1972
12060TIP3   OH257594   4.663   0.429   4.512 -0.0876  0.5944 -0.1575
12060TIP3    H157595   4.716   0.350   4.524 -0.0243  0.3946 -1.5519
12060TIP3    H257596   4.682   0.457   4.422 -1.5490  1.1234 -0.3287
12061TIP3   OH257597   5.320   2.417  15.753 -0.1015  0.8337  0.2187
12061TIP3    H157598   5.396   2.373  15.715 -0.8801  0.9269 -1.5702
12061TIP3    H257599   5.351   2.504  15.776  0.2535  1.0346 -0.9446
12062TIP3   OH257600   3.715   0.272  15.304  0.1671 -0.1975 -0.1991
12062TIP3    H157601   3.738   0.285  15.212  0.6358 -0.0492 -0.0642
12062TIP3    H257602   3.631   0.316  15.314  1.3203  2.1286  0.0454
12063TIP3   OH257603   0.965   4.566  15.001  0.2100 -0.4272 -0.4276
12063TIP3    H157604   1.030   4.514  15.049 -0.8613  0.0724  1.6962
12063TIP3    H257605   0.914   4.609  15.069 -1.6729  0.0563 -2.0488
12064TIP3   OH257606   1.172   4.260  10.826  0.4107  0.4318  0.1741
12064TIP3    H157607   1.115   4.324  10.783 -0.3661 -0.2292  0.1924
12064TIP3    H257608   1.114   4.215  10.888  0.7825 -0.7209 -0.2988
12065TIP3   OH257609   2.028   6.072   2.881  0.5559  0.2364 -0.2763
12065TIP3    H157610   1.949   6.118   2.851  1.2441  0.8960 -1.1318
12065TIP3    H257611   2.069   6.041   2.800  2.4520  2.0101 -0.0749
12066TIP3   OH257612   6.130   0.967   0.078 -0.0420 -0.3723  0.3473
12066TIP3    H157613   6.069   0.958   0.004 -0.6048 -0.0415  0.7546
12066TIP3    H257614   6.146   1.061   0.084  1.4751 -0.5510 -0.4998
12067TIP3   OH257615   1.839   2.965  16.984  0.1148 -0.3335 -0.2548
12067TIP3    H157616   1.801   2.923  17.061  0.4293 -0.8905 -0.3904
12067TIP3    H257617   1.772   3.024  16.952 -1.0874 -2.0671 -1.1162
12068TIP3   OH257618   1.200   2.360  14.090  0.0505 -0.1144 -0.1136
12068TIP3    H157619   1.188   2.288  14.029  0.5101 -1.2774  1.1280
12068TIP3    H257620   1.113   2.402  14.095  0.2958  0.8287 -2.4852
12069TIP3   OH257621   4.436   3.172   2.084  0.1627 -0.2814 -0.4459
12069TIP3    H157622   4.465   3.261   2.061  0.0516  0.2017  1.1876
12069TIP3    H257623   4.517   3.126   2.105 -0.0020  0.5684  2.4124
12070TIP3   OH257624   2.751   4.637   2.951  0.1232  0.0888 -0.5090
12070TIP3    H157625   2.801   4.693   2.892  0.8963 -1.0555 -0.9661
12070TIP3    H257626   2.806   4.629   3.029  1.7597 -2.8799 -1.8148
12071TIP3   OH257627   2.088   4.433  12.392 -0.0375  0.1942 -0.1101
12071TIP3    H157628   2.085   4.512  12.339 -1.0304 -1.3672 -2.6067
12071TIP3    H257629   2.003   4.430  12.437 -0.9114 -0.4607 -1.7228
12072TIP3   OH257630   1.742   0.842   1.733  0.5307  0.0354  0.4527
12072TIP3    H157631   1.704   0.790   1.803  0.4210  2.4306  2.3010
12072TIP3    H257632   1.761   0.927   1.774  1.3893  1.2124 -2.1801
12073TIP3   OH257633   3.900   4.498  13.399  0.4862  0.0281  0.5476
12073TIP3    H157634   3.821   4.545  13.427  0.3725 -0.7581  1.6117
12073TIP3    H257635   3.892   4.494  13.304 -2.4365 -2.7307  0.7131
12074TIP3   OH257636   6.282   1.826   5.086 -0.4739  0.0626  0.2386
12074TIP3    H157637   6.345   1.771   5.132  0.1066  1.7385  1.5764
12074TIP3    H257638   6.216   1.847   5.151 -1.0318  0.3993 -0.4229
12075TIP3   OH257639   3.616   5.648  15.223 -0.0719 -0.5813 -0.1730
12075TIP3    H157640   3.637   5.591  15.149  1.4930 -0.0111 -0.1907
12075TIP3    H257641   3.665   5.612  15.297 -0.1829 -0.0859  0.1497
12076TIP3   OH257642   1.807   2.883   4.189 -0.0591 -0.4199  0.0559
12076TIP3    H157643   1.767   2.844   4.267  0.4309  1.4921  1.3548
12076TIP3    H257644   1.781   2.826   4.117 -1.1745 -1.8397  1.5066
12077TIP3   OH257645   0.394   4.933   4.041 -0.1599 -0.2114 -0.3602
12077TIP3    H157646   0.486   4.908   4.046 -0.3251 -0.7800 -0.0675
12077TIP3    H257647   0.348   4.850   4.027 -0.6946 -0.0267  0.2801
12078TIP3   OH257648   0.442   0.307   1.199  0.1043  0.2524 -0.5719
12078TIP3    H157649   0.455   0.399   1.217  1.8850  0.0890 -0.8361
12078TIP3    H257650   0.348   0.293   1.208 -0.1959  2.0928 -0.5988
12079TIP3   OH257651   0.997   3.101   2.436  0.0856  0.1527  0.1182
12079TIP3    H157652   0.946   3.104   2.356 -1.5939  1.8508  1.1492
12079TIP3    H257653   0.989   3.011   2.467  0.4136 -0.4137 -1.3596
12080TIP3   OH257654   5.672   3.543  14.274 -0.1090  0.5258 -0.1132
12080TIP3    H157655   5.683   3.459  14.229 -2.0921  0.2929 -0.2643
12080TIP3    H257656   5.584   3.538  14.313  0.2983  1.9730  1.0972
12081TIP3   OH257657   3.093   2.241   4.846  0.1359  0.6844 -0.3331
12081TIP3    H157658   3.012   2.284   4.873  0.7904  1.1207  1.0287
12081TIP3    H257659   3.064   2.163   4.799 -1.0643  1.6021 -1.1922
12082TIP3   OH257660   2.577   5.518   1.325 -0.0370 -0.2656 -0.5108
12082TIP3    H157661   2.570   5.599   1.376 -2.0074  0.0390 -1.1714
12082TIP3    H257662   2.569   5.448   1.390  0.6060  0.0705 -0.0584
12083TIP3   OH257663   5.482   3.237  12.934  0.1884 -0.0740 -0.3193
12083TIP3    H157664   5.504   3.258  12.843 -0.5868 -0.9159 -0.7171
12083TIP3    H257665   5.398   3.279  12.950  0.7678  0.8797  0.3346
12084TIP3   OH257666   5.503   5.509   1.947 -0.2962 -0.2737  0.2196
12084TIP3    H157667   5.414   5.506   1.913  0.4080 -0.4328 -1.7538
12084TIP3    H257668   5.556   5.540   1.873  1.4205 -1.1758  1.0112
12085TIP3   OH257669   4.828   3.838  15.367 -0.7765 -0.2629 -0.9106
12085TIP3    H157670   4.835   3.922  15.321 -2.2533 -0.8783 -2.3738
12085TIP3    H257671   4.778   3.857  15.446  1.7827  0.8141  0.5944
12086TIP3   OH257672   1.428   0.598   4.546 -0.2757  0.9415  0.2409
12086TIP3    H157673   1.442   0.690   4.521  1.0019  0.8039  0.3488
12086TIP3    H257674   1.434   0.599   4.642  1.0138  0.5851  0.1852
12087TIP3   OH257675   3.886   6.351  14.930  0.1060 -0.2617 -0.0895
12087TIP3    H157676   3.819   6.403  14.886 -0.4644 -0.5105  0.4676
12087TIP3    H257677   3.854   6.261  14.927  0.3704 -0.3723  0.2442
12088TIP3   OH257678   5.905   4.168   3.429 -0.1746  0.0092  0.6675
12088TIP3    H157679   5.823   4.204   3.397  1.3468  2.7439 -0.5200
12088TIP3    H257680   5.929   4.101   3.365 -0.1864  1.1055 -0.5192
12089TIP3   OH257681   1.789   4.614  11.931 -0.0140  0.4469 -0.3184
12089TIP3    H157682   1.840   4.538  11.903 -1.4281 -0.4623 -0.5102
12089TIP3    H257683   1.849   4.688  11.921  0.8582 -0.4062 -1.7677
12090TIP3   OH257684   6.767   4.224   1.424  0.0634  0.1444  0.1728
12090TIP3    H157685   6.789   4.168   1.350  2.7830  1.6548 -0.2962
12090TIP3    H257686   6.766   4.166   1.500  0.0969 -0.9567 -0.6591
12091TIP3   OH257687   5.849   4.845   1.134  0.0997 -0.2160  0.0894
12091TIP3    H157688   5.837   4.932   1.096 -0.9054 -0.5494 -0.3651
12091TIP3    H257689   5.863   4.862   1.228 -0.3046  0.4209  0.0387
12092TIP3   OH257690   3.681   5.978  14.012  0.1612 -0.0094  0.2110
12092TIP3    H157691   3.701   5.891  14.045  1.3930 -0.1154 -0.7582
12092TIP3    H257692   3.761   6.006  13.967 -0.9446  0.7396 -1.3647
12093TIP3   OH257693   4.332   6.430   4.255 -0.2305 -0.0103  0.3846
12093TIP3    H157694   4.324   6.514   4.300 -2.1813  1.6146 -2.6707
12093TIP3    H257695   4.247   6.388   4.267  0.3775 -1.1145  0.9891
12094TIP3   OH257696   4.995   0.265   3.783 -0.1844  0.6519 -0.4480
12094TIP3    H157697   4.999   0.292   3.691 -0.2520  0.9590 -0.3601
12094TIP3    H257698   4.903   0.271   3.806 -0.1504  0.6945 -0.3225
12095TIP3   OH257699   1.908   4.598  13.472 -0.6486 -0.5286 -0.2538
12095TIP3    H157700   1.972   4.666  13.492  0.3191 -1.8490  1.4796
12095TIP3    H257701   1.846   4.601  13.545  0.3124 -2.4734  0.7135
12096TIP3   OH257702   1.035   6.327   1.487  0.0644 -0.5249 -0.3818
12096TIP3    H157703   1.086   6.263   1.438  0.9648 -0.1105  0.0012
12096TIP3    H257704   1.036   6.406   1.432 -0.2714 -0.5506 -0.4280
12097TIP3   OH257705   2.421   6.136  11.723 -0.1759 -0.2059 -0.2120
12097TIP3    H157706   2.415   6.074  11.796 -0.5519  0.5951  0.4504
12097TIP3    H257707   2.434   6.081  11.646 -1.3232 -1.1718  0.2490
12098TIP3   OH257708   4.625   4.686  10.835 -0.3301  0.0449  0.3892
12098TIP3    H157709   4.682   4.758  10.807 -1.2668  0.4808 -0.4758
12098TIP3    H257710   4.676   4.607  10.818  0.1451  0.4389 -0.0592
12099TIP3   OH257711   3.241   1.143  16.911  0.0808  0.1631 -0.1590
12099TIP3    H157712   3.286   1.071  16.955  1.0879  0.9007  0.0473
12099TIP3    H257713   3.158   1.105  16.881  1.5766 -1.7631 -2.1910
12100TIP3   OH257714   6.585   6.390   0.951 -0.6395 -0.1988 -0.0666
12100TIP3    H157715   6.645   6.392   1.025 -2.1933 -1.2397  1.2644
12100TIP3    H257716   6.598   6.303   0.912 -0.5086 -0.0068 -0.4628
12101TIP3   OH257717   2.977   3.809   0.480  0.3380 -0.1110  0.2266
12101TIP3    H157718   3.051   3.869   0.490  0.1432 -0.0572  1.4256
12101TIP3    H257719   2.902   3.859   0.514 -0.2318 -0.2258 -0.8132
12102TIP3   OH257720   2.514   5.034  12.587  0.4583  0.0201 -0.3908
12102TIP3    H157721   2.569   5.111  12.581 -0.8428  1.0423  0.2719
12102TIP3    H257722   2.547   4.975  12.520  1.1429  1.3735 -1.2733
12103TIP3   OH257723   4.987   0.553  11.610 -0.0193  0.7011  0.6058
12103TIP3    H157724   4.960   0.550  11.702  0.9498 -0.3442  0.8749
12103TIP3    H257725   5.083   0.550  11.613  0.0295 -2.5681 -0.4957
12104TIP3   OH257726   5.848   4.229  11.024  0.2415 -0.3987  0.1046
12104TIP3    H157727   5.774   4.206  10.967  0.3442  1.1558 -0.6940
12104TIP3    H257728   5.925   4.221  10.968  0.4825 -0.0926  0.3883
12105TIP3   OH257729   2.228   5.764  11.410  0.3070 -0.4561  0.4360
12105TIP3    H157730   2.293   5.697  11.431 -0.0260 -1.0059 -0.2406
12105TIP3    H257731   2.192   5.789  11.495  1.7875  0.2765  0.8761
12106TIP3   OH257732   2.539   1.175   4.772  0.2418 -0.0903 -0.1261
12106TIP3    H157733   2.597   1.145   4.843 -0.3204 -3.8651 -1.0454
12106TIP3    H257734   2.453   1.183   4.813  0.3288 -0.1254  0.0651
12107TIP3   OH257735   1.337   6.557   0.533 -0.1661 -0.1326 -0.0551
12107TIP3    H157736   1.350   6.497   0.459 -0.0593 -1.2497  0.8316
12107TIP3    H257737   1.291   6.632   0.496  0.0516 -0.5844 -1.2841
12108TIP3   OH257738   4.729   3.546  15.021 -0.7552 -0.6054  0.0080
12108TIP3    H157739   4.766   3.560  15.108 -0.0028 -1.6950 -0.1180
12108TIP3    H257740   4.692   3.458  15.023  3.2994 -2.6869 -1.9964
12109TIP3   OH257741   0.709   2.611  14.186  0.4749  0.1530  0.3170
12109TIP3    H157742   0.655   2.688  14.169  1.4196  0.4494 -1.7066
12109TIP3    H257743   0.654   2.554  14.239 -0.9565  1.4208  0.2548
12110TIP3   OH257744   4.358   3.552  14.758 -0.5568  0.1976 -0.3925
12110TIP3    H157745   4.450   3.560  14.785 -0.8105  1.2833  0.2131
12110TIP3    H257746   4.352   3.602  14.677 -0.7378  0.6099 -0.1249
12111TIP3   OH257747   5.735   2.381  13.054  0.2480  0.1842  0.2290
12111TIP3    H157748   5.684   2.402  12.976  0.4221 -1.2644 -0.3042
12111TIP3    H257749   5.768   2.292  13.039 -0.8952 -0.7385  2.5399
12112TIP3   OH257750   4.559   2.361   0.834 -0.7066 -0.1470  0.5432
12112TIP3    H157751   4.649   2.349   0.804 -1.1740  0.7303 -1.3321
12112TIP3    H257752   4.508   2.295   0.787 -1.0722 -0.7064  1.6666
12113TIP3   OH257753   5.766   3.954  11.090  0.0351  0.3417  0.3275
12113TIP3    H157754   5.772   3.997  11.175  0.2724  1.6698 -0.3327
12113TIP3    H257755   5.712   4.013  11.037  0.2135 -0.2704 -0.5619
12114TIP3   OH257756   0.810   1.707   4.065 -0.5584 -0.2683 -0.7165
12114TIP3    H157757   0.780   1.689   3.976  0.4912 -0.1584 -1.0968
12114TIP3    H257758   0.764   1.787   4.090 -1.2795 -0.6007 -0.9409
12115TIP3   OH257759   5.961   4.070  16.802 -0.2901 -0.6472 -0.1024
12115TIP3    H157760   6.040   4.060  16.856  0.9335 -1.3050 -1.9025
12115TIP3    H257761   5.900   4.005  16.835  0.2385 -0.6967  0.7992
12116TIP3   OH257762   1.548   3.293   3.630 -0.1036  0.6496  0.4225
12116TIP3    H157763   1.494   3.218   3.654 -1.1749  0.6717 -1.6799
12116TIP3    H257764   1.491   3.348   3.577  2.4891 -0.5154 -4.0699
12117TIP3   OH257765   4.494   1.619   3.009  0.0521  1.0700 -0.8258
12117TIP3    H157766   4.511   1.589   2.920 -0.5061  0.7391 -0.8279
12117TIP3    H257767   4.399   1.614   3.018  0.0491  1.7159 -0.4228
12118TIP3   OH257768   5.142   1.762  13.059  0.0194 -0.4826  0.0661
12118TIP3    H157769   5.227   1.804  13.047 -0.2688 -0.1728 -1.1245
12118TIP3    H257770   5.089   1.828  13.104  0.0592 -0.1875 -0.3097
12119TIP3   OH257771   0.727   1.807  17.046  0.3216 -0.3934  0.1414
12119TIP3    H157772   0.785   1.731  17.046  0.2471 -0.4614  1.3345
12119TIP3    H257773   0.783   1.881  17.068  0.8248  0.2996 -2.9982
12120TIP3   OH257774   2.319   3.807  10.804  0.6956 -0.0746  0.4790
12120TIP3    H157775   2.359   3.869  10.743 -0.5042  1.6077  1.3148
12120TIP3    H257776   2.390   3.781  10.862  1.0484  1.1960  0.6388
12121TIP3   OH257777   6.539   2.646  15.308  0.5090  0.1586  0.6908
12121TIP3    H157778   6.592   2.722  15.331  1.8877 -0.9082  1.2099
12121TIP3    H257779   6.597   2.571  15.322 -0.3239 -0.9121 -1.2236
12122TIP3   OH257780   2.295   0.332   5.806  0.1625 -0.3737  0.0619
12122TIP3    H157781   2.364   0.392   5.836  0.7557 -0.2687 -1.4270
12122TIP3    H257782   2.215   0.383   5.810  0.6986  0.6175 -1.4208
12123TIP3   OH257783   4.762   2.666  12.877 -0.1894  0.2878  0.1654
12123TIP3    H157784   4.667   2.665  12.880 -0.2914  0.4438 -1.7002
12123TIP3    H257785   4.786   2.578  12.845  0.5107 -0.8352  3.3826
12124TIP3   OH257786   5.220   1.029   3.247  0.2177 -0.2305 -0.9560
12124TIP3    H157787   5.200   1.078   3.168 -0.3841  1.7201  0.3373
12124TIP3    H257788   5.153   1.056   3.310  1.0629 -1.2287  0.4291
12125TIP3   OH257789   3.849   0.266   0.898 -0.0087  0.7245  0.3698
12125TIP3    H157790   3.770   0.316   0.880  0.5211  0.7503 -2.2897
12125TIP3    H257791   3.817   0.182   0.930 -1.1292  0.8726 -0.2990
12126TIP3   OH257792   5.547   4.606   0.161  0.4605  0.3063 -0.5312
12126TIP3    H157793   5.495   4.651   0.094  0.1254  1.0193  0.1924
12126TIP3    H257794   5.636   4.640   0.149  0.7832 -0.9145 -1.7702
12127TIP3   OH257795   3.674   3.187  14.858  0.4564  0.1678  0.1163
12127TIP3    H157796   3.668   3.091  14.857 -1.1410  0.2308 -0.1104
12127TIP3    H257797   3.648   3.214  14.770  0.8093  0.8100  0.2025
12128TIP3   OH257798   6.072   3.909   5.792 -0.5637  0.3553 -0.2898
12128TIP3    H157799   5.984   3.912   5.756 -0.6766  0.1256 -0.0352
12128TIP3    H257800   6.081   3.991   5.841 -1.2283 -0.3435  1.0505
12129TIP3   OH257801   0.355   5.912   3.944  0.0901  0.4905  0.2794
12129TIP3    H157802   0.290   5.979   3.968 -0.3328  0.1863 -0.0075
12129TIP3    H257803   0.428   5.929   4.003 -0.6359  0.2178  1.2973
12130TIP3   OH257804   0.925   0.761  15.415  0.5181 -0.1939  0.1489
12130TIP3    H157805   0.967   0.840  15.382 -1.0944  0.0264 -1.5440
12130TIP3    H257806   0.872   0.791  15.489 -0.5560  0.4728 -0.8518
12131TIP3   OH257807   3.690   4.475  13.227  0.2553 -0.4254  0.7850
12131TIP3    H157808   3.608   4.438  13.195  0.4245 -1.0345  1.0368
12131TIP3    H257809   3.667   4.519  13.309  0.1774 -0.6072  0.8620
12132TIP3   OH257810   0.609   0.976  14.917 -0.0985  0.0191 -0.3380
12132TIP3    H157811   0.560   0.894  14.907 -0.0791 -0.1484  0.8859
12132TIP3    H257812   0.696   0.956  14.882 -0.4601 -0.0995 -1.2020
12133TIP3   OH257813   6.331   6.520  13.925  0.1880 -0.1986 -0.1983
12133TIP3    H157814   6.286   6.514  14.010 -0.9649 -0.7857 -0.8360
12133TIP3    H257815   6.270   6.565  13.868 -0.0391 -1.8844 -1.3585
12134TIP3   OH257816   5.417   0.665  16.906 -0.0320 -0.5901 -0.1578
12134TIP3    H157817   5.376   0.729  16.965  0.6106 -0.1409 -0.1929
12134TIP3    H257818   5.394   0.695  16.818  1.2590  0.2819 -0.2147
12135TIP3   OH257819   0.624   3.379   6.395  0.5287  0.2060 -0.1654
12135TIP3    H157820   0.618   3.291   6.430  0.6314 -0.0146 -0.6862
12135TIP3    H257821   0.717   3.390   6.374  0.3709  0.0821 -0.9735
12136TIP3   OH257822   5.964   5.015  12.381 -0.0073  0.1830  0.8173
12136TIP3    H157823   5.980   5.088  12.441 -1.9029  2.0970 -0.8595
12136TIP3    H257824   5.900   5.048  12.318  0.2140 -2.4401 -0.9762
12137TIP3   OH257825   5.121   6.709   5.060  0.0961  0.6411  0.3922
12137TIP3    H157826   5.096   6.708   4.967 -0.4625 -1.1903  0.5207
12137TIP3    H257827   5.062   6.772   5.100  0.5828  1.7253 -0.5334
12138TIP3   OH257828   5.718   2.952   4.278 -0.3946 -0.1970 -0.0874
12138TIP3    H157829   5.662   3.008   4.331  0.6650  1.7596 -0.9235
12138TIP3    H257830   5.721   2.995   4.192  0.4749 -1.5390 -0.7697
12139TIP3   OH257831   2.349   0.491   0.990  0.0186  0.0925 -0.4083
12139TIP3    H157832   2.320   0.399   0.997  2.8261 -0.8075  0.6791
12139TIP3    H257833   2.326   0.529   1.075  1.4336 -0.4903  0.2753
12140TIP3   OH257834   2.929   4.088  16.193 -0.0456  0.3192  0.1356
12140TIP3    H157835   2.976   4.034  16.256  2.0999 -0.3814 -1.9497
12140TIP3    H257836   2.969   4.175  16.201  0.0087  0.3086 -0.0079
12141TIP3   OH257837   0.259   5.043  12.322 -0.0171 -0.3187  0.3883
12141TIP3    H157838   0.251   5.052  12.417 -1.2486 -0.5587  0.3256
12141TIP3    H257839   0.353   5.037  12.306  0.2702  0.7303  1.4974
12142TIP3   OH257840   6.693   5.227   0.666 -0.2789 -0.3782  0.0930
12142TIP3    H157841   6.618   5.209   0.610 -0.1115 -0.9877  0.0528
12142TIP3    H257842   6.722   5.314   0.640 -0.8393 -0.2276 -0.0402
12143TIP3   OH257843   2.656   0.950   3.695 -0.3456 -0.1175  0.1490
12143TIP3    H157844   2.641   0.863   3.730  0.7321 -0.3360  0.0977
12143TIP3    H257845   2.650   1.008   3.770  1.0254 -0.4769  0.5491
12144TIP3   OH257846   3.807   6.173   1.662  0.6125 -0.6530 -0.0941
12144TIP3    H157847   3.804   6.217   1.747 -1.5249 -0.8328 -0.0253
12144TIP3    H257848   3.799   6.243   1.598 -1.8542 -0.7646 -0.0031
12145TIP3   OH257849   4.189   1.675   2.443 -0.1018 -0.1018 -0.0864
12145TIP3    H157850   4.262   1.726   2.478 -0.9439  1.2738 -0.2531
12145TIP3    H257851   4.202   1.677   2.348 -0.3670  0.1860 -0.1198
12146TIP3   OH257852   4.897   0.993   4.818  0.0295 -0.1536  0.3164
12146TIP3    H157853   4.896   1.036   4.733  1.8869 -1.2447 -0.3189
12146TIP3    H257854   4.980   0.945   4.820 -1.3791 -2.7578  1.4197
12147TIP3   OH257855   1.507   4.486  13.611 -0.1381 -0.1532 -0.2089
12147TIP3    H157856   1.471   4.485  13.700  0.8054  1.1133  0.2052
12147TIP3    H257857   1.430   4.478  13.555 -0.9060  0.6225  0.6939
12148TIP3   OH257858   3.145   5.018   3.892 -0.4020 -0.7675 -0.2926
12148TIP3    H157859   3.199   4.998   3.816 -1.1854 -1.3453 -0.7137
12148TIP3    H257860   3.141   5.113   3.896  0.2485 -0.7285 -0.5303
12149TIP3   OH257861   4.658   0.264  12.238  0.1871  0.4925  0.4370
12149TIP3    H157862   4.633   0.183  12.281  0.5230 -0.3731 -0.9505
12149TIP3    H257863   4.731   0.297  12.289  0.5250 -0.4693  0.5906
12150TIP3   OH257864   5.624   1.881  12.452 -0.1381 -0.0066  0.5172
12150TIP3    H157865   5.649   1.882  12.360  0.6672  1.0605  0.7329
12150TIP3    H257866   5.706   1.870  12.500 -0.3573  0.9479  1.1502
12151TIP3   OH257867   1.584   5.986  14.376 -0.1346  0.0932  0.1812
12151TIP3    H157868   1.608   5.896  14.356 -1.9424 -0.2378 -0.6821
12151TIP3    H257869   1.560   6.024  14.292  0.0824  1.2368  0.6113
12152TIP3   OH257870   5.723   0.598   4.722 -0.6237 -0.9697  0.4343
12152TIP3    H157871   5.693   0.677   4.677  2.6080  1.0997  1.6155
12152TIP3    H257872   5.677   0.599   4.806 -0.1717 -0.0064  0.6739
12153TIP3   OH257873   3.182   6.399  16.599  0.1093 -0.0603 -0.4711
12153TIP3    H157874   3.108   6.458  16.612 -1.6983 -1.9960 -1.2914
12153TIP3    H257875   3.142   6.316  16.572  2.2790 -2.5630  3.1981
12154TIP3   OH257876   2.021   1.990  16.202 -0.0372 -0.1826  0.2117
12154TIP3    H157877   2.095   1.961  16.257  1.0230 -0.5287 -1.3259
12154TIP3    H257878   1.968   2.043  16.261  1.0916 -0.4500  1.5535
12155TIP3   OH257879   2.256   5.931  15.376 -0.8541 -0.1566  0.0589
12155TIP3    H157880   2.204   5.969  15.447  0.4130  2.1328 -0.1251
12155TIP3    H257881   2.213   5.962  15.296 -1.3203 -1.3643 -0.1838
12156TIP3   OH257882   4.962   0.443  13.200 -0.0619 -0.3575 -0.1406
12156TIP3    H157883   4.887   0.419  13.144  0.5731 -0.8049 -0.8181
12156TIP3    H257884   5.036   0.398  13.161  0.6032  0.2172  0.4345
12157TIP3   OH257885   1.862   1.255  14.080  0.1375 -0.4366  0.5278
12157TIP3    H157886   1.879   1.172  14.036 -0.8424 -0.0279 -0.7184
12157TIP3    H257887   1.926   1.315  14.041  0.7277 -0.5594  1.2969
12158TIP3   OH257888   3.915   1.812   2.211 -0.0816 -0.3882  0.8118
12158TIP3    H157889   3.932   1.834   2.303 -0.0193 -0.0227  0.7131
12158TIP3    H257890   3.961   1.729   2.198  0.4193 -0.1361  0.9458
12159TIP3   OH257891   3.726   2.004  15.038 -0.4025  0.5181 -0.0605
12159TIP3    H157892   3.678   1.943  15.094 -0.0907  0.6993  0.4061
12159TIP3    H257893   3.800   2.033  15.091  0.2273  0.2506 -0.7727
12160TIP3   OH257894   5.006   2.047   2.090 -0.0174 -0.2277  0.7253
12160TIP3    H157895   4.988   1.974   2.031  1.9304 -1.9010  2.0565
12160TIP3    H257896   5.098   2.069   2.073  0.0031  0.5426  1.7496
12161TIP3   OH257897   2.987   6.429   2.271  0.6642 -0.0128  0.3946
12161TIP3    H157898   2.916   6.427   2.207  1.5220  2.9843 -0.8426
12161TIP3    H257899   2.943   6.422   2.356 -0.6767 -2.1024 -0.4045
12162TIP3   OH257900   3.756   0.359   2.185  0.4185  0.7090  0.0269
12162TIP3    H157901   3.753   0.264   2.194  1.1536  0.6284 -0.5136
12162TIP3    H257902   3.776   0.391   2.273  2.1084  0.2451 -0.1605
12163TIP3   OH257903   4.174   0.352   0.298 -0.5235 -0.5523 -0.0967
12163TIP3    H157904   4.112   0.326   0.367 -0.5469  0.0032  0.0969
12163TIP3    H257905   4.204   0.439   0.324  0.7564 -1.0220  0.1079
12164TIP3   OH257906   2.117   0.030  13.820 -0.0043  0.2205 -0.4738
12164TIP3    H157907   2.086   0.120  13.831 -1.2792 -0.2138 -0.2852
12164TIP3    H257908   2.068  -0.020  13.885 -0.2572 -0.7996 -1.4132
12165TIP3   OH257909   4.323   1.104   0.427  0.1665 -0.2061 -0.2005
12165TIP3    H157910   4.335   1.138   0.338 -2.0101  2.6121  0.4146
12165TIP3    H257911   4.287   1.016   0.415 -0.5687  0.3124 -2.1550
12166TIP3   OH257912   5.823   1.839  12.961  0.0666  0.0062  0.7620
12166TIP3    H157913   5.891   1.792  12.912 -1.0813  0.3511 -1.2640
12166TIP3    H257914   5.780   1.771  13.013 -0.2572 -0.8613 -0.5867
12167TIP3   OH257915   3.819   6.263  11.596  0.3822  0.0583  0.0003
12167TIP3    H157916   3.793   6.199  11.662 -1.8554 -0.9116 -1.6718
12167TIP3    H257917   3.806   6.348  11.638  3.1776 -0.4582  2.1786
12168TIP3   OH257918   2.911   2.586  13.432  0.5951  0.6508  0.5510
12168TIP3    H157919   2.988   2.605  13.485 -0.0709  1.3917  1.2745
12168TIP3    H257920   2.838   2.622  13.482 -0.0840  1.1267 -0.7344
12169TIP3   OH257921   1.443   2.043  16.574  0.2249  0.0654  0.5400
12169TIP3    H157922   1.455   2.006  16.487  1.2660  0.1102  0.6568
12169TIP3    H257923   1.367   2.100  16.565  0.8000  0.6886 -0.5373
12170TIP3   OH257924   6.560   2.595  16.949  0.0798 -0.2641  0.4335
12170TIP3    H157925   6.559   2.667  16.886 -2.0027 -1.5714 -1.2079
12170TIP3    H257926   6.645   2.600  16.991  0.5491  2.2561 -0.6352
12171TIP3   OH257927   1.693   2.548   0.423  0.7407 -0.1378  0.9059
12171TIP3    H157928   1.775   2.525   0.378  0.5901  0.6274  0.2103
12171TIP3    H257929   1.713   2.630   0.468  0.5148 -0.2401  1.1957
12172TIP3   OH257930   1.553   5.739  16.018  0.5313  0.5412  0.3044
12172TIP3    H157931   1.627   5.678  16.021 -0.4351 -0.6947 -0.4062
12172TIP3    H257932   1.554   5.781  16.104 -0.7447 -2.9180  2.2034
12173TIP3   OH257933   5.702   1.449  16.213  0.0321 -0.8523 -0.1692
12173TIP3    H157934   5.740   1.530  16.248  2.5699 -1.8839 -0.3811
12173TIP3    H257935   5.733   1.446  16.122  1.9191 -3.1597  0.4821
12174TIP3   OH257936   3.501   5.044  12.761  0.5084 -0.4246  0.5008
12174TIP3    H157937   3.583   5.014  12.799  0.2428 -0.5519  0.9795
12174TIP3    H257938   3.457   5.091  12.832  1.3729  2.0558 -0.4934
12175TIP3   OH257939   0.729   1.453  15.069  0.0279  0.2324  0.9214
12175TIP3    H157940   0.684   1.371  15.050 -0.3688  0.7830 -0.6483
12175TIP3    H257941   0.658   1.515  15.088 -0.0698  1.3158 -2.3755
12176TIP3   OH257942   2.338   2.103  15.645  0.6292  0.0838  0.1489
12176TIP3    H157943   2.245   2.103  15.664  0.3243  0.0546 -1.2384
12176TIP3    H257944   2.344   2.128  15.553  2.0697  1.3386  0.5429
12177TIP3   OH257945   1.596   4.401   1.664 -0.0835  0.3328 -0.6169
12177TIP3    H157946   1.659   4.429   1.598  1.7435  2.2444  1.8078
12177TIP3    H257947   1.545   4.479   1.684 -0.8310 -0.2957  0.0356
12178TIP3   OH257948   1.802   2.112   2.797  0.0754  0.3820  0.2610
12178TIP3    H157949   1.788   2.207   2.794 -1.9065  0.1153 -0.7004
12178TIP3    H257950   1.782   2.083   2.708  1.4665 -0.8575  0.3246
12179TIP3   OH257951   2.188   5.370  14.964  0.1475  0.6709  0.6953
12179TIP3    H157952   2.101   5.410  14.957 -0.1261  0.0128  0.1538
12179TIP3    H257953   2.175   5.280  14.934  1.1042  0.6886  0.1732
12180TIP3   OH257954   0.144   5.798   5.882  0.3723 -0.0373 -0.1540
12180TIP3    H157955   0.079   5.729   5.893 -0.6333  1.0036  0.7066
12180TIP3    H257956   0.220   5.768   5.932 -0.5064  0.0212  1.2835
12181TIP3   OH257957   1.155   1.169  14.152  0.1953 -0.2781 -0.1933
12181TIP3    H157958   1.215   1.222  14.099  0.8730  0.7017  1.5036
12181TIP3    H257959   1.068   1.199  14.125  0.5218  0.1118 -0.8516
12182TIP3   OH257960   6.541   3.574   4.299 -0.0433 -0.1823 -0.2045
12182TIP3    H157961   6.621   3.534   4.263  0.8785  2.3024 -1.1808
12182TIP3    H257962   6.570   3.617   4.379 -1.6128 -3.6520  2.4781
12183TIP3   OH257963   1.142   0.255   3.107 -0.3119  0.4444 -0.4522
12183TIP3    H157964   1.133   0.311   3.030  0.7217  0.8593 -0.2851
12183TIP3    H257965   1.160   0.168   3.071 -2.7224 -0.0258 -0.7382
12184TIP3   OH257966   3.900   0.633   2.157  0.2024 -0.6264 -0.0042
12184TIP3    H157967   3.875   0.549   2.194 -0.9024  0.1594  1.1329
12184TIP3    H257968   3.879   0.626   2.064 -0.8609 -1.2617  0.2652
12185TIP3   OH257969   5.766   4.440   1.717 -0.2700 -0.2170  0.3468
12185TIP3    H157970   5.825   4.393   1.775 -1.0882 -2.0958 -0.2664
12185TIP3    H257971   5.799   4.421   1.629 -1.5389 -1.0203  0.0144
12186TIP3   OH257972   3.704   1.512   1.746  0.1571  0.0917  0.3702
12186TIP3    H157973   3.748   1.504   1.831 -0.1111 -0.2831  0.4792
12186TIP3    H257974   3.774   1.502   1.682  0.5221  1.3875  0.5457
12187TIP3   OH257975   0.256   2.950  15.396  0.2002 -0.0138 -0.6486
12187TIP3    H157976   0.199   2.985  15.465  1.0869 -0.4655  0.3420
12187TIP3    H257977   0.218   2.984  15.315  0.9277  3.2469  0.2002
12188TIP3   OH257978   4.575   1.573  16.513  0.2794 -0.3032 -0.0757
12188TIP3    H157979   4.556   1.482  16.535  0.9338 -0.5560 -0.5135
12188TIP3    H257980   4.603   1.612  16.596 -0.2685 -0.4233  0.1682
12189TIP3   OH257981   4.129   3.016  11.913 -0.2299  0.0720  0.2273
12189TIP3    H157982   4.104   2.966  11.990  1.2797 -0.6537  0.2684
12189TIP3    H257983   4.076   3.095  11.917  0.0959  0.2185  2.2103
12190TIP3   OH257984   6.000   4.260  13.147  0.2137  0.3373 -0.0007
12190TIP3    H157985   6.010   4.165  13.139  1.6807  0.6495 -3.4755
12190TIP3    H257986   5.905   4.274  13.154 -0.0499 -1.3319  0.1799
12191TIP3   OH257987   6.803   4.637  11.848  0.1932 -0.2948  0.7965
12191TIP3    H157988   6.732   4.694  11.876  1.6442  2.6476 -0.9753
12191TIP3    H257989   6.832   4.592  11.928 -1.9888  0.3245  1.9918
12192TIP3   OH257990   3.618   5.625   0.607 -0.0166  0.3329 -0.0045
12192TIP3    H157991   3.626   5.567   0.683  1.5896 -1.1271 -1.2133
12192TIP3    H257992   3.580   5.706   0.642  0.6988 -0.2803  2.3342
12193TIP3   OH257993   3.367   4.344   0.808  0.0964 -0.2375 -0.0118
12193TIP3    H157994   3.272   4.333   0.796 -0.3118  2.6233 -0.2633
12193TIP3    H257995   3.397   4.379   0.725  0.9776  0.7939  0.7141
12194TIP3   OH257996   5.817   0.261   2.565  0.8246  0.1662  0.2710
12194TIP3    H157997   5.839   0.189   2.505 -1.9215 -0.4241 -0.1234
12194TIP3    H257998   5.824   0.340   2.511  1.3424 -0.0469  0.0129
12195TIP3   OH257999   6.380   1.545  12.678  0.7561 -1.0265 -0.2550
12195TIP3    H158000   6.390   1.495  12.759  1.6888 -1.1374 -0.4292
12195TIP3    H258001   6.407   1.634  12.701 -2.6657 -0.0417  0.5583
12196TIP3   OH258002   6.220   1.576  14.752 -0.3507  0.1156 -0.4083
12196TIP3    H158003   6.268   1.638  14.807 -0.6208 -0.8812  0.9902
12196TIP3    H258004   6.180   1.631  14.684  1.3614  1.1588 -0.6305
12197TIP3   OH258005   6.743   3.827  10.482  0.4207 -0.3677  0.0632
12197TIP3    H158006   6.729   3.909  10.530  0.4526  0.6651 -1.6377
12197TIP3    H258007   6.696   3.761  10.534 -0.7346  0.9542  0.7650
12198TIP3   OH258008   6.565   4.057  11.483 -0.4632 -0.2439 -0.2187
12198TIP3    H158009   6.568   3.975  11.434 -0.6053 -0.1816 -0.3341
12198TIP3    H258010   6.630   4.047  11.552  0.3173 -0.0295 -0.8990
12199TIP3   OH258011   6.663   4.442  13.521 -0.2163  0.1989 -0.0043
12199TIP3    H158012   6.671   4.347  13.519 -1.5900  0.0446  0.9106
12199TIP3    H258013   6.569   4.459  13.516 -0.0115  1.5041  0.1080
12200TIP3   OH258014   6.624   0.897  16.992  0.2492  0.2680  0.0453
12200TIP3    H158015   6.581   0.824  16.946 -2.1672  1.2620  0.5564
12200TIP3    H258016   6.590   0.975  16.948  0.8914  1.1422  1.0606
12201TIP3   OH258017   6.313   6.661  16.198  0.5256  0.3914  0.2877
12201TIP3    H158018   6.340   6.621  16.280  1.2300  0.0601 -0.0912
12201TIP3    H258019   6.218   6.666  16.203  0.5763  0.5027  1.1732
12202TIP3   OH258020   0.882   4.171  15.523 -0.2729 -0.2944 -0.4527
12202TIP3    H158021   0.967   4.128  15.526 -0.2057 -0.1285  0.6367
12202TIP3    H258022   0.900   4.258  15.488  0.3916  0.4858  1.6351
12203TIP3   OH258023   2.194   3.380  16.813 -0.7832 -0.0938  0.2707
12203TIP3    H158024   2.172   3.291  16.839  0.8139 -0.3574  0.8111
12203TIP3    H258025   2.219   3.423  16.896  0.8181  0.1245 -0.2883
12204TIP3   OH258026   5.176   2.062   2.676  0.0394  0.0896 -0.0450
12204TIP3    H158027   5.252   2.017   2.713  0.1981 -0.0931 -0.5819
12204TIP3    H258028   5.153   2.128   2.742  1.2573  0.7896 -0.2728
12205TIP3   OH258029   3.543   6.259   2.832  0.1809  0.6768 -0.0550
12205TIP3    H158030   3.503   6.345   2.825 -1.6910 -0.2145 -0.9920
12205TIP3    H258031   3.592   6.248   2.750  0.1959  0.7272 -0.0528
12206TIP3   OH258032   0.623   1.775  16.442  0.0545  0.0665  0.0081
12206TIP3    H158033   0.600   1.685  16.418  0.1402 -0.3322  1.3070
12206TIP3    H258034   0.559   1.830  16.396 -0.3087 -0.6937 -0.4077
12207TIP3   OH258035   4.367   5.374  11.293  0.3669 -0.6495 -0.4977
12207TIP3    H158036   4.457   5.395  11.269  0.9439 -0.5928  1.5920
12207TIP3    H258037   4.371   5.351  11.385 -1.5668 -1.9224 -0.6736
12208TIP3   OH258038   6.165   1.673  14.302 -0.1037 -0.1446  0.4447
12208TIP3    H158039   6.211   1.635  14.227 -1.0004  1.3610 -0.9297
12208TIP3    H258040   6.077   1.636  14.298 -1.2405  2.4420 -1.3710
12209TIP3   OH258041   6.227   2.893   4.714 -0.5777  0.1165 -0.4215
12209TIP3    H158042   6.166   2.934   4.652 -0.9520  1.5580  0.8244
12209TIP3    H258043   6.312   2.896   4.671 -1.1059 -0.4442 -1.5311
12210TIP3   OH258044   6.179   5.751  15.205 -0.1141  0.0916  0.1880
12210TIP3    H158045   6.149   5.694  15.276 -1.1712  1.4411  0.8845
12210TIP3    H258046   6.161   5.702  15.125 -0.6555 -0.7016  0.7857
12211TIP3   OH258047   1.334   3.428  16.858  0.1442  0.4400 -0.4124
12211TIP3    H158048   1.266   3.390  16.913  1.3143 -0.1678  0.6761
12211TIP3    H258049   1.309   3.520  16.848 -0.6780  0.2873  0.1833
12212TIP3   OH258050   2.838   4.076  16.570 -0.2158 -0.1829  1.2320
12212TIP3    H158051   2.814   4.165  16.544 -0.0425 -0.2032  0.9942
12212TIP3    H258052   2.759   4.040  16.609 -1.1113 -0.8168 -1.0109
12213TIP3   OH258053   1.001   0.186   1.921  0.1875 -0.0990  0.7805
12213TIP3    H158054   1.070   0.211   1.983  0.6688  0.7185 -0.0716
12213TIP3    H258055   1.032   0.216   1.836 -0.9530 -0.2639  0.2853
12214TIP3   OH258056   2.063   4.709  11.975  0.0200 -0.1918 -0.3212
12214TIP3    H158057   2.041   4.799  11.997  0.9647 -0.1609  0.5707
12214TIP3    H258058   2.086   4.712  11.882  2.3356  1.0057  0.1981
12215TIP3   OH258059   1.616   6.163  13.510  0.4864 -0.9110  0.4508
12215TIP3    H158060   1.675   6.221  13.460  1.1977 -1.7621  0.2785
12215TIP3    H258061   1.603   6.208  13.593 -1.8571  1.2471 -0.9519
12216TIP3   OH258062   0.383   3.387  13.052  0.0437 -0.5989  0.1338
12216TIP3    H158063   0.390   3.329  13.128  1.0347 -0.2004  0.3506
12216TIP3    H258064   0.445   3.458  13.069 -0.5766  0.1220 -0.4987
12217TIP3   OH258065   5.723   4.310   4.627 -0.7378 -0.0732  0.2164
12217TIP3    H158066   5.786   4.242   4.603  0.5460  1.5560 -1.3024
12217TIP3    H258067   5.693   4.346   4.543 -2.1728  0.5545  0.9552
12218TIP3   OH258068   0.252   2.414   1.352 -0.4224  0.2743 -0.0669
12218TIP3    H158069   0.210   2.335   1.317 -0.4141  0.2300  0.0236
12218TIP3    H258070   0.191   2.448   1.417  0.6538 -1.0533  1.7358
12219TIP3   OH258071   1.589   6.371  11.234 -0.1286 -0.8261  0.0701
12219TIP3    H158072   1.616   6.392  11.145 -0.1379  0.0818  0.2764
12219TIP3    H258073   1.500   6.405  11.241 -0.0416 -0.6861  0.4982
12220TIP3   OH258074   1.246   2.508   4.770 -0.5675  0.7881 -0.4057
12220TIP3    H158075   1.266   2.543   4.684 -2.2704  2.0374 -0.3368
12220TIP3    H258076   1.192   2.432   4.754 -0.0227  0.4044 -0.4514
12221TIP3   OH258077   1.987   3.178   0.979  0.3119 -0.6481 -0.2963
12221TIP3    H158078   1.931   3.215   0.910 -0.6808  0.1300  0.8690
12221TIP3    H258079   1.927   3.128   1.034  0.8287 -0.1418  0.7546
12222TIP3   OH258080   5.539   4.589   2.213 -0.1829 -0.3168 -0.5206
12222TIP3    H158081   5.616   4.626   2.257  0.2537  0.7627 -2.0827
12222TIP3    H258082   5.543   4.495   2.232  1.1053 -0.1685  0.0431
12223TIP3   OH258083   1.505   2.180   2.801 -0.3548  0.1929  0.1850
12223TIP3    H158084   1.545   2.122   2.735  0.1037  0.5733  0.1207
12223TIP3    H258085   1.412   2.182   2.778  0.1365  2.2959 -2.0255
12224TIP3   OH258086   2.553   0.185   4.935  0.3757  0.0093 -0.0469
12224TIP3    H158087   2.625   0.121   4.933  0.9114  0.4438  2.5546
12224TIP3    H258088   2.474   0.131   4.934  0.7724 -0.5867 -0.3038
12225TIP3   OH258089   3.786   0.630   4.051 -0.1006  0.5101  0.1145
12225TIP3    H158090   3.744   0.699   4.103  0.1851  0.5660  0.2723
12225TIP3    H258091   3.824   0.571   4.116  1.3826  1.2698 -0.0214
12226TIP3   OH258092   1.165   3.055  14.407  0.1496  0.2532  0.5027
12226TIP3    H158093   1.081   3.091  14.437  0.1442  0.4347  0.2754
12226TIP3    H258094   1.143   3.002  14.331  0.4207  1.6236 -0.5802
12227TIP3   OH258095   0.366   5.404   5.347 -0.0503 -0.3882 -0.4613
12227TIP3    H158096   0.301   5.361   5.291 -1.9578 -1.1548  2.1691
12227TIP3    H258097   0.315   5.449   5.414  2.0713  1.9551 -0.2475
12228TIP3   OH258098   2.430   5.158   4.496 -0.1941 -0.3635  0.3998
12228TIP3    H158099   2.374   5.087   4.464 -0.1177 -0.6251  0.8337
12228TIP3    H258100   2.476   5.119   4.570 -0.4769  0.2779  0.9166
12229TIP3   OH258101   6.731   1.115   4.118 -0.1100  0.0266  0.6240
12229TIP3    H158102   6.768   1.190   4.073 -1.4337  0.3416  0.0019
12229TIP3    H258103   6.690   1.063   4.049  0.7278 -1.2554  1.0490
12230TIP3   OH258104   0.736   1.888   6.597 -0.6306  0.0660  0.1839
12230TIP3    H158105   0.702   1.938   6.523 -1.7732  0.4542  0.9410
12230TIP3    H258106   0.679   1.811   6.602  0.9659 -1.2693 -0.8338
12231TIP3   OH258107   2.461   0.544   5.924  0.0812 -0.1804  0.4136
12231TIP3    H158108   2.553   0.545   5.894  0.4872 -0.7372  1.5789
12231TIP3    H258109   2.466   0.515   6.015 -1.1072  1.5012  1.0596
12232TIP3   OH258110   0.389   0.365  17.085 -0.2214  0.4522  0.0961
12232TIP3    H158111   0.297   0.340  17.074  0.2344 -1.3035 -0.0820
12232TIP3    H258112   0.412   0.408  17.003 -0.2675 -1.2454 -0.8451
12233TIP3   OH258113   3.809   6.082  14.922  0.0720  0.1733 -0.5203
12233TIP3    H158114   3.807   6.028  15.001 -1.2368 -0.8306 -1.1981
12233TIP3    H258115   3.796   6.020  14.850 -1.3791  1.3530 -1.3343
12234TIP3   OH258116   1.602   6.274   1.075 -0.2426 -0.3483 -0.4123
12234TIP3    H158117   1.591   6.297   0.982 -3.2915 -1.6335 -0.4576
12234TIP3    H258118   1.600   6.358   1.120  1.2986  0.3011 -1.4541
12235TIP3   OH258119   1.610   4.179  12.487  0.3631  0.6355 -0.0872
12235TIP3    H158120   1.515   4.174  12.472  0.4347 -0.1342 -0.2888
12235TIP3    H258121   1.623   4.138  12.572  0.5137  0.7987 -0.0311
12236TIP3   OH258122   3.578   3.998  15.783 -0.2194  0.0237  0.1517
12236TIP3    H158123   3.661   3.962  15.751 -0.0514  0.1072  0.4943
12236TIP3    H258124   3.599   4.087  15.810 -0.1436 -0.3603  1.4095
12237TIP3   OH258125   1.894   5.691   4.621  0.1788 -0.1998 -0.0713
12237TIP3    H158126   1.858   5.604   4.638  0.7280 -1.2002 -3.3206
12237TIP3    H258127   1.816   5.746   4.608 -0.2124  0.2705  3.3938
12238TIP3   OH258128   1.031   2.059  12.888  0.2948  0.0576 -0.3617
12238TIP3    H158129   0.993   1.989  12.836 -0.5284  1.0607 -1.1595
12238TIP3    H258130   1.046   2.020  12.974 -0.7516 -0.9060 -0.5914
12239TIP3   OH258131   2.332   5.198  14.512  0.1961  0.2147 -0.4206
12239TIP3    H158132   2.350   5.292  14.520  0.1848  0.1806  0.0243
12239TIP3    H258133   2.410   5.155  14.547  2.3564 -0.0450 -4.8272
12240TIP3   OH258134   5.057   2.040   3.671 -0.5038 -0.0415  0.2291
12240TIP3    H158135   5.024   2.129   3.683  0.4808  0.3294  0.3013
12240TIP3    H258136   5.000   2.002   3.605 -0.9193  0.6492  0.1782
12241TIP3   OH258137   3.971   4.959  12.330 -0.6853 -0.1675  0.2847
12241TIP3    H158138   4.025   5.035  12.353 -0.7642  0.6411 -1.9657
12241TIP3    H258139   3.941   4.925  12.415  1.4045  0.7534  1.4949
12242TIP3   OH258140   6.752   6.200  16.118  0.0787 -0.1365  0.8141
12242TIP3    H158141   6.715   6.285  16.141  0.1746  0.2827 -0.4988
12242TIP3    H258142   6.749   6.150  16.199 -3.2830 -0.1107  0.8746
12243TIP3   OH258143   5.370   4.299   3.040  0.4655 -0.5071  0.2768
12243TIP3    H158144   5.294   4.349   3.070  0.8681 -0.2545  0.8738
12243TIP3    H258145   5.360   4.296   2.945  1.0823  1.7352  0.1014
12244TIP3   OH258146   2.095   4.327  11.083 -0.0164  0.1584 -0.0619
12244TIP3    H158147   2.114   4.417  11.111  1.2412 -0.4655  1.1557
12244TIP3    H258148   2.063   4.283  11.162  0.2465 -0.7047 -0.4263
12245TIP3   OH258149   1.125   2.230  16.062  0.0613 -0.2140  0.1377
12245TIP3    H158150   1.115   2.304  16.003 -0.7006 -0.2737  0.1802
12245TIP3    H258151   1.099   2.154  16.009  0.4726 -0.4113  0.2093
12246TIP3   OH258152   3.075   5.666  16.914 -0.1516 -0.1362 -0.1567
12246TIP3    H158153   3.057   5.716  16.993  0.1510  0.7832 -0.6620
12246TIP3    H258154   3.085   5.576  16.945 -1.9860 -0.1213  0.5880
12247TIP3   OH258155   4.358   5.270  15.265  0.7784  0.1935  0.1327
12247TIP3    H158156   4.314   5.299  15.345 -0.4802 -1.3722  0.0611
12247TIP3    H258157   4.421   5.205  15.294  1.1929  0.5079 -0.0461
12248TIP3   OH258158   1.510   3.702  16.672  0.3139 -0.2884 -0.6998
12248TIP3    H158159   1.571   3.775  16.658 -1.0466  0.7420 -1.5190
12248TIP3    H258160   1.454   3.731  16.743  0.4293 -1.0006 -0.3126
12249TIP3   OH258161   3.991   1.634  14.687  0.2628 -0.1466 -0.1590
12249TIP3    H158162   4.006   1.721  14.724  0.9291 -0.4321  0.2546
12249TIP3    H258163   3.902   1.639  14.650 -0.8114 -0.1153  2.2361
12250TIP3   OH258164   1.013   5.674   5.529 -0.3061 -0.3483 -0.3689
12250TIP3    H158165   1.061   5.636   5.602 -1.5982 -1.4103 -0.0444
12250TIP3    H258166   1.059   5.643   5.451  0.3658 -0.1817 -0.0435
12251TIP3   OH258167   3.014   0.339   2.837 -0.3630 -0.0740  0.5457
12251TIP3    H158168   3.082   0.274   2.820 -1.0418 -0.5844 -0.3502
12251TIP3    H258169   3.029   0.368   2.927  0.4901 -0.8137  0.6516
12252TIP3   OH258170   4.060   3.252  14.361  0.0624 -0.3787 -0.1602
12252TIP3    H158171   4.072   3.238  14.455 -0.4363  0.9202  0.1200
12252TIP3    H258172   3.997   3.185  14.335  1.6026 -1.9629  0.0181
12253TIP3   OH258173   5.978   5.426  16.426  0.2861  0.0181  0.2149
12253TIP3    H158174   5.903   5.458  16.377 -1.1135 -2.5270  0.4961
12253TIP3    H258175   6.041   5.399  16.359 -0.2954 -0.5014 -0.1402
12254TIP3   OH258176   2.538   2.280  12.381 -0.3084  0.0120 -0.3910
12254TIP3    H158177   2.515   2.241  12.297 -1.4974 -0.9651  0.3354
12254TIP3    H258178   2.522   2.374  12.370  1.1666  0.1300 -1.7334
12255TIP3   OH258179   5.860   4.386  11.703 -0.4318  0.2927  0.8034
12255TIP3    H158180   5.825   4.302  11.675 -0.4026  1.1292 -2.1074
12255TIP3    H258181   5.954   4.374  11.707 -0.1570  0.7205 -2.1703
12256TIP3   OH258182   2.787   5.372  16.410 -0.4778  0.3318 -0.0522
12256TIP3    H158183   2.873   5.354  16.449 -0.2600 -2.0938 -1.4344
12256TIP3    H258184   2.741   5.288  16.415 -2.1135  1.1274 -0.9635
12257TIP3   OH258185   0.512   2.424   1.423 -0.2548  0.3664 -0.5269
12257TIP3    H158186   0.421   2.429   1.393  0.4125  1.9047 -2.5496
12257TIP3    H258187   0.547   2.347   1.380 -0.4527  0.0717 -0.1654
12258TIP3   OH258188   6.491   4.988  15.429 -0.0133 -0.1251  0.1674
12258TIP3    H158189   6.505   5.057  15.363  2.7388 -1.1287 -0.4268
12258TIP3    H258190   6.493   4.907  15.378  4.4487 -1.1153  1.5235
12259TIP3   OH258191   4.788   6.196  15.112  0.2515  0.2029  0.0408
12259TIP3    H158192   4.837   6.278  15.117  0.5034  0.1114 -0.7006
12259TIP3    H258193   4.837   6.136  15.168  0.1719  0.5016  0.4402
12260TIP3   OH258194   6.572   1.021  14.334 -0.3508  0.0003 -0.4193
12260TIP3    H158195   6.569   1.077  14.412 -1.9009 -1.4374  0.6103
12260TIP3    H258196   6.494   0.966  14.340 -0.1794 -0.6059 -2.6764
12261TIP3   OH258197   0.264   3.034   5.067 -0.1739 -0.3679  0.2142
12261TIP3    H158198   0.257   2.969   5.138  0.3960  0.0039  0.6107
12261TIP3    H258199   0.341   3.086   5.088 -0.9650  0.8431  0.2289
12262TIP3   OH258200   0.832   3.465   2.882 -0.3858 -0.0937 -0.7124
12262TIP3    H158201   0.836   3.448   2.788  0.3897 -0.8086 -0.5659
12262TIP3    H258202   0.812   3.559   2.889  1.5447  0.4350 -1.6273
12263TIP3   OH258203   5.148   5.001   3.311  0.2314 -0.3852 -0.1388
12263TIP3    H158204   5.236   5.034   3.293  0.1374  1.7306  2.6868
12263TIP3    H258205   5.163   4.915   3.351  1.2266  0.6396  1.8628
12264TIP3   OH258206   2.215   6.452  14.020  0.1031  0.2658  0.1425
12264TIP3    H158207   2.177   6.365  14.023  2.3490 -0.7699  0.9300
12264TIP3    H258208   2.198   6.489  14.107  0.0891  0.1690  0.1812
12265TIP3   OH258209   6.749   1.956   1.801 -0.1387  0.2550  0.3455
12265TIP3    H158210   6.769   2.043   1.766 -2.4804  0.3775 -0.8795
12265TIP3    H258211   6.803   1.949   1.880  0.7094  2.4820  0.0344
12266TIP3   OH258212   4.652   0.883   4.994 -0.3257 -0.2633  0.3387
12266TIP3    H158213   4.707   0.886   4.916 -1.0129  0.2076 -0.1450
12266TIP3    H258214   4.598   0.805   4.983 -0.3482 -0.2546  0.3864
12267TIP3   OH258215   0.224   3.984  14.871  0.0135 -0.2381  0.0758
12267TIP3    H158216   0.285   3.981  14.946 -0.5106 -1.0508  0.4894
12267TIP3    H258217   0.143   3.944  14.905  0.1182 -1.6739 -1.2316
12268TIP3   OH258218   5.507   2.007  15.634  0.0758 -0.2862 -0.7315
12268TIP3    H158219   5.540   2.061  15.562 -1.3041  0.3852 -0.9041
12268TIP3    H258220   5.472   1.929  15.591  1.6041 -1.1131 -0.5270
12269TIP3   OH258221   3.849   3.849   2.251  0.4828 -0.3717 -0.5591
12269TIP3    H158222   3.876   3.901   2.175  0.0774  1.2837  0.3814
12269TIP3    H258223   3.770   3.804   2.222 -0.6935  1.6278 -0.6394
12270TIP3   OH258224   2.044   5.705   3.338  0.2919 -0.1152  0.4106
12270TIP3    H158225   1.953   5.677   3.351  0.5296 -1.5151 -0.6958
12270TIP3    H258226   2.062   5.686   3.246  0.9967  2.3776 -0.0516
12271TIP3   OH258227   6.145   2.301  11.942 -0.6534  0.1003 -0.4426
12271TIP3    H158228   6.148   2.348  11.859 -2.6275  0.5143 -0.3241
12271TIP3    H258229   6.054   2.308  11.971 -0.6844 -2.4687  0.3643
12272TIP3   OH258230   0.599   5.441   2.720 -0.6716 -0.1368 -0.3448
12272TIP3    H158231   0.592   5.474   2.810 -0.7946  0.6421 -0.6307
12272TIP3    H258232   0.666   5.496   2.679  1.0490 -1.9365 -0.1156
12273TIP3   OH258233   6.084   1.116  15.783 -0.4435  0.1337  0.3010
12273TIP3    H158234   6.051   1.041  15.832  0.0054 -0.4344 -0.2483
12273TIP3    H258235   6.140   1.078  15.716 -0.6836  0.9231 -0.3678
12274TIP3   OH258236   6.550   5.278   1.084 -1.0241 -0.1510  0.0557
12274TIP3    H158237   6.511   5.333   1.015  0.5627  1.1529  0.1163
12274TIP3    H258238   6.510   5.309   1.165  0.7327  1.9354  0.2471
12275TIP3   OH258239   1.429   2.223  11.461 -0.1106  0.3130 -0.2491
12275TIP3    H158240   1.374   2.301  11.468 -0.2548  0.2736 -0.8661
12275TIP3    H258241   1.498   2.235  11.526 -1.0075  0.2309  0.7336
12276TIP3   OH258242   3.968   1.153  15.702 -0.3947 -0.2295  0.2628
12276TIP3    H158243   3.883   1.109  15.693 -0.8427  0.2531  1.9124
12276TIP3    H258244   3.948   1.235  15.747  0.9317 -0.0182  0.5110
12277TIP3   OH258245   6.052   4.665  16.752  0.3978  0.5082 -0.3562
12277TIP3    H158246   5.968   4.711  16.754  0.8911  1.4160 -0.2245
12277TIP3    H258247   6.034   4.580  16.791 -0.0815  1.3211  1.2435
12278TIP3   OH258248   2.895   5.876  16.542  0.1769 -0.7278 -0.4880
12278TIP3    H158249   2.975   5.824  16.538 -0.3441 -1.5445 -0.5778
12278TIP3    H258250   2.924   5.966  16.528  0.8849 -1.1906 -2.2209
12279TIP3   OH258251   5.085   5.834  12.745  0.0681  0.2116  0.0137
12279TIP3    H158252   5.003   5.860  12.703  1.1154  0.4326 -2.0047
12279TIP3    H258253   5.117   5.761  12.692  1.4962  0.5617  0.3501
12280TIP3   OH258254   6.737   1.550  10.956  0.6943  0.0746 -0.1055
12280TIP3    H158255   6.779   1.622  10.907 -1.1779  4.2180  3.6564
12280TIP3    H258256   6.794   1.538  11.032 -1.2365  0.8855  1.5462
12281TIP3   OH258257   5.278   4.786  15.528 -0.5094  0.4208  0.3991
12281TIP3    H158258   5.237   4.872  15.537 -0.6132  0.3494  0.6056
12281TIP3    H258259   5.262   4.743  15.611 -0.5396  0.1661  0.2623
12282TIP3   OH258260   2.234   6.392  16.686 -0.4789  0.5487 -1.0773
12282TIP3    H158261   2.274   6.442  16.757 -2.2617 -0.8561  1.0356
12282TIP3    H258262   2.149   6.433  16.673 -1.2589 -0.8456 -0.5013
12283TIP3   OH258263   1.884   1.654   3.653  0.1731 -0.5296 -0.5063
12283TIP3    H158264   1.885   1.675   3.560 -0.4073 -1.2984 -0.6925
12283TIP3    H258265   1.976   1.640   3.676  0.6043  2.0517 -0.3804
12284TIP3   OH258266   4.911   1.942   4.530  0.1030 -0.0607 -0.5024
12284TIP3    H158267   4.929   1.969   4.440  1.3190  1.5859  0.1727
12284TIP3    H258268   4.817   1.955   4.542  0.3043  2.0824 -0.8437
12285TIP3   OH258269   0.509   4.815   5.904 -0.3638 -0.1895  0.0490
12285TIP3    H158270   0.563   4.838   5.979 -0.6925 -3.0884  1.2720
12285TIP3    H258271   0.563   4.837   5.828  1.1042  0.2156  1.1802
12286TIP3   OH258272   2.956   2.649   4.919  0.1387 -0.3307  0.0519
12286TIP3    H158273   2.894   2.688   4.857  0.6306 -0.0270 -0.2557
12286TIP3    H258274   3.041   2.660   4.877  0.2929 -1.7335 -0.0224
12287TIP3   OH258275   3.429   6.442   5.097  0.1891 -0.1579  0.0772
12287TIP3    H158276   3.398   6.399   5.017  0.7036 -0.0897 -0.1573
12287TIP3    H258277   3.348   6.467   5.143 -0.1447 -1.8019  0.4629
12288TIP3   OH258278   2.728   2.953   2.918 -0.6294  0.3495 -0.0299
12288TIP3    H158279   2.771   2.924   2.999 -3.4914  0.2103  1.5376
12288TIP3    H258280   2.717   2.872   2.868 -1.3902 -0.0308  0.7335
12289TIP3   OH258281   6.422   5.532  15.422 -0.3291  0.2274  0.3614
12289TIP3    H158282   6.447   5.513  15.513  1.4515 -2.8238 -0.6372
12289TIP3    H258283   6.381   5.619  15.427  1.2538  0.9722  3.8025
12290TIP3   OH258284   1.733   1.477  11.405 -0.5968 -0.1866 -0.0640
12290TIP3    H158285   1.694   1.545  11.461  0.1734  0.5185 -0.3670
12290TIP3    H258286   1.827   1.485  11.420 -0.4245 -0.3941 -1.0180
12291TIP3   OH258287   3.718   5.754   2.884 -0.0522 -0.8533  0.0230
12291TIP3    H158288   3.749   5.825   2.940 -3.6179 -0.0147  1.1655
12291TIP3    H258289   3.762   5.770   2.800  0.0741  2.0944  0.5357
12292TIP3   OH258290   4.483   2.503   4.650 -0.0012 -0.0531  0.1607
12292TIP3    H158291   4.543   2.480   4.722  1.6880 -1.4473 -1.5668
12292TIP3    H258292   4.440   2.421   4.629 -1.7470  0.7104  0.6220
12293TIP3   OH258293   2.176   1.694  14.107 -0.0807  0.4314 -0.5029
12293TIP3    H158294   2.211   1.757  14.170  0.0730  1.1718 -1.3185
12293TIP3    H258295   2.251   1.668  14.054  0.2469 -1.8245  0.9375
12294TIP3   OH258296   5.758   2.888  17.085  0.2698 -0.5500  0.2421
12294TIP3    H158297   5.795   2.957  17.031  0.3883  0.2704  1.3253
12294TIP3    H258298   5.834   2.838  17.116  0.2700 -0.4971  0.3270
12295TIP3   OH258299   1.154   1.484  12.406 -0.5868  0.0027  0.2702
12295TIP3    H158300   1.120   1.397  12.427  0.0774 -0.5975 -1.0794
12295TIP3    H258301   1.082   1.543  12.428 -0.9044 -0.8202  1.5935
12296TIP3   OH258302   6.415   0.011  12.776  0.7469  0.0117 -0.2300
12296TIP3    H158303   6.374  -0.073  12.756 -0.6595  0.6801 -0.3292
12296TIP3    H258304   6.383   0.070  12.707 -0.2257  1.1823  1.1509
12297TIP3   OH258305   4.163   2.194   3.234  0.2526 -0.3492  0.4834
12297TIP3    H158306   4.197   2.249   3.305 -0.5681 -1.2592  1.6306
12297TIP3    H258307   4.105   2.252   3.185  0.6248  0.2268  0.7161
12298TIP3   OH258308   3.747   4.153   3.493  0.0947 -0.4026 -0.2079
12298TIP3    H158309   3.800   4.097   3.551  1.7381  0.3946 -0.8729
12298TIP3    H258310   3.734   4.100   3.414  1.0056 -0.1563 -0.5374
12299TIP3   OH258311   0.447   6.036  15.129 -0.1542 -0.8110  0.3663
12299TIP3    H158312   0.451   6.082  15.213  0.0031  1.0897 -0.6218
12299TIP3    H258313   0.513   5.968  15.135  0.1008 -0.4657  1.6555
12300TIP3   OH258314   3.239   1.981   1.468 -0.3214 -0.1392 -0.7275
12300TIP3    H158315   3.253   1.959   1.376  1.4057  0.4947 -0.6530
12300TIP3    H258316   3.196   2.066   1.466 -1.7625 -0.8435 -0.9390
12301TIP3   OH258317   0.913   6.367   1.060 -0.2845 -0.3689 -0.0194
12301TIP3    H158318   0.830   6.404   1.032  0.1455  1.2909  0.7236
12301TIP3    H258319   0.936   6.417   1.139  0.5472 -2.0144  0.8356
12302TIP3   OH258320   2.724   2.834   5.624 -0.1965  0.1524  0.0940
12302TIP3    H158321   2.798   2.879   5.582 -1.0780  0.6796 -0.9360
12302TIP3    H258322   2.711   2.755   5.573 -1.8401  1.2276 -1.2594
12303TIP3   OH258323   0.066   0.087  12.178 -0.1949  0.6844 -0.8180
12303TIP3    H158324   0.003   0.150  12.143  1.5601  2.1972 -1.4561
12303TIP3    H258325   0.017   0.035  12.241 -1.9563  2.0734 -0.9751
12304TIP3   OH258326   5.505   3.693   0.961 -0.1686  0.2702  0.8734
12304TIP3    H158327   5.593   3.662   0.940  0.2825  0.6842  2.0636
12304TIP3    H258328   5.486   3.760   0.895  0.1157 -0.3219  0.1839
12305TIP3   OH258329   5.960   0.110   3.525  0.4402 -0.3591  0.0505
12305TIP3    H158330   5.935   0.080   3.612 -2.1297 -1.0059 -0.8087
12305TIP3    H258331   5.905   0.187   3.510  0.7880 -0.2997 -1.0113
12306TIP3   OH258332   1.193   2.564   1.213 -0.3432 -0.3931  0.0618
12306TIP3    H158333   1.199   2.470   1.228 -0.4793 -0.4907 -0.4536
12306TIP3    H258334   1.284   2.592   1.201 -0.4018 -0.7735 -1.5128
12307TIP3   OH258335   0.765   1.944   5.213 -0.3066 -0.0606  0.7763
12307TIP3    H158336   0.817   1.981   5.141 -1.9184 -2.1472 -1.6390
12307TIP3    H258337   0.821   1.875   5.249 -0.7393 -1.3305 -0.8551
12308TIP3   OH258338   2.893   1.940  16.707 -0.1255 -0.3199 -0.3636
12308TIP3    H158339   2.834   1.932  16.782  1.2552  0.6644  0.8883
12308TIP3    H258340   2.966   1.881  16.728 -0.2161 -0.8418 -1.4598
12309TIP3   OH258341   4.724   6.720   4.177 -0.0643 -0.4012  0.2792
12309TIP3    H158342   4.650   6.693   4.122 -0.5290 -1.5531  1.4106
12309TIP3    H258343   4.788   6.755   4.116 -1.3386  0.1544 -0.7878
12310TIP3   OH258344   5.848   0.343   0.805  0.4908  0.5818 -0.3208
12310TIP3    H158345   5.929   0.292   0.801  0.0920 -0.0651 -0.2141
12310TIP3    H258346   5.860   0.412   0.739  1.6162  1.2301  0.5205
12311TIP3   OH258347   2.652   2.517  14.138  0.2808 -0.2727 -0.6210
12311TIP3    H158348   2.650   2.429  14.175  2.4050 -1.4272 -2.9428
12311TIP3    H258349   2.576   2.561  14.175 -0.4518 -2.8399  1.1576
12312TIP3   OH258350   3.430   4.885   1.303  0.4825  0.3534 -0.1635
12312TIP3    H158351   3.366   4.912   1.238  2.3299  2.9063 -1.0655
12312TIP3    H258352   3.486   4.822   1.258  0.3922  0.3913 -0.3280
12313TIP3   OH258353   5.575   1.858   0.817  0.3947 -0.0864  0.3196
12313TIP3    H158354   5.559   1.868   0.723 -1.4370 -1.2245  0.4542
12313TIP3    H258355   5.573   1.763   0.832  0.5052  0.0854  1.5271
12314TIP3   OH258356   2.834   0.328  10.869  0.0024 -0.2036 -0.4262
12314TIP3    H158357   2.884   0.267  10.815  0.6413  0.5914 -0.7625
12314TIP3    H258358   2.753   0.282  10.889  0.3456 -1.0438 -0.9125
12315TIP3   OH258359   6.641   2.391   3.359 -0.0393 -0.2342 -0.0529
12315TIP3    H158360   6.594   2.364   3.438 -0.8824  3.7724  1.0679
12315TIP3    H258361   6.733   2.390   3.384 -0.3172  1.2861  1.1771
12316TIP3   OH258362   6.089   0.460  15.211  0.3652  0.1258 -0.1852
12316TIP3    H158363   6.111   0.388  15.152  0.3102  0.8219 -1.0798
12316TIP3    H258364   6.170   0.509  15.221 -0.4128  2.2065 -2.8092
12317TIP3   OH258365   4.937   5.823  13.735  0.2780 -0.2734 -0.7897
12317TIP3    H158366   4.943   5.866  13.820  0.8182  1.2619 -1.5730
12317TIP3    H258367   4.873   5.753  13.748  0.6680 -0.3451  0.9816
12318TIP3   OH258368   5.916   2.193  14.597  0.7134  0.1732 -0.6934
12318TIP3    H158369   5.997   2.244  14.590  0.7568 -0.0403 -1.8620
12318TIP3    H258370   5.945   2.102  14.598  0.5330  0.1166 -0.2478
12319TIP3   OH258371   6.675   0.666   5.496 -0.2774  0.2170  0.1949
12319TIP3    H158372   6.634   0.740   5.452  1.0010 -0.1319 -1.6815
12319TIP3    H258373   6.739   0.706   5.555 -2.1655  0.6948  2.0417
12320TIP3   OH258374   5.143   2.612  11.803  0.1585 -0.8913 -0.4426
12320TIP3    H158375   5.054   2.602  11.835 -0.6168 -0.4602 -2.3188
12320TIP3    H258376   5.138   2.684  11.740  1.8336 -0.8697 -0.6024
12321TIP3   OH258377   4.313   5.014   4.209  0.1204 -0.3516 -0.7950
12321TIP3    H158378   4.278   4.925   4.206  2.7466 -1.4539 -1.1128
12321TIP3    H258379   4.286   5.048   4.295 -0.7609 -1.4909 -0.6006
12322TIP3   OH258380   6.010   2.671  12.602  0.3685  0.1951  0.0857
12322TIP3    H158381   6.045   2.726  12.532  2.9954 -2.6605 -1.0699
12322TIP3    H258382   6.078   2.673  12.670  0.1191 -0.8811  0.3867
12323TIP3   OH258383   0.093   0.043   1.737  0.1686  0.1607  0.1518
12323TIP3    H158384   0.000   0.055   1.757 -0.2091 -1.6062 -0.3817
12323TIP3    H258385   0.109   0.101   1.662 -0.0806  1.6368  1.1911
12324TIP3   OH258386   2.708   4.691   3.310  0.5924 -0.1737 -0.8085
12324TIP3    H158387   2.637   4.644   3.266  1.5251 -0.7813 -1.7031
12324TIP3    H258388   2.696   4.671   3.402  0.0451 -0.8895 -1.0235
12325TIP3   OH258389   4.952   5.355  13.622 -0.4546  0.0056 -0.4380
12325TIP3    H158390   4.889   5.286  13.641  0.6892 -1.3744 -1.4319
12325TIP3    H258391   4.899   5.430  13.594 -1.6948 -0.6521  0.1369
12326TIP3   OH258392   2.773   2.444   0.763 -0.0150 -0.5599 -0.6750
12326TIP3    H158393   2.846   2.507   0.759 -0.8275  0.5215  0.7113
12326TIP3    H258394   2.695   2.498   0.776 -0.8047 -1.8195  0.0212
12327TIP3   OH258395   4.166   3.252   4.942 -0.1587 -0.8243 -0.0285
12327TIP3    H158396   4.134   3.214   5.024 -2.2382 -2.4998 -1.4905
12327TIP3    H258397   4.261   3.240   4.946 -0.0208  0.4053  2.6719
12328TIP3   OH258398   3.518   6.079  14.432  0.7628 -0.0710  0.0736
12328TIP3    H158399   3.494   6.161  14.476  0.5864  0.2978 -0.6799
12328TIP3    H258400   3.613   6.073  14.441  1.2586  1.8514 -2.4806
12329TIP3   OH258401   4.470   1.132  14.490 -0.5491  0.2336 -0.9428
12329TIP3    H158402   4.408   1.205  14.482  0.0347  0.6024 -2.4271
12329TIP3    H258403   4.501   1.138  14.580 -1.2209  1.2455 -0.7586
12330TIP3   OH258404   0.408   0.511  16.425  0.2820 -0.0066  0.4080
12330TIP3    H158405   0.422   0.456  16.347 -0.1936  0.1352  0.2171
12330TIP3    H258406   0.332   0.471  16.468 -1.1627  1.4875 -0.6449
12331TIP3   OH258407   4.615   2.852  11.639 -0.3602  0.2195 -0.1524
12331TIP3    H158408   4.574   2.774  11.677  0.5375  0.8553  2.2629
12331TIP3    H258409   4.542   2.907  11.612 -1.0110 -1.3131 -1.7450
12332TIP3   OH258410   4.591   1.507   3.252 -0.4515  0.0394 -0.1246
12332TIP3    H158411   4.555   1.535   3.167  2.0698 -1.2666 -1.7456
12332TIP3    H258412   4.686   1.507   3.239  0.0830  0.9831  3.1520
12333TIP3   OH258413   5.387   5.211  14.827 -0.0136 -0.0090 -0.0220
12333TIP3    H158414   5.309   5.166  14.795  0.4162 -0.9549  0.2338
12333TIP3    H258415   5.353   5.289  14.870 -0.8131 -0.3610  0.0076
12334TIP3   OH258416   1.773   2.052   0.282 -0.1416  0.1908 -0.0449
12334TIP3    H158417   1.733   2.071   0.366 -0.5162 -1.5921  0.2260
12334TIP3    H258418   1.774   1.956   0.277  1.0745  0.2337 -1.4916
12335TIP3   OH258419   2.714   4.477  10.384 -0.0323 -0.1817  0.6107
12335TIP3    H158420   2.707   4.444  10.295 -1.9450 -1.1792  1.0709
12335TIP3    H258421   2.724   4.572  10.374 -1.3262 -0.1527 -0.6657
12336TIP3   OH258422   0.200   5.965   3.340  0.6332  0.6107 -0.3584
12336TIP3    H158423   0.154   5.882   3.354 -1.0865  1.1671 -2.2373
12336TIP3    H258424   0.271   5.944   3.280 -0.1788  0.5627 -1.3305
12337TIP3   OH258425   1.103   3.751  12.142 -0.0970 -0.1398  0.0597
12337TIP3    H158426   1.174   3.739  12.205 -1.5330  2.9372  2.5241
12337TIP3    H258427   1.046   3.676  12.154 -0.1813  0.2239  2.3320
12338TIP3   OH258428   6.146   0.690  16.981 -0.0791 -0.0300 -0.4728
12338TIP3    H158429   6.117   0.779  16.959 -0.7507 -0.4486 -1.3545
12338TIP3    H258430   6.096   0.667  17.059  0.6431  0.6321  0.1962
12339TIP3   OH258431   5.210   4.655   2.440 -0.5835 -0.2294 -0.0907
12339TIP3    H158432   5.153   4.579   2.428 -0.9465 -0.0286  0.3299
12339TIP3    H258433   5.161   4.727   2.401 -0.3984 -0.1455 -0.1672
12340TIP3   OH258434   2.266   2.802   2.710 -0.0154  0.0542  0.4011
12340TIP3    H158435   2.264   2.706   2.710 -0.6350  0.0273  1.9090
12340TIP3    H258436   2.173   2.828   2.708  0.0509  0.5431  1.8578
12341TIP3   OH258437   4.699   2.637  16.679  0.3755 -0.1932 -0.2206
12341TIP3    H158438   4.739   2.551  16.694 -0.5742 -0.9017 -1.6074
12341TIP3    H258439   4.614   2.632  16.723 -0.5689 -0.7428 -2.0078
12342TIP3   OH258440   2.044   0.695   1.004 -0.1055  0.5815 -1.0070
12342TIP3    H158441   2.039   0.601   1.023  0.7019  0.5737 -0.8007
12342TIP3    H258442   2.092   0.732   1.078 -1.6559  1.3852 -0.3574
12343TIP3   OH258443   5.799   3.820  16.679 -0.2571 -0.2489 -0.6618
12343TIP3    H158444   5.715   3.859  16.655 -0.3180  0.4323  0.5484
12343TIP3    H258445   5.807   3.837  16.773  2.0563  1.3228 -1.0439
12344TIP3   OH258446   6.198   4.414   4.789 -0.0561  0.4244  0.2458
12344TIP3    H158447   6.145   4.339   4.816 -0.9089  0.9352  0.0399
12344TIP3    H258448   6.273   4.375   4.745  0.7253 -0.3842  2.1799
12345TIP3   OH258449   6.353   5.816  10.408  0.7104 -0.8744 -0.2524
12345TIP3    H158450   6.363   5.879  10.336  0.6401 -0.0483  0.4477
12345TIP3    H258451   6.433   5.826  10.459  0.9014 -1.6852 -0.3776
12346TIP3   OH258452   5.726   4.789  13.900  0.2105  0.2746  0.1484
12346TIP3    H158453   5.643   4.837  13.908  0.4424  0.7354 -0.1652
12346TIP3    H258454   5.792   4.857  13.889  0.3790 -0.1292 -1.7403
12347TIP3   OH258455   3.129   5.646  15.234 -0.4515 -0.7716  0.1265
12347TIP3    H158456   3.197   5.646  15.166 -0.7142 -0.0638 -0.1443
12347TIP3    H258457   3.175   5.674  15.314 -0.7436  1.5665 -0.4330
12348TIP3   OH258458   2.864   4.586   2.506 -0.8187  0.7437 -0.5090
12348TIP3    H158459   2.806   4.573   2.582 -1.7568 -0.0498 -1.3291
12348TIP3    H258460   2.930   4.648   2.537 -1.6909  1.1282  0.6882
12349TIP3   OH258461   5.745   2.394   0.998 -0.2908  0.1159  0.3543
12349TIP3    H158462   5.817   2.362   1.052  0.6571  0.9890 -0.3650
12349TIP3    H258463   5.740   2.332   0.925 -0.2213  0.0950  0.3677
12350TIP3   OH258464   0.888   1.751  16.006 -0.1866  0.4721  0.3519
12350TIP3    H158465   0.921   1.662  15.990  0.4453  0.5606  1.1425
12350TIP3    H258466   0.929   1.778  16.088 -0.8809  1.2544  0.4529
12351TIP3   OH258467   0.248   6.607  12.824 -0.3891 -0.3413 -0.0158
12351TIP3    H158468   0.243   6.660  12.903  0.7092 -0.0958 -0.0933
12351TIP3    H258469   0.164   6.621  12.780 -0.8047 -0.0809  0.8492
12352TIP3   OH258470   4.038   1.806   0.349  0.9023  0.1642 -0.0741
12352TIP3    H158471   3.962   1.777   0.399 -1.1226  2.8807 -1.3546
12352TIP3    H258472   4.038   1.901   0.358  3.6360  0.3481 -0.9478
12353TIP3   OH258473   2.086   0.736   3.015  0.1618  0.0816 -0.0454
12353TIP3    H158474   2.170   0.692   3.028 -0.6030 -0.9380  1.6422
12353TIP3    H258475   2.102   0.795   2.941  1.8930 -1.2592 -0.8112
12354TIP3   OH258476   3.973   4.346   2.192 -0.3655 -0.3324  0.2892
12354TIP3    H158477   3.939   4.284   2.256  1.6695 -2.3647 -0.4305
12354TIP3    H258478   4.036   4.295   2.141  1.7470  2.4317 -0.1181
12355TIP3   OH258479   3.135   4.742  13.947 -0.8381 -0.4869  0.1498
12355TIP3    H158480   3.136   4.722  14.040 -0.0303 -1.6502 -0.0835
12355TIP3    H258481   3.194   4.678  13.908 -0.0362  0.8839 -0.9847
12356TIP3   OH258482   3.252   1.811  11.436 -0.6884  0.2271 -0.4339
12356TIP3    H158483   3.313   1.844  11.371 -1.4694  0.6513 -0.9709
12356TIP3    H258484   3.292   1.832  11.520 -0.5662  1.4109 -0.7702
12357TIP3   OH258485   0.734   6.601   1.490  0.2610 -0.6802 -0.2642
12357TIP3    H158486   0.804   6.641   1.541 -0.0458  0.8850 -1.0189
12357TIP3    H258487   0.778   6.539   1.432  0.8873 -0.5576  0.0795
12358TIP3   OH258488   2.218   0.399  13.101 -0.5070  0.7969  0.3399
12358TIP3    H158489   2.183   0.421  13.188 -1.6261  1.3094 -0.2209
12358TIP3    H258490   2.313   0.398  13.113 -0.6431  0.8872  1.5642
12359TIP3   OH258491   6.704   3.199  15.145  0.4640  0.6921 -0.3419
12359TIP3    H158492   6.635   3.250  15.187 -0.5855  0.7044 -1.9884
12359TIP3    H258493   6.763   3.265  15.108  0.1810  0.7079 -0.7724
12360TIP3   OH258494   1.044   2.452  14.944  0.5033  0.3404 -0.2487
12360TIP3    H158495   1.135   2.480  14.936  0.8331 -0.6847 -0.3063
12360TIP3    H258496   0.999   2.492  14.869  1.2995 -0.5947 -1.2482
12361TIP3   OH258497   4.986   4.936   5.244  0.1543 -0.1028  0.2936
12361TIP3    H158498   4.911   4.924   5.302 -1.1313 -2.1604 -1.6052
12361TIP3    H258499   4.973   5.022   5.205 -1.8292 -0.7811 -0.6991
12362TIP3   OH258500   0.834   1.824  10.959 -0.4217  0.2282 -0.4849
12362TIP3    H158501   0.859   1.915  10.944 -1.2765  0.2649 -1.8438
12362TIP3    H258502   0.747   1.816  10.922 -0.7882 -0.9056  0.5294
12363TIP3   OH258503   0.985   5.413  11.122  0.6479 -0.0925 -0.0882
12363TIP3    H158504   0.932   5.383  11.196  0.6487 -1.9425 -0.7907
12363TIP3    H258505   1.048   5.474  11.161  2.0553 -2.6021  1.8857
12364TIP3   OH258506   4.185   0.576  12.291 -0.3843 -0.4044 -0.2209
12364TIP3    H158507   4.144   0.601  12.208 -2.1084  0.9327  0.9442
12364TIP3    H258508   4.227   0.657  12.322  0.5785 -0.9871  0.0211
12365TIP3   OH258509   4.226   0.502  11.314  0.1548 -0.2850 -0.2511
12365TIP3    H158510   4.185   0.531  11.233  0.7213  1.8133  0.1334
12365TIP3    H258511   4.316   0.534  11.307  0.1051  0.2821  1.3481
12366TIP3   OH258512   3.572   2.562  12.739  0.1969  0.2155  0.2044
12366TIP3    H158513   3.591   2.656  12.729 -2.5178  0.8485  0.2328
12366TIP3    H258514   3.563   2.550  12.834  1.1269 -0.2457  0.2468
12367TIP3   OH258515   4.978   5.515   6.234  0.0782 -0.5257  0.6306
12367TIP3    H158516   4.926   5.444   6.196 -0.1509  0.7149 -1.4915
12367TIP3    H258517   5.066   5.478   6.241 -0.1238 -1.1669 -0.0473
12368TIP3   OH258518   2.905   6.584   1.652 -0.0140  0.2914 -0.6964
12368TIP3    H158519   2.931   6.584   1.744 -1.1262  1.3024 -0.3516
12368TIP3    H258520   2.988   6.578   1.604  0.7319  1.4528  0.3648
12369TIP3   OH258521   5.250   6.760   0.113  0.2715 -0.1421 -0.1762
12369TIP3    H158522   5.303   6.800   0.045 -3.3090  0.4743 -2.8559
12369TIP3    H258523   5.209   6.685   0.071 -1.8415  0.0649  1.3319
12370TIP3   OH258524   6.682   4.727   0.796  0.0604  0.1414 -0.2113
12370TIP3    H158525   6.694   4.723   0.890  1.5159  1.1955 -0.3288
12370TIP3    H258526   6.752   4.673   0.760 -0.1915  0.1423 -0.7142
12371TIP3   OH258527   3.225   5.369  15.829  0.5850 -0.1067  0.3947
12371TIP3    H158528   3.218   5.338  15.739  0.1790 -0.0298  0.4002
12371TIP3    H258529   3.164   5.443  15.834  0.0886 -0.5447  0.9239
12372TIP3   OH258530   2.218   4.204  11.581 -0.0007 -0.1904 -0.0161
12372TIP3    H158531   2.313   4.206  11.583  0.0889  1.6585 -1.9388
12372TIP3    H258532   2.194   4.121  11.623  2.4211 -0.5749  0.7241
12373TIP3   OH258533   6.124   2.560   0.750 -0.0486 -0.3899  0.3116
12373TIP3    H158534   6.182   2.599   0.684  2.3618  2.3442  3.6858
12373TIP3    H258535   6.052   2.624   0.758  1.1380  0.8077  2.1347
12374TIP3   OH258536   6.297   4.831   5.027 -0.0154  0.2730 -0.1806
12374TIP3    H158537   6.262   4.757   5.077  1.1455 -1.6176 -2.0234
12374TIP3    H258538   6.315   4.898   5.093 -0.9555 -1.1369  1.5871
12375TIP3   OH258539   3.094   4.418  15.214  0.3068  0.7952 -0.0223
12375TIP3    H158540   3.158   4.377  15.272  0.2470  1.2818  0.3902
12375TIP3    H258541   3.009   4.395  15.251  0.2760  1.4390  0.3171
12376TIP3   OH258542   1.018   3.751  16.265  0.1173 -0.0716  0.5727
12376TIP3    H158543   0.961   3.674  16.258 -2.6544  1.8568  0.2355
12376TIP3    H258544   1.051   3.748  16.355 -0.4958 -1.3092  0.7803
12377TIP3   OH258545   5.457   3.447   4.210 -0.1633 -0.2261 -0.1209
12377TIP3    H158546   5.493   3.492   4.134 -0.8511  2.6176  1.1044
12377TIP3    H258547   5.443   3.357   4.181  1.0210  0.3788 -2.8378
12378TIP3   OH258548   5.617   2.019   4.850 -0.3508  0.1004 -0.3867
12378TIP3    H158549   5.639   2.052   4.763  0.6320 -2.1700 -1.0804
12378TIP3    H258550   5.528   1.985   4.840  0.2210 -1.3186 -0.9163
12379TIP3   OH258551   2.971   6.674  15.945  0.2876  0.0472 -0.1414
12379TIP3    H158552   3.051   6.698  15.993 -1.2767 -2.5447  4.4550
12379TIP3    H258553   2.912   6.748  15.959  1.1865  1.1414 -1.8985
12380TIP3   OH258554   2.412   2.923  13.702 -0.2599  0.3539 -0.0856
12380TIP3    H158555   2.433   2.935  13.610  3.2369 -1.7193  0.2324
12380TIP3    H258556   2.430   3.008  13.742 -2.1034  1.3562 -1.2626
12381TIP3   OH258557   4.793   3.310  14.563 -0.0081  0.0618 -0.4693
12381TIP3    H158558   4.805   3.257  14.641 -0.3458  0.3373 -0.2215
12381TIP3    H258559   4.880   3.318  14.525 -0.1583 -1.7897 -1.2616
12382TIP3   OH258560   4.574   1.126   0.530 -0.0920 -0.1313 -0.0680
12382TIP3    H158561   4.553   1.151   0.620  0.6460  0.4540 -0.0518
12382TIP3    H258562   4.490   1.125   0.485 -0.4081  0.0535  0.5097
12383TIP3   OH258563   5.133   3.437  15.708  0.1497 -0.6439 -0.1392
12383TIP3    H158564   5.095   3.497  15.772  0.1157 -0.8800  0.0618
12383TIP3    H258565   5.203   3.487  15.666  2.9498 -1.7024  2.8519
12384TIP3   OH258566   0.681   1.740   2.063 -0.9290  0.1301  0.4540
12384TIP3    H158567   0.758   1.774   2.109  0.8482 -2.0112 -0.7705
12384TIP3    H258568   0.660   1.807   1.998  0.2291  0.5279  0.4729
12385TIP3   OH258569   6.543   2.430  11.948 -0.7310  0.4051 -0.2831
12385TIP3    H158570   6.542   2.416  12.043  0.8100 -1.3560 -0.4701
12385TIP3    H258571   6.490   2.358  11.913 -0.1982  0.2646 -0.8185
12386TIP3   OH258572   2.514   6.009  13.436 -0.2607  0.5144 -0.1106
12386TIP3    H158573   2.544   6.036  13.523  3.0710  0.9436 -1.2507
12386TIP3    H258574   2.478   6.090  13.397 -1.5229  0.3774  0.7079
12387TIP3   OH258575   2.416   2.434  11.240  0.4134  0.2169  0.8298
12387TIP3    H158576   2.355   2.508  11.250 -0.5680 -0.4360 -0.1401
12387TIP3    H258577   2.403   2.404  11.151  1.8758 -0.2239  0.7449
12388TIP3   OH258578   2.724   3.412  17.039  0.3492  0.2746  0.2569
12388TIP3    H158579   2.705   3.488  16.985  0.7640 -0.1420 -0.4994
12388TIP3    H258580   2.750   3.448  17.124  0.0782  0.9522  0.0578
12389TIP3   OH258581   3.835   5.188  11.611  0.3305  0.9638  0.2934
12389TIP3    H158582   3.874   5.105  11.638  0.7401  0.5227 -1.5268
12389TIP3    H258583   3.910   5.246  11.597  0.2563  0.7518 -1.1707
12390TIP3   OH258584   6.753   5.770  12.774 -0.6182  0.4304 -0.4932
12390TIP3    H158585   6.712   5.701  12.721  1.2087  0.5009 -2.1405
12390TIP3    H258586   6.791   5.723  12.849 -2.0508  0.1199  0.0634
12391TIP3   OH258587   1.251   1.938  13.750  0.2290 -0.1389  0.4177
12391TIP3    H158588   1.329   1.994  13.745 -0.2926  0.4901 -2.0954
12391TIP3    H258589   1.255   1.885  13.671 -1.7331 -0.2985  0.3911
12392TIP3   OH258590   6.695   6.164  14.083  0.0031 -0.3016 -0.1916
12392TIP3    H158591   6.657   6.250  14.099 -2.7190 -1.5497  0.6231
12392TIP3    H258592   6.774   6.162  14.137  0.2816  1.7425 -0.4499
12393TIP3   OH258593   2.789   4.931   3.169  0.0413  0.7359 -0.4929
12393TIP3    H158594   2.765   4.855   3.222  0.9832  0.0947 -0.9677
12393TIP3    H258595   2.884   4.938   3.178  0.0953  1.1913 -1.3416
12394TIP3   OH258596   0.483   2.527  16.051 -0.0698  0.1186 -0.0861
12394TIP3    H158597   0.459   2.605  16.101 -2.9345 -1.5614  1.4042
12394TIP3    H258598   0.462   2.549  15.960 -1.2959  0.9512  0.3744
12395TIP3   OH258599   6.479   6.343  11.054 -0.5096  0.3062  0.0087
12395TIP3    H158600   6.564   6.387  11.053 -1.0048  1.4127  1.6674
12395TIP3    H258601   6.440   6.369  11.138 -0.3544 -4.2443  1.7797
12396TIP3   OH258602   3.970   5.534  16.970  0.1789 -0.5487  0.2227
12396TIP3    H158603   4.036   5.557  17.035 -1.6341 -0.9971  2.3304
12396TIP3    H258604   3.916   5.467  17.013 -2.6188  0.9315 -0.7467
12397TIP3   OH258605   1.449   6.588   6.418 -0.3017  0.1947  0.5969
12397TIP3    H158606   1.527   6.533   6.409  0.6882  1.6460 -0.1163
12397TIP3    H258607   1.481   6.669   6.459 -1.1350  1.3250 -0.8804
12398TIP3   OH258608   5.391   1.190   1.689  0.3390 -0.2952 -0.1303
12398TIP3    H158609   5.360   1.254   1.754  0.5017 -0.5998  0.2510
12398TIP3    H258610   5.324   1.191   1.620 -0.1170 -0.3675  0.3037
12399TIP3   OH258611   1.474   0.115   0.317 -0.4876  0.4243 -0.4524
12399TIP3    H158612   1.488   0.077   0.404 -3.1896 -0.6117 -0.3762
12399TIP3    H258613   1.505   0.048   0.256  2.1655  1.4687 -0.4103
12400TIP3   OH258614   0.736   0.208  14.627  0.2766  0.1187 -0.1444
12400TIP3    H158615   0.643   0.205  14.604  0.2950  2.4292 -0.7470
12400TIP3    H258616   0.772   0.280  14.575  1.9521  0.6944  1.6710
12401TIP3   OH258617   3.052   3.682   5.200  0.2314 -0.0150 -0.2807
12401TIP3    H158618   2.969   3.727   5.186 -0.3810 -1.6513 -2.3853
12401TIP3    H258619   3.100   3.695   5.118 -0.2566 -3.6419 -1.2800
12402TIP3   OH258620   0.386   5.262  13.298  0.3008  0.2756 -0.1699
12402TIP3    H158621   0.296   5.249  13.328  0.0825 -0.5368 -1.0986
12402TIP3    H258622   0.441   5.241  13.374 -0.2380 -1.3526 -0.2005
12403TIP3   OH258623   2.847   2.352  16.945  0.1213  0.5282 -0.1290
12403TIP3    H158624   2.757   2.320  16.956  0.4437 -0.3394  0.0468
12403TIP3    H258625   2.854   2.423  17.009 -0.3032  0.3096  0.1739
12404TIP3   OH258626   0.182   4.519  15.509  0.4853  0.5554  0.6582
12404TIP3    H158627   0.181   4.489  15.418 -2.8722  0.3790  0.6137
12404TIP3    H258628   0.271   4.500  15.540  1.4472 -0.2353 -2.2696
12405TIP3   OH258629   4.481   3.513   3.352  0.0609 -0.5320  0.0841
12405TIP3    H158630   4.538   3.558   3.289  1.6126 -2.1161  0.2812
12405TIP3    H258631   4.499   3.420   3.338 -0.8747 -0.9801  1.6646
12406TIP3   OH258632   1.281   3.479  11.536 -0.0376 -0.1012  0.1148
12406TIP3    H158633   1.188   3.464  11.518 -0.6110  1.0255  1.8737
12406TIP3    H258634   1.310   3.535  11.464 -0.7543 -0.3139 -0.3594
12407TIP3   OH258635   6.649   6.694  14.170  0.6119 -1.0746 -0.3819
12407TIP3    H158636   6.632   6.718  14.261  1.0025 -0.6371 -0.4201
12407TIP3    H258637   6.738   6.725  14.154  0.4576 -0.9427 -0.9861
12408TIP3   OH258638   0.889   3.780   3.326  0.5416 -0.3845  0.1430
12408TIP3    H158639   0.948   3.772   3.251  2.4789  1.5518  1.3291
12408TIP3    H258640   0.874   3.874   3.335  1.3155 -0.4114  2.7868
12409TIP3   OH258641   0.189   5.684   5.346 -0.0427 -0.0657  0.1389
12409TIP3    H158642   0.246   5.758   5.365 -1.2700  0.9649 -0.0555
12409TIP3    H258643   0.140   5.670   5.427  0.3291 -0.8339  0.2477
12410TIP3   OH258644   0.577   4.567   5.762  0.2533 -0.0143 -0.0822
12410TIP3    H158645   0.613   4.656   5.756  1.5234 -0.5657 -0.9012
12410TIP3    H258646   0.588   4.542   5.853 -0.4799  0.7988  0.2499
12411TIP3   OH258647   6.504   0.231  11.641 -0.6694 -0.3970  0.1140
12411TIP3    H158648   6.486   0.284  11.563 -1.2395 -0.6318  0.0828
12411TIP3    H258649   6.423   0.232  11.691 -0.0891  0.3579  1.0870
12412TIP3   OH258650   5.477   4.894   5.424 -0.0564  0.2641  0.1501
12412TIP3    H158651   5.454   4.897   5.517  0.0883  0.4321  0.1796
12412TIP3    H258652   5.407   4.941   5.380  1.9149  3.9175  0.5434
12413TIP3   OH258653   3.588   3.394   2.864  0.3769 -0.1055 -0.5214
12413TIP3    H158654   3.531   3.369   2.791  0.3933  1.0677 -0.9660
12413TIP3    H258655   3.647   3.320   2.875  1.5530  0.3873 -2.8962
12414TIP3   OH258656   5.749   1.466  14.033 -0.0829  0.0134 -0.0360
12414TIP3    H158657   5.654   1.463  14.023  0.0319 -1.1003 -0.9893
12414TIP3    H258658   5.783   1.465  13.943  0.8176  1.9975  0.2412
12415TIP3   OH258659   2.915   1.024  13.091 -0.4564  0.0590 -0.5716
12415TIP3    H158660   2.883   0.936  13.071  0.6563  0.1432 -3.0752
12415TIP3    H258661   2.897   1.075  13.012 -0.8198  2.0602  0.7091
12416TIP3   OH258662   1.138   2.534  16.656 -0.0376 -0.0903  0.1282
12416TIP3    H158663   1.190   2.597  16.707 -2.3714  1.4202  0.7779
12416TIP3    H258664   1.096   2.480  16.723 -0.4749 -0.3046 -0.3238
12417TIP3   OH258665   6.026   6.749  15.005 -0.2619  0.3242  0.2065
12417TIP3    H158666   5.963   6.689  14.965 -0.5207  1.4440 -1.1298
12417TIP3    H258667   6.097   6.692  15.035 -1.3858 -0.8457  0.7854
12418TIP3   OH258668   2.297   1.057   4.631 -0.2042 -0.1311 -0.5735
12418TIP3    H158669   2.267   0.967   4.640 -0.0492 -0.3114 -1.6642
12418TIP3    H258670   2.392   1.051   4.632 -0.1914  0.1406  0.3267
12419TIP3   OH258671   1.529   5.503   2.443 -0.2136 -0.1732 -0.0353
12419TIP3    H158672   1.482   5.507   2.360 -0.5042 -0.0138  0.1349
12419TIP3    H258673   1.558   5.412   2.450  0.1377 -0.0999 -0.4880
12420TIP3   OH258674   0.556   1.093   1.386  0.3841 -0.2261 -0.0247
12420TIP3    H158675   0.612   1.138   1.324 -0.6225  1.6249  0.3545
12420TIP3    H258676   0.548   1.153   1.460  0.0374 -1.5881  1.1022
12421TIP3   OH258677   4.148   6.430   5.197 -0.0545  0.0124  0.0203
12421TIP3    H158678   4.057   6.435   5.227  0.0083 -2.0165  0.6954
12421TIP3    H258679   4.150   6.356   5.137  1.1326  0.1282 -0.1128
12422TIP3   OH258680   4.587   0.662  12.854  0.7120 -0.0403  1.1807
12422TIP3    H158681   4.673   0.704  12.846  1.0363 -0.8766 -0.1109
12422TIP3    H258682   4.550   0.667  12.766 -1.0784  1.3086  1.9545
12423TIP3   OH258683   4.911   4.670  11.537 -0.3491  0.1024 -0.1785
12423TIP3    H158684   4.993   4.643  11.495 -0.2970  1.1991 -0.8257
12423TIP3    H258685   4.843   4.618  11.492 -0.2925  1.2357 -1.6623
12424TIP3   OH258686   0.360   4.990  14.255  0.4096  0.0171  0.0736
12424TIP3    H158687   0.339   4.900  14.277 -1.1359  0.8670  2.4609
12424TIP3    H258688   0.381   4.988  14.161 -2.3634 -2.3608 -0.6281
12425TIP3   OH258689   0.573   1.931  16.081  0.3842 -0.0274  0.2108
12425TIP3    H158690   0.602   1.914  15.992 -1.3606 -1.0546 -0.1951
12425TIP3    H258691   0.653   1.958  16.127  1.3688  0.2473 -1.5666
12426TIP3   OH258692   6.113   2.218  10.747 -0.2122 -0.1711 -0.3234
12426TIP3    H158693   6.170   2.283  10.789  0.5603 -0.3280 -1.0948
12426TIP3    H258694   6.031   2.264  10.730 -0.4007  0.0043  0.9899
12427TIP3   OH258695   2.790   2.720  11.285  0.9299  0.4368 -0.5415
12427TIP3    H158696   2.820   2.775  11.212 -1.0313  0.3551 -1.4891
12427TIP3    H258697   2.806   2.630  11.255  0.9014  0.4267 -0.5269
12428TIP3   OH258698   1.498   0.391  12.647 -0.2886  0.0288 -0.7261
12428TIP3    H158699   1.519   0.305  12.611 -0.4446 -0.8714  1.2167
12428TIP3    H258700   1.582   0.429  12.671 -0.3395 -0.6417  0.6328
12429TIP3   OH258701   4.902   2.761   2.614  0.3628 -0.0651 -0.3633
12429TIP3    H158702   4.950   2.802   2.542  0.6356 -1.1895 -0.8380
12429TIP3    H258703   4.970   2.729   2.673  0.1913  2.9845  1.7384
12430TIP3   OH258704   1.472   2.890   0.920  0.1043  0.7310  0.1990
12430TIP3    H158705   1.387   2.867   0.955 -0.0619  1.0203 -0.0073
12430TIP3    H258706   1.484   2.982   0.942 -1.1459  1.6919 -2.6729
12431TIP3   OH258707   0.695   5.714   1.733 -0.0022 -0.5750 -0.4630
12431TIP3    H158708   0.745   5.763   1.666  0.6069  2.3689  1.9029
12431TIP3    H258709   0.627   5.775   1.760  0.7295 -0.9917  2.6400
12432TIP3   OH258710   2.838   4.083  15.808 -0.4256 -0.0579  0.5182
12432TIP3    H158711   2.915   4.071  15.864  0.6309  1.0218 -0.6414
12432TIP3    H258712   2.824   4.178  15.807 -0.8211 -0.1152 -0.5037
12433TIP3   OH258713   5.275   2.419  12.356 -0.7859 -0.2499 -0.1581
12433TIP3    H158714   5.301   2.366  12.280  0.9517 -1.5747  1.2854
12433TIP3    H258715   5.358   2.453  12.390 -1.7773  2.9576 -0.6212
12434TIP3   OH258716   2.423   0.912   3.074 -0.1482 -0.5660 -0.0795
12434TIP3    H158717   2.455   0.877   3.157  1.6114 -1.2397 -0.9901
12434TIP3    H258718   2.484   0.878   3.008 -0.8875  0.7799 -1.5379
12435TIP3   OH258719   0.948   0.400   4.957  0.1853  0.2082  0.0060
12435TIP3    H158720   0.893   0.434   5.027 -0.7437 -0.4794 -0.3586
12435TIP3    H258721   0.973   0.312   4.987  0.4558  0.2286 -0.1591
12436TIP3   OH258722   4.853   5.530  16.607  0.2029 -0.2439  0.5312
12436TIP3    H158723   4.804   5.479  16.542  2.4196 -0.7186 -0.8964
12436TIP3    H258724   4.847   5.620  16.576  1.2552 -0.4697 -0.3761
12437TIP3   OH258725   2.278   3.546  11.227  0.1358  0.6533  0.2967
12437TIP3    H158726   2.302   3.622  11.280  0.3811  1.0684 -0.3898
12437TIP3    H258727   2.319   3.563  11.142 -0.4608  0.1282 -0.1029
12438TIP3   OH258728   1.712   3.046  15.764 -0.3229  0.3871 -0.0488
12438TIP3    H158729   1.706   3.103  15.688 -1.0674  0.0956 -0.2166
12438TIP3    H258730   1.786   3.081  15.815  1.0610 -0.2246 -1.5649
12439TIP3   OH258731   3.587   6.299   3.780 -0.4404  0.1562 -0.4320
12439TIP3    H158732   3.653   6.240   3.744  0.3524  1.3707 -1.0313
12439TIP3    H258733   3.504   6.268   3.743 -0.1880 -1.2454  0.1526
12440TIP3   OH258734   1.295   0.195  12.740 -0.8578 -0.0722  0.1721
12440TIP3    H158735   1.261   0.155  12.659  0.3966  0.3569 -0.5896
12440TIP3    H258736   1.347   0.269  12.710  1.6562 -1.3113  1.1960
12441TIP3   OH258737   1.147   6.241   1.744 -0.1149 -0.5310 -0.1414
12441TIP3    H158738   1.101   6.254   1.661  1.5370  0.0335 -1.0213
12441TIP3    H258739   1.161   6.146   1.748 -1.5105 -0.7396  0.2590
12442TIP3   OH258740   3.275   2.201  16.008 -0.3076 -0.4778  0.4945
12442TIP3    H158741   3.253   2.193  16.101  0.5359 -0.3607  0.7144
12442TIP3    H258742   3.322   2.285  16.002 -0.6833 -0.3062 -0.1017
12443TIP3   OH258743   3.468   1.396   2.971  0.3271  0.0618  0.4613
12443TIP3    H158744   3.491   1.369   2.882 -0.4306  0.7402  0.0385
12443TIP3    H258745   3.548   1.383   3.022  0.8049 -0.2291 -0.3476
12444TIP3   OH258746   2.481   0.370   1.816 -0.1504 -0.2634  0.1450
12444TIP3    H158747   2.403   0.407   1.858  0.6997  2.0164 -0.1146
12444TIP3    H258748   2.472   0.395   1.724  0.7988 -0.0764  0.0925
12445TIP3   OH258749   5.692   5.874   1.543  0.0131  0.0705 -0.1938
12445TIP3    H158750   5.777   5.916   1.528  0.1592  0.4906  1.6329
12445TIP3    H258751   5.628   5.942   1.521  0.1406 -0.0311 -0.9235
12446TIP3   OH258752   2.979   3.270   2.284 -0.3176  0.1338 -0.3590
12446TIP3    H158753   3.024   3.200   2.237 -1.5409 -0.3695 -0.8128
12446TIP3    H258754   2.997   3.252   2.377 -0.2571 -0.5179 -0.4965
12447TIP3   OH258755   3.262   5.663  13.109 -0.1108  0.1554 -0.2060
12447TIP3    H158756   3.264   5.748  13.152 -0.0319  1.2890 -2.2876
12447TIP3    H258757   3.169   5.643  13.099 -0.1434  0.4089 -0.4340
12448TIP3   OH258758   4.790   3.782  12.600 -0.1084  0.2021  0.3899
12448TIP3    H158759   4.751   3.777  12.687  0.1333 -1.0189  0.4388
12448TIP3    H258760   4.728   3.735  12.543 -0.1152  0.7299 -0.0560
12449TIP3   OH258761   3.278   1.863   2.936  0.2379 -0.0715 -0.4032
12449TIP3    H158762   3.351   1.844   2.877  1.6678  0.2273  1.1705
12449TIP3    H258763   3.221   1.921   2.886  1.1791 -0.1569 -1.6324
12450TIP3   OH258764   5.247   2.078  13.861 -0.6368  0.1121 -0.0811
12450TIP3    H158765   5.247   2.174  13.868 -1.7627  0.1069  0.1223
12450TIP3    H258766   5.338   2.056  13.842 -0.0459  1.1167  1.3809
12451TIP3   OH258767   4.453   5.349  16.863  0.5224 -0.2077 -0.3205
12451TIP3    H158768   4.369   5.356  16.817 -0.1769  0.1338  0.9437
12451TIP3    H258769   4.516   5.393  16.806  0.1490 -1.6912 -1.9547
12452TIP3   OH258770   0.772   2.313  11.657  0.0834  0.2340 -0.0252
12452TIP3    H158771   0.838   2.257  11.696 -0.9784 -1.4210 -0.5152
12452TIP3    H258772   0.690   2.264  11.665 -0.9888  1.9045 -0.0780
12453TIP3   OH258773   1.629   0.876   1.464  0.1588  0.6738 -0.5066
12453TIP3    H158774   1.678   0.863   1.546 -0.8436  1.8037  0.3063
12453TIP3    H258775   1.537   0.863   1.488 -0.0038 -1.6456 -2.0600
12454TIP3   OH258776   0.870   4.850  12.553 -0.1905  0.4789 -0.3395
12454TIP3    H158777   0.957   4.861  12.590 -0.0364  0.5604 -0.7169
12454TIP3    H258778   0.856   4.756  12.550 -1.1859  0.4780  2.1621
12455TIP3   OH258779   6.032   5.389  14.523 -0.1560  0.1723 -0.0891
12455TIP3    H158780   5.970   5.361  14.591  1.5018 -1.1502  0.9850
12455TIP3    H258781   5.996   5.471  14.490 -1.6528  0.2635  1.5781
12456TIP3   OH258782   3.685   5.781   4.293 -0.2557 -0.2282 -0.6772
12456TIP3    H158783   3.605   5.833   4.285 -1.0987 -1.2179  0.8905
12456TIP3    H258784   3.734   5.824   4.363  0.2592 -0.0774 -1.1178
12457TIP3   OH258785   0.929   3.079   0.430  0.1184  0.2156  0.0142
12457TIP3    H158786   0.845   3.093   0.386 -0.1875  1.9374  1.0424
12457TIP3    H258787   0.926   3.137   0.506  1.4337 -1.1870  1.2038
12458TIP3   OH258788   0.974   4.069   0.024  0.0651  0.6343 -0.3676
12458TIP3    H158789   0.969   4.074  -0.071  0.3256  0.1441 -0.4084
12458TIP3    H258790   0.909   4.003   0.049 -0.7059  1.4706 -0.1211
12459TIP3   OH258791   5.328   1.187   6.138  0.8285 -0.1654  0.2038
12459TIP3    H158792   5.337   1.278   6.113 -0.5835 -0.3061 -0.9131
12459TIP3    H258793   5.418   1.153   6.138  1.2115  0.7860 -1.0643
12460TIP3   OH258794   1.892   5.897  12.042  0.1923 -0.1534 -0.2452
12460TIP3    H158795   1.896   5.984  12.004  0.7154 -0.0288  0.0801
12460TIP3    H258796   1.924   5.839  11.972  0.8369  0.0371 -0.1205
12461TIP3   OH258797   4.411   6.638   5.392  0.4954  0.2223 -0.4354
12461TIP3    H158798   4.343   6.662   5.455  0.0666 -0.8899 -0.4527
12461TIP3    H258799   4.376   6.665   5.307  0.3780  0.2793 -0.3686
12462TIP3   OH258800   4.869   6.290  14.287  0.3153 -0.1313  0.2305
12462TIP3    H158801   4.918   6.372  14.278 -0.5977  0.2576 -1.6683
12462TIP3    H258802   4.913   6.244  14.358  2.0134  1.1843  0.1023
12463TIP3   OH258803   3.343   2.061  12.066  0.0896 -0.0821  0.1546
12463TIP3    H158804   3.326   2.155  12.078 -2.2800 -0.5631  1.2230
12463TIP3    H258805   3.402   2.039  12.138  0.3890  0.5112  0.1036
12464TIP3   OH258806   0.538   4.149  13.064  0.6158  0.6726 -0.2107
12464TIP3    H158807   0.611   4.091  13.043  0.4749  0.4146  0.0145
12464TIP3    H258808   0.542   4.159  13.159 -1.2487 -1.5103  0.1872
12465TIP3   OH258809   3.951   6.539  13.816 -0.1926  0.1190  0.1137
12465TIP3    H158810   3.893   6.611  13.793 -0.2174 -0.0028 -0.2139
12465TIP3    H258811   3.901   6.460  13.796  0.2233  0.0109 -0.5563
12466TIP3   OH258812   5.433   6.146   4.038 -0.0177  0.2875 -0.0527
12466TIP3    H158813   5.463   6.113   3.954  0.2948  1.8842 -0.6023
12466TIP3    H258814   5.337   6.150   4.030 -0.0091  0.1686 -0.2129
12467TIP3   OH258815   3.431   3.307  13.602  0.1463  0.2459 -0.5110
12467TIP3    H158816   3.478   3.236  13.558  0.0072 -0.1985  0.0457
12467TIP3    H258817   3.364   3.263  13.655  1.9680  0.5143  2.2593
12468TIP3   OH258818   2.151   6.706  14.480  0.1436  0.4662 -0.2359
12468TIP3    H158819   2.195   6.790  14.487  2.6277 -0.5370 -2.2862
12468TIP3    H258820   2.061   6.723  14.508  1.0647  3.2971  1.3420
12469TIP3   OH258821   3.156   3.432  16.710  0.2747  0.3835 -0.0583
12469TIP3    H158822   3.192   3.415  16.797 -1.5362 -2.8055  0.2335
12469TIP3    H258823   3.210   3.379  16.652 -0.1777  0.3779 -0.4773
12470TIP3   OH258824   0.546   1.407   4.790 -0.2694  0.7414 -0.2596
12470TIP3    H158825   0.592   1.324   4.781 -0.0367  0.8260  0.1090
12470TIP3    H258826   0.522   1.432   4.701 -0.0713  0.4306 -0.3992
12471TIP3   OH258827   4.372   0.937   4.251 -0.2037 -0.1531  0.2880
12471TIP3    H158828   4.427   1.015   4.252 -1.1479  0.5370  0.6841
12471TIP3    H258829   4.283   0.971   4.264 -0.9636 -1.0467 -2.1319
12472TIP3   OH258830   6.206   2.097   2.897  0.0622  0.0008 -0.3661
12472TIP3    H158831   6.288   2.067   2.858  0.0278  1.6010 -1.7723
12472TIP3    H258832   6.232   2.164   2.960 -0.0998 -0.3114  0.0385
12473TIP3   OH258833   2.688   0.156   0.941 -0.3963 -0.4389  0.3760
12473TIP3    H158834   2.682   0.063   0.921  1.0016 -0.5616  0.4256
12473TIP3    H258835   2.634   0.199   0.874 -4.0069 -1.4207  2.3789
12474TIP3   OH258836   3.818   5.373  16.520 -0.6388 -0.3567 -0.1120
12474TIP3    H158837   3.854   5.428  16.450  0.8366  0.3167  1.1073
12474TIP3    H258838   3.746   5.326  16.479  0.9992 -0.9941 -2.4517
12475TIP3   OH258839   0.812   4.590   0.242 -0.2103 -0.1703  0.2489
12475TIP3    H158840   0.830   4.570   0.334 -0.8130 -1.4754  0.1117
12475TIP3    H258841   0.719   4.567   0.231 -0.1339 -0.0383 -0.6875
12476TIP3   OH258842   4.488   5.774   0.037 -0.2237  0.0861  0.2896
12476TIP3    H158843   4.444   5.690   0.026 -0.2419  0.0288  0.7572
12476TIP3    H258844   4.431   5.837  -0.006 -0.3545 -0.1023  0.1851
12477TIP3   OH258845   5.578   6.331   5.305 -0.0438  0.4494  0.7075
12477TIP3    H158846   5.638   6.323   5.379  0.3150 -0.5913  0.3339
12477TIP3    H258847   5.547   6.242   5.290 -0.5172  0.7350 -0.0643
12478TIP3   OH258848   0.083   3.506  13.382 -0.0828 -0.6533  0.1358
12478TIP3    H158849   0.111   3.423  13.341  0.8672 -0.7588  0.9401
12478TIP3    H258850   0.160   3.563  13.375 -0.0506 -0.5182  1.3212
12479TIP3   OH258851   2.476   6.265  14.385  0.1956 -0.2147 -1.0892
12479TIP3    H158852   2.498   6.359  14.384  1.0584 -0.3922 -0.2586
12479TIP3    H258853   2.476   6.242  14.478 -1.6276 -0.6960 -1.1776
12480TIP3   OH258854   1.550   5.234   5.607 -0.0130 -0.3739 -0.0254
12480TIP3    H158855   1.467   5.235   5.560  0.2798  0.8126 -0.5488
12480TIP3    H258856   1.558   5.322   5.645 -0.2653 -1.2779  2.3431
12481TIP3   OH258857   6.420   2.729   2.895 -0.1437  0.0633  0.2036
12481TIP3    H158858   6.512   2.713   2.874 -0.0900  0.3603  0.2111
12481TIP3    H258859   6.421   2.812   2.943 -0.5609  0.7262 -0.9163
12482TIP3   OH258860   3.981   4.947  11.682  0.3216  0.0390 -0.3128
12482TIP3    H158861   4.023   4.888  11.745 -0.3808 -0.9225 -0.7075
12482TIP3    H258862   4.052   4.978  11.626  0.5840 -1.1973 -0.6920
12483TIP3   OH258863   3.016   6.407   2.843  0.0765  0.8365  0.2660
12483TIP3    H158864   3.075   6.352   2.791 -1.9973 -0.0167 -1.3029
12483TIP3    H258865   3.043   6.497   2.822  0.2245  0.4803 -1.1861
12484TIP3   OH258866   2.350   6.105  13.973 -0.0670 -0.0386 -0.2852
12484TIP3    H158867   2.312   6.021  14.000 -2.8537  0.6213 -1.7666
12484TIP3    H258868   2.432   6.110  14.021 -1.7629 -1.7038  3.1775
12485TIP3   OH258869   0.518   6.193   3.453 -0.0964 -0.5160 -0.2922
12485TIP3    H158870   0.556   6.113   3.414  0.9317 -0.2017  0.0223
12485TIP3    H258871   0.589   6.257   3.447 -0.4092 -0.0559  0.8043
12486TIP3   OH258872   3.008   4.403   5.568  0.8308 -0.1264 -0.0281
12486TIP3    H158873   2.949   4.453   5.624  0.0167 -1.1669  0.0736
12486TIP3    H258874   2.952   4.335   5.529  2.3193 -2.5374  1.7336
12487TIP3   OH258875   3.805   5.729  15.539 -0.0648  0.2043  0.1353
12487TIP3    H158876   3.864   5.764  15.472 -0.5191 -1.1929 -1.0436
12487TIP3    H258877   3.861   5.672  15.592  0.5286  2.0740  1.6598
12488TIP3   OH258878   6.022   3.608  12.473 -0.3877  0.5608 -0.0621
12488TIP3    H158879   6.027   3.704  12.468  0.7661  0.8307  3.3697
12488TIP3    H258880   6.077   3.577  12.401  0.2347  2.5019 -0.4829
12489TIP3   OH258881   5.441   1.774  12.917  0.3038 -0.2566  0.1491
12489TIP3    H158882   5.377   1.802  12.853  1.5327  0.0020 -1.0209
12489TIP3    H258883   5.483   1.698  12.877  0.0217 -1.0592  1.3476
12490TIP3   OH258884   2.335   4.000   3.151 -0.2257  0.0083  0.6485
12490TIP3    H158885   2.328   3.971   3.242  0.2960  0.3990  0.8194
12490TIP3    H258886   2.290   3.932   3.100 -1.2719  0.2205  1.2708
12491TIP3   OH258887   2.437   1.912   0.764 -0.0312  0.0041 -0.0466
12491TIP3    H158888   2.354   1.925   0.718  0.3397  0.8429 -0.4930
12491TIP3    H258889   2.441   1.817   0.779 -2.7429  0.2030  3.1322
12492TIP3   OH258890   1.143   5.505  15.755  0.2406 -0.3519 -0.3492
12492TIP3    H158891   1.086   5.521  15.679  0.6691 -2.7213 -1.2461
12492TIP3    H258892   1.100   5.434  15.802  1.7002 -1.1981 -0.2457
12493TIP3   OH258893   2.987   3.530   2.180  0.0259 -0.8620 -0.0635
12493TIP3    H158894   2.971   3.442   2.213 -0.6802 -1.6402 -2.3429
12493TIP3    H258895   3.077   3.527   2.145  0.0427 -0.6350 -0.0416
12494TIP3   OH258896   5.431   0.689   3.167 -0.3499  0.5079  0.3167
12494TIP3    H158897   5.354   0.637   3.149 -1.2523  1.3693  1.5017
12494TIP3    H258898   5.447   0.739   3.087 -1.6699  1.1120  0.4186
12495TIP3   OH258899   4.890   2.458   1.353  0.1027 -0.4648  0.0984
12495TIP3    H158900   4.930   2.409   1.281  0.9469  1.8728 -1.1257
12495TIP3    H258901   4.962   2.510   1.390 -1.1347  1.5585 -0.1782
12496TIP3   OH258902   3.095   3.163   4.800 -0.2177 -0.7581  0.3732
12496TIP3    H158903   3.031   3.192   4.735 -1.0444  0.3582  1.6430
12496TIP3    H258904   3.066   3.203   4.882  1.6621 -0.8823  1.1418
12497TIP3   OH258905   6.622   3.457   5.435 -0.2530  0.6720  0.4473
12497TIP3    H158906   6.645   3.463   5.528 -0.5366 -1.1985  0.6823
12497TIP3    H258907   6.536   3.499   5.429 -0.5385  0.2150  1.1759
12498TIP3   OH258908   5.936   1.160  12.824  0.0217  0.0447 -0.5562
12498TIP3    H158909   6.008   1.097  12.834 -0.0675 -0.0781 -0.6754
12498TIP3    H258910   5.933   1.177  12.730 -0.4964 -0.4143 -0.6268
12499TIP3   OH258911   1.280   2.902   1.743  0.2621  0.2331 -0.6325
12499TIP3    H158912   1.315   2.985   1.775  2.4439 -0.4039 -1.1888
12499TIP3    H258913   1.216   2.875   1.810  0.4045  1.7470  0.1517
12500TIP3   OH258914   6.245   6.242  15.875  0.3417 -0.1420 -0.6169
12500TIP3    H158915   6.309   6.238  15.945 -0.2539 -3.0632 -0.1110
12500TIP3    H258916   6.168   6.283  15.915  1.2209  1.7266 -0.7281
12501TIP3   OH258917   4.422   0.292  13.370  0.1041  0.2571  0.1303
12501TIP3    H158918   4.354   0.358  13.358  0.5422  0.6029 -0.5951
12501TIP3    H258919   4.494   0.339  13.412  0.7280  0.4701 -1.1246
12502TIP3   OH258920   1.450   3.024   2.604  0.4465  0.1295 -0.0905
12502TIP3    H158921   1.449   3.114   2.636 -0.3117 -0.1768  0.8059
12502TIP3    H258922   1.447   2.970   2.683  2.4974 -0.7317 -0.5256
12503TIP3   OH258923   5.508   1.837  14.783 -0.0771  0.1444 -0.3706
12503TIP3    H158924   5.599   1.812  14.802  0.1704 -0.9440 -2.6654
12503TIP3    H258925   5.495   1.918  14.832  1.7142 -0.3262  1.0076
12504TIP3   OH258926   6.181   6.466   0.419  0.1311 -0.3805  0.3352
12504TIP3    H158927   6.261   6.465   0.472 -0.1507  0.7434  0.8153
12504TIP3    H258928   6.192   6.542   0.362 -0.7107 -0.0674  0.5852
12505TIP3   OH258929   6.339   4.583   1.438 -0.8899 -0.1035  0.0222
12505TIP3    H158930   6.383   4.633   1.507 -1.3400  1.0440 -0.4982
12505TIP3    H258931   6.351   4.491   1.464  0.7614  0.2151  0.5173
12506TIP3   OH258932   5.708   3.713  15.944 -0.0595 -0.1706  0.3321
12506TIP3    H158933   5.660   3.649  15.892 -0.7808  1.1329 -0.6798
12506TIP3    H258934   5.647   3.740  16.013 -0.2696  0.4209 -0.0762
12507TIP3   OH258935   5.125   3.266   4.057  0.0691  0.4077 -0.2964
12507TIP3    H158936   5.128   3.334   4.125  1.7902  0.8766 -0.7975
12507TIP3    H258937   5.086   3.309   3.981 -1.2017  0.0780  0.1316
12508TIP3   OH258938   0.849   5.995  11.584 -0.0003  0.6139  0.1824
12508TIP3    H158939   0.758   6.013  11.557  0.4274  0.6265 -1.3217
12508TIP3    H258940   0.847   5.907  11.619 -0.4475  0.2718 -0.6712
12509TIP3   OH258941   4.776   6.268  12.059 -0.0398  0.5740 -0.6668
12509TIP3    H158942   4.834   6.325  12.108  0.4686 -1.5189  1.3752
12509TIP3    H258943   4.690   6.308  12.066  0.5072  1.7451 -0.4779
12510TIP3   OH258944   5.619   2.233   1.296  0.1319 -0.0850  0.1140
12510TIP3    H158945   5.557   2.204   1.230 -0.7488  0.3669  0.7208
12510TIP3    H258946   5.661   2.152   1.327 -0.3960 -0.4341 -0.0686
12511TIP3   OH258947   5.567   3.273   5.412 -0.2007  0.0825 -0.3161
12511TIP3    H158948   5.497   3.275   5.477 -0.7131 -2.7261 -0.6399
12511TIP3    H258949   5.533   3.325   5.339 -1.8690 -0.9584 -0.3341
12512TIP3   OH258950   1.617   5.417  16.137 -0.2477  0.6809 -0.3446
12512TIP3    H158951   1.691   5.372  16.176 -0.3138  1.8700  1.2455
12512TIP3    H258952   1.623   5.397  16.043  2.5278  1.3527 -0.3899
12513TIP3   OH258953   3.325   4.661  13.330 -0.4735 -0.1885 -0.1250
12513TIP3    H158954   3.410   4.620  13.347 -0.2394  0.4013  0.1493
12513TIP3    H258955   3.341   4.755  13.339 -1.2680 -0.0980  0.4564
12514TIP3   OH258956   6.095   6.622   2.160  0.2287  0.1949  0.7142
12514TIP3    H158957   6.099   6.677   2.081  1.5854 -0.8900 -0.0147
12514TIP3    H258958   6.130   6.678   2.229  0.5492  0.6432  0.2046
12515TIP3   OH258959   1.719   0.562   6.177 -0.8903 -0.3292 -0.1579
12515TIP3    H158960   1.776   0.580   6.252  0.8247  0.0644 -1.4818
12515TIP3    H258961   1.651   0.629   6.182  0.2947  0.9071  0.0055
12516TIP3   OH258962   0.806   6.713  11.066 -0.2358 -0.3416  0.2195
12516TIP3    H158963   0.843   6.625  11.076 -0.5496 -0.4749  0.1992
12516TIP3    H258964   0.712   6.699  11.055 -0.1459 -0.0762 -0.9741
12517TIP3   OH258965   5.289   2.302  12.060  0.0482  0.8557 -0.2871
12517TIP3    H158966   5.290   2.208  12.076 -1.8625  1.0285  1.1969
12517TIP3    H258967   5.289   2.310  11.964  2.1257 -0.5521 -0.4585
12518TIP3   OH258968   4.089   2.494   1.929 -0.3930 -0.0499 -0.2166
12518TIP3    H158969   4.101   2.578   1.974  0.0580  0.4602 -1.2650
12518TIP3    H258970   4.073   2.518   1.838 -0.9714 -1.0860 -0.4036
12519TIP3   OH258971   3.749   5.947   3.044  0.2797  0.3092 -0.5826
12519TIP3    H158972   3.777   5.932   3.134 -0.3867  0.5808 -0.3240
12519TIP3    H258973   3.677   6.010   3.052  1.4001  1.7797 -1.4287
12520TIP3   OH258974   6.707   0.626  15.396  0.3866 -0.2184  0.3629
12520TIP3    H158975   6.738   0.547  15.441 -0.2913 -0.9439 -0.4028
12520TIP3    H258976   6.614   0.609  15.381  0.4954  0.2129 -0.8724
12521TIP3   OH258977   0.549   3.130   2.097  0.4539  0.2252  0.3238
12521TIP3    H158978   0.552   3.177   2.013 -1.1069  0.6339  0.4733
12521TIP3    H258979   0.488   3.180   2.150 -1.0528 -1.7889  0.6077
12522TIP3   OH258980   2.492   3.666  16.109 -0.4432  0.2969 -0.4253
12522TIP3    H158981   2.421   3.607  16.133 -0.4150  0.9416  1.4065
12522TIP3    H258982   2.572   3.614  16.120 -0.5203  0.1428 -0.5967
12523TIP3   OH258983   0.894   4.988   4.324 -0.2625  0.1846  0.0330
12523TIP3    H158984   0.954   5.062   4.324  0.0283 -0.0462  0.6732
12523TIP3    H258985   0.944   4.917   4.282 -0.6950  0.4683 -0.9776
12524TIP3   OH258986   0.218   5.976   0.446 -0.5392  0.9297 -0.0992
12524TIP3    H158987   0.136   5.932   0.422 -0.2382  0.4459 -0.2585
12524TIP3    H258988   0.235   6.036   0.374  0.5888 -0.8277 -1.3682
12525TIP3   OH258989   2.408   4.225   0.722  0.1628 -0.3281  0.1030
12525TIP3    H158990   2.489   4.246   0.677 -0.3056 -0.3692 -0.7757
12525TIP3    H258991   2.398   4.295   0.787  0.9728 -0.4153  0.3241
12526TIP3   OH258992   5.165   6.018   3.478  0.3236  0.4446 -0.2458
12526TIP3    H158993   5.111   5.968   3.417  0.8586 -0.5421  0.0710
12526TIP3    H258994   5.252   6.019   3.439  0.8089 -0.6876  0.7474
12527TIP3   OH258995   3.693   4.351  11.346  0.0605 -0.1847  0.3292
12527TIP3    H158996   3.677   4.313  11.432  0.3679 -1.7800 -0.2802
12527TIP3    H258997   3.775   4.311  11.317 -1.9851 -2.9387 -2.3869
12528TIP3   OH258998   2.029   5.699  13.514 -0.1074  0.2432  0.2579
12528TIP3    H158999   2.032   5.603  13.504  0.0256  0.1265  1.2893
12528TIP3    H259000   1.968   5.728  13.447  1.6878 -0.3019 -1.7320
12529TIP3   OH259001   4.237   4.951   5.797 -0.1361  0.1294 -0.1499
12529TIP3    H159002   4.152   4.977   5.832 -1.0515 -0.6979 -1.6552
12529TIP3    H259003   4.238   4.855   5.807  0.6667  0.1463 -0.0383
12530TIP3   OH259004   4.861   0.688  16.075 -0.4049  0.3652 -0.3277
12530TIP3    H159005   4.951   0.656  16.068 -0.3035  0.8048 -1.1726
12530TIP3    H259006   4.824   0.640  16.149  0.7662  0.7528  0.5450
12531TIP3   OH259007   4.151   4.782   3.134  0.0387 -0.3530  0.0244
12531TIP3    H159008   4.191   4.735   3.060  1.0005  0.6378 -0.1198
12531TIP3    H259009   4.057   4.779   3.116  0.2082 -0.6884 -0.9010
12532TIP3   OH259010   2.899   0.889  15.261 -0.5291  0.4762  0.1793
12532TIP3    H159011   2.878   0.970  15.215 -1.3021  0.4458  0.4726
12532TIP3    H259012   2.923   0.828  15.192 -0.7828  0.7023 -0.1129
12533TIP3   OH259013   4.830   3.917   3.829  0.6566 -0.0398 -0.0236
12533TIP3    H159014   4.796   3.844   3.779  2.5990 -0.7703 -0.3709
12533TIP3    H259015   4.796   3.995   3.785 -0.8441 -0.7052 -0.0857
12534TIP3   OH259016   3.989   0.124   0.455  0.1598  0.0397  0.1205
12534TIP3    H159017   3.981   0.188   0.526 -1.2882  0.5307 -0.4466
12534TIP3    H259018   3.985   0.039   0.499  0.2970  0.3385  0.7225
12535TIP3   OH259019   1.610   3.650  12.200  0.3035 -0.2448 -0.3172
12535TIP3    H159020   1.610   3.574  12.143  0.9034 -0.9974  0.6576
12535TIP3    H259021   1.692   3.644  12.249 -0.4618  0.0099  1.0718
12536TIP3   OH259022   0.839   3.693   2.277 -0.5129 -0.4799 -0.4312
12536TIP3    H159023   0.863   3.707   2.186  1.0645 -1.3272 -0.1750
12536TIP3    H259024   0.908   3.736   2.327 -2.3173  1.5995  0.4458
12537TIP3   OH259025   6.113   0.542  12.917  0.2638  0.1857  0.4016
12537TIP3    H159026   6.032   0.558  12.869  0.0345 -0.9941  0.3653
12537TIP3    H259027   6.182   0.551  12.851 -0.0120 -0.9183 -0.0574
12538TIP3   OH259028   5.223   4.751  16.572  0.0874  0.0279  0.0977
12538TIP3    H159029   5.134   4.718  16.576  0.3942 -0.6941  2.8421
12538TIP3    H259030   5.221   4.833  16.622  0.3660  1.7620 -2.5204
12539TIP3   OH259031   5.407   0.387   3.232 -0.1367  0.0269 -0.8260
12539TIP3    H159032   5.390   0.307   3.281 -1.7067  0.4194 -0.6715
12539TIP3    H259033   5.361   0.374   3.149 -1.3975  1.2005 -0.3489
12540TIP3   OH259034   4.984   2.470  11.477  0.1645 -0.1332  0.3094
12540TIP3    H159035   4.896   2.505  11.459  0.9501  1.6852 -0.1834
12540TIP3    H259036   4.969   2.403  11.544 -1.7500 -0.8508 -0.7242
12541TIP3   OH259037   4.099   1.463   3.659 -0.2239 -0.3233 -0.3169
12541TIP3    H159038   4.160   1.531   3.685  1.0475 -1.7272  0.5383
12541TIP3    H259039   4.052   1.500   3.584 -0.0716  1.7197  0.5295
12542TIP3   OH259040   4.755   0.182  11.808  0.1824 -0.6044  0.1513
12542TIP3    H159041   4.824   0.184  11.874  1.0124 -0.4113 -0.6965
12542TIP3    H259042   4.683   0.232  11.846  1.0345  0.3794  0.4907
12543TIP3   OH259043   1.128   4.735  12.555 -0.1843  0.2222  0.0213
12543TIP3    H159044   1.175   4.817  12.540  0.0333  1.0762  4.2333
12543TIP3    H259045   1.191   4.667  12.533  1.0388  1.2728  0.1632
12544TIP3   OH259046   6.186   2.393   4.562 -0.6080 -0.5667 -0.1651
12544TIP3    H159047   6.219   2.386   4.472  0.7206 -0.7279  0.3130
12544TIP3    H259048   6.141   2.477   4.565 -1.0908 -0.7742 -1.1037
12545TIP3   OH259049   6.021   2.484  16.007 -0.0697  0.1408 -0.0850
12545TIP3    H159050   5.962   2.496  15.932 -0.2416 -0.3783 -0.0372
12545TIP3    H259051   6.107   2.512  15.975 -0.3333  0.9258 -0.1504
12546TIP3   OH259052   0.863   6.760  17.117 -0.1983  0.2291 -0.0909
12546TIP3    H159053   0.954   6.731  17.122 -0.2939  0.0866  1.1713
12546TIP3    H259054   0.834   6.734  17.029  1.2628  1.1799 -0.8748
12547TIP3   OH259055   4.996   6.767  13.860 -0.3059 -0.1987  0.3384
12547TIP3    H159056   4.910   6.727  13.849  0.1891 -0.8981 -1.4085
12547TIP3    H259057   5.057   6.693  13.856  0.3965  0.3054  1.3788
12548TIP3   OH259058   6.512   4.125  15.432 -0.3488  0.1539  0.1743
12548TIP3    H159059   6.573   4.185  15.390  0.4344  0.3715  1.5630
12548TIP3    H259060   6.529   4.041  15.391  0.5833  0.3116  0.2208
12549TIP3   OH259061   6.662   5.823   4.252  0.0263  0.3478  0.3967
12549TIP3    H159062   6.585   5.770   4.233  0.4329 -0.4549  0.9130
12549TIP3    H259063   6.705   5.834   4.167  0.3880 -0.8864  0.4028
12550TIP3   OH259064   0.270   6.091   6.154  0.2457 -0.3182 -0.3004
12550TIP3    H159065   0.210   6.017   6.144  0.2258 -0.2947 -0.3511
12550TIP3    H259066   0.282   6.099   6.249  0.1885 -0.3387 -0.2913
12551TIP3   OH259067   2.165   6.500  14.310 -0.9126  0.2659 -0.1988
12551TIP3    H159068   2.179   6.579  14.362 -0.6382  0.8434 -1.1172
12551TIP3    H259069   2.083   6.463  14.343 -0.5252  0.3845  0.9113
12552TIP3   OH259070   0.216   0.421  14.410  0.2966  0.6821  0.5086
12552TIP3    H159071   0.198   0.424  14.317 -1.5849 -2.1003  0.6624
12552TIP3    H259072   0.167   0.345  14.442  3.2215 -0.3020  3.2304
12553TIP3   OH259073   3.669   6.012   1.099  0.0182 -0.4001  0.0026
12553TIP3    H159074   3.758   6.006   1.065 -0.5256  0.4648 -1.6974
12553TIP3    H259075   3.622   6.065   1.035 -1.2483  0.8476  1.8384
12554TIP3   OH259076   5.588   5.389  14.702  0.2120  0.5380 -0.2009
12554TIP3    H159077   5.522   5.414  14.637 -1.2611  1.1404  1.4355
12554TIP3    H259078   5.539   5.340  14.768  1.1230  2.0555  1.7009
12555TIP3   OH259079   0.028   4.960   0.121 -0.5410 -0.0150 -0.8015
12555TIP3    H159080  -0.023   5.038   0.097  0.1756  0.6579 -0.2204
12555TIP3    H259081   0.015   4.950   0.215  0.5634  0.3146 -0.5974
12556TIP3   OH259082   1.940   3.013   1.938 -0.5820 -0.1524  0.5696
12556TIP3    H159083   1.919   3.088   1.883 -1.8553 -1.8994 -1.4578
12556TIP3    H259084   1.855   2.984   1.972 -0.1473 -0.8739  1.0618
12557TIP3   OH259085   2.440   0.392  12.042 -0.2042 -0.9131  0.0653
12557TIP3    H159086   2.480   0.340  11.972 -2.0901 -1.3816 -0.7281
12557TIP3    H259087   2.382   0.453  11.997  0.8321  0.9136  1.0785
12558TIP3   OH259088   1.644   4.298  15.310 -0.3653 -0.1471 -0.1429
12558TIP3    H159089   1.724   4.335  15.271  0.3682 -1.2932  0.2203
12558TIP3    H259090   1.623   4.224  15.253  0.2744 -1.3711  1.1457
12559TIP3   OH259091   5.721   0.672  13.445  0.0805  0.1316  0.0035
12559TIP3    H159092   5.731   0.767  13.449 -1.3575  0.2507  2.2859
12559TIP3    H259093   5.664   0.657  13.370 -0.4000  1.1441  0.1465
12560TIP3   OH259094   4.299   4.072   1.284 -0.3719 -0.0313 -0.6809
12560TIP3    H159095   4.388   4.063   1.318 -0.3632 -0.5169 -0.8252
12560TIP3    H259096   4.298   4.158   1.241  0.1909 -0.2645 -1.1725
12561TIP3   OH259097   1.655   1.856  11.950 -0.3843 -0.0981 -0.5323
12561TIP3    H159098   1.580   1.875  11.893 -1.9326  0.6972  1.6474
12561TIP3    H259099   1.623   1.792  12.013  0.4641  0.9121  0.9974
12562TIP3   OH259100   5.194   2.852  11.190 -0.0284 -0.0681  0.4900
12562TIP3    H159101   5.273   2.892  11.227  0.0890 -1.5933  2.0154
12562TIP3    H259102   5.225   2.776  11.142 -0.4051  0.6177 -0.8943
12563TIP3   OH259103   5.369   5.281   3.125 -0.2473  0.0246  0.8256
12563TIP3    H159104   5.285   5.327   3.127 -0.2750  0.0277 -0.0686
12563TIP3    H259105   5.397   5.286   3.034  0.1956 -0.9307  0.8966
12564TIP3   OH259106   0.383   1.991   1.284 -0.3709  0.0657 -0.6056
12564TIP3    H159107   0.406   1.901   1.263 -1.1613 -0.2663 -0.0857
12564TIP3    H259108   0.416   2.004   1.373  1.4535  0.9197 -1.3640
12565TIP3   OH259109   4.605   6.506   1.433  0.1560  0.0022  0.5367
12565TIP3    H159110   4.556   6.552   1.364 -0.2122 -1.6793 -0.3934
12565TIP3    H259111   4.537   6.464   1.485  0.4798 -2.8645 -1.1243
12566TIP3   OH259112   5.482   3.099  13.435 -0.2085  0.0062 -0.1790
12566TIP3    H159113   5.519   3.108  13.347 -0.9964 -2.2517 -0.8123
12566TIP3    H259114   5.389   3.080  13.420 -0.7624  1.4076  1.2333
12567TIP3   OH259115   3.568   4.307  13.948  0.4187 -0.2441 -1.0142
12567TIP3    H159116   3.561   4.233  14.009  3.4272 -0.9322 -1.3541
12567TIP3    H259117   3.617   4.374  13.997 -0.9341  0.9470 -1.2388
12568TIP3   OH259118   3.959   5.651   4.643  0.3645  0.0640 -0.1849
12568TIP3    H159119   4.002   5.600   4.711  0.9649  0.1319 -0.5070
12568TIP3    H259120   3.919   5.725   4.689 -0.4404 -0.6426  0.2741
12569TIP3   OH259121   5.221   0.005  16.661 -0.5079 -0.0380 -1.0259
12569TIP3    H159122   5.204  -0.005  16.755  0.2639 -0.8977 -0.9611
12569TIP3    H259123   5.136   0.031  16.624 -0.9404 -0.1760 -0.1669
12570TIP3   OH259124   5.856   3.248   6.015 -0.0652  0.2004 -0.7905
12570TIP3    H159125   5.853   3.173   5.955 -0.0807  0.1193 -0.6875
12570TIP3    H259126   5.935   3.234   6.067 -0.1558  0.1701 -0.6604
12571TIP3   OH259127   4.991   3.273   3.048  0.4598 -0.5946 -0.2897
12571TIP3    H159128   5.054   3.295   2.980  0.3474  1.1211  0.1227
12571TIP3    H259129   5.036   3.207   3.102  0.9462 -1.1778 -1.3690
12572TIP3   OH259130   1.328   5.738  13.771 -0.5007  0.2871 -0.7136
12572TIP3    H159131   1.347   5.749  13.678 -0.2867  0.8496 -0.6081
12572TIP3    H259132   1.236   5.763  13.780 -1.2427 -2.0156 -1.1531
12573TIP3   OH259133   4.794   3.370   4.349 -0.4015  0.3138 -0.0279
12573TIP3    H159134   4.699   3.378   4.347 -0.4398  0.3355  1.1408
12573TIP3    H259135   4.824   3.444   4.402  0.3798  0.9781 -1.3235
12574TIP3   OH259136   4.603   5.540  13.292 -0.1417 -0.0131  0.5278
12574TIP3    H159137   4.597   5.616  13.233  0.3856 -0.1025  0.3483
12574TIP3    H259138   4.534   5.481  13.262 -0.4041  0.3000  0.5185
12575TIP3   OH259139   3.114   2.774   3.964  0.0728  0.5809  0.3514
12575TIP3    H159140   3.203   2.809   3.964  0.9327 -1.4158 -0.6891
12575TIP3    H259141   3.070   2.819   3.892  0.9585 -0.0118 -0.5830
12576TIP3   OH259142   0.995   6.257   0.836 -0.0761 -0.7973  0.7681
12576TIP3    H159143   0.970   6.290   0.922 -0.6226 -0.5798  0.5349
12576TIP3    H259144   0.916   6.268   0.783  0.4408 -0.3427  0.0708
12577TIP3   OH259145   6.782   4.824   5.490 -0.5731 -0.4769  0.1182
12577TIP3    H159146   6.878   4.825   5.491 -0.5731  0.2363  0.9457
12577TIP3    H259147   6.758   4.732   5.499  0.0391 -0.6032  0.5134
12578TIP3   OH259148   5.514   0.209  14.795  1.0123 -0.3616  0.9694
12578TIP3    H159149   5.451   0.280  14.804  1.5524  0.4758 -1.1200
12578TIP3    H259150   5.477   0.152  14.727  3.0534  0.9448 -1.4147
12579TIP3   OH259151   4.888   3.843   4.850  0.1288 -0.3800  0.0783
12579TIP3    H159152   4.911   3.788   4.776 -0.4203 -1.0152  0.3718
12579TIP3    H259153   4.972   3.875   4.883  0.3210  1.0772 -1.6605
12580TIP3   OH259154   5.532   6.339  16.157 -0.1977  1.0061  0.2927
12580TIP3    H159155   5.555   6.265  16.214  0.3931  3.2162  3.1636
12580TIP3    H259156   5.470   6.302  16.094  1.0759 -2.1998  0.6759
12581TIP3   OH259157   4.963   6.169  13.952  0.2443 -0.0309  0.9612
12581TIP3    H159158   4.992   6.164  13.861 -0.9665 -0.7311  0.5878
12581TIP3    H259159   5.020   6.235  13.991 -1.0830  2.5041 -1.0402
12582TIP3   OH259160   6.200   6.199  12.026 -0.5502  0.1761  0.9887
12582TIP3    H159161   6.193   6.291  12.000  1.3520  0.2656  0.6277
12582TIP3    H259162   6.112   6.165  12.016 -1.1129  1.7348  0.2271
12583TIP3   OH259163   2.870   4.879  16.087 -0.3457 -0.0136 -0.7565
12583TIP3    H159164   2.789   4.873  16.138  0.0699 -1.1325 -0.1980
12583TIP3    H259165   2.849   4.838  16.003  0.1433 -2.0574  0.0697
12584TIP3   OH259166   4.450   3.605   2.506 -0.5060  0.4521 -0.3387
12584TIP3    H159167   4.360   3.578   2.489 -0.2525 -0.8032  0.2305
12584TIP3    H259168   4.480   3.548   2.577  0.3379  1.6772  0.3327
12585TIP3   OH259169   1.432   0.732  15.655 -0.3944  0.5924 -0.2590
12585TIP3    H159170   1.495   0.803  15.641  0.7110  0.1153  1.9153
12585TIP3    H259171   1.348   0.768  15.626  0.3131  2.4205 -0.1637
12586TIP3   OH259172   1.405   4.533   4.832  0.0143  0.5226 -0.1902
12586TIP3    H159173   1.384   4.455   4.781  1.2442 -0.4417  0.7436
12586TIP3    H259174   1.497   4.550   4.814 -0.2882  1.9121 -0.5511
12587TIP3   OH259175   6.105   1.262   2.533 -0.0106  0.5508 -0.7584
12587TIP3    H159176   6.184   1.228   2.491  0.9474  2.5363 -0.6558
12587TIP3    H259177   6.108   1.226   2.622 -0.2369 -0.8561 -1.2788
12588TIP3   OH259178   1.767   1.303  14.730  0.1026 -0.0658  0.0676
12588TIP3    H159179   1.805   1.238  14.789  2.1999  0.0662 -1.0409
12588TIP3    H259180   1.841   1.358  14.703 -0.7571 -0.0558 -2.5800
12589TIP3   OH259181   1.781   0.602   1.603 -0.3134  0.0332  0.3396
12589TIP3    H159182   1.796   0.695   1.618 -1.2156  0.0633  1.1543
12589TIP3    H259183   1.861   0.560   1.636  0.1783  0.5170 -0.2021
12590TIP3   OH259184   2.254   5.301  15.210 -0.2538 -0.3304 -0.1765
12590TIP3    H159185   2.232   5.341  15.126  2.8717  0.6661 -0.6331
12590TIP3    H259186   2.331   5.248  15.192  0.0005 -0.7485  1.9140
12591TIP3   OH259187   5.831   2.949  15.267  0.2541  0.0447  0.4858
12591TIP3    H159188   5.774   2.918  15.337  1.0832  0.1283  1.2124
12591TIP3    H259189   5.889   2.875  15.249  1.2162  0.6111  1.1459
12592TIP3   OH259190   4.346   5.837  12.048 -0.0922 -0.1648  0.1727
12592TIP3    H159191   4.379   5.833  11.959 -0.6871 -0.3071 -0.0481
12592TIP3    H259192   4.420   5.868  12.100 -0.4109  2.3825 -0.7301
12593TIP3   OH259193   0.832   1.226  11.398 -0.2255 -0.2549 -0.5497
12593TIP3    H159194   0.912   1.263  11.434  0.2547 -2.1175  0.3888
12593TIP3    H259195   0.762   1.268  11.449  0.2285  0.2595 -0.3388
12594TIP3   OH259196   0.310   6.127   0.665  0.0598 -0.0834 -0.0712
12594TIP3    H159197   0.233   6.183   0.651  0.7265  0.6788 -0.8156
12594TIP3    H259198   0.308   6.065   0.592  0.3650  0.1867 -0.3100
12595TIP3   OH259199   2.122   5.344   0.444 -0.1136 -0.2486  0.2135
12595TIP3    H159200   2.145   5.361   0.535 -1.2348  0.9724  0.3086
12595TIP3    H259201   2.028   5.326   0.445 -0.5026  1.4185 -0.8421
12596TIP3   OH259202   3.259   0.273  13.963 -0.3294 -0.1260 -0.1574
12596TIP3    H159203   3.329   0.307  14.019  1.3709 -0.6108 -1.8949
12596TIP3    H259204   3.285   0.298  13.874 -1.0650 -2.4119 -1.0945
12597TIP3   OH259205   6.014   0.578  10.482  0.2085 -0.0615  0.0648
12597TIP3    H159206   5.995   0.597  10.390 -3.5984  2.3286  1.0798
12597TIP3    H259207   5.933   0.538  10.514 -0.2294  2.8823  3.1473
12598TIP3   OH259208   2.054   3.547  10.414 -0.1637  0.2057  0.3258
12598TIP3    H159209   1.979   3.532  10.472 -0.7046 -1.2331 -0.6931
12598TIP3    H259210   2.119   3.590  10.470 -0.9578 -0.4285  1.7992
12599TIP3   OH259211   1.238   1.403   5.947  0.1220 -0.3036 -0.2321
12599TIP3    H159212   1.294   1.342   5.996 -1.0090 -0.6245  0.6879
12599TIP3    H259213   1.230   1.479   6.004 -0.5911 -0.3673 -0.2462
12600TIP3   OH259214   6.101   3.743   4.989  0.0135 -0.1910  0.0667
12600TIP3    H159215   6.134   3.658   5.020 -0.7147 -1.4644 -2.3597
12600TIP3    H259216   6.178   3.800   4.987  1.3141 -1.8950 -1.6704
12601TIP3   OH259217   5.308   5.836   1.405 -0.2136 -1.0576 -0.2118
12601TIP3    H159218   5.293   5.859   1.497  4.3525  0.1303  0.5221
12601TIP3    H259219   5.365   5.759   1.409  1.4464 -0.0021 -1.8840
12602TIP3   OH259220   1.004   5.864  15.608  0.4425 -0.1858  0.2987
12602TIP3    H159221   1.097   5.887  15.608  0.4832 -0.2432  1.8754
12602TIP3    H259222   0.994   5.804  15.682 -0.6508 -1.1048 -0.5531
12603TIP3   OH259223   1.426   0.051   5.229 -0.7295  0.6853  0.1615
12603TIP3    H159224   1.507   0.004   5.249 -0.7466  2.2909  5.6978
12603TIP3    H259225   1.357  -0.016   5.233 -0.0510 -0.1076 -0.9347
12604TIP3   OH259226   0.387   3.695  14.050 -0.3411  0.9211 -0.0894
12604TIP3    H159227   0.478   3.689  14.079 -0.8913  2.4091  2.2126
12604TIP3    H259228   0.391   3.746  13.970  1.0984 -1.9218 -1.9977
12605TIP3   OH259229   5.810   5.066   5.067 -0.3781 -0.4216  0.1675
12605TIP3    H159230   5.867   5.134   5.103 -0.6971 -0.1395  0.1487
12605TIP3    H259231   5.744   5.114   5.016 -0.9067 -0.7094  0.5687
12606TIP3   OH259232   4.086   4.755  13.926  0.1789 -0.1426  0.2218
12606TIP3    H159233   4.010   4.785  13.975  1.1030  1.5708  0.6683
12606TIP3    H259234   4.154   4.741  13.992  0.2583 -1.8217 -0.1488
12607TIP3   OH259235   2.198   1.296  12.565 -0.7751  0.1765 -0.2461
12607TIP3    H159236   2.228   1.258  12.648  0.1977 -1.4851 -1.3109
12607TIP3    H259237   2.110   1.330  12.585 -0.8871 -0.9011  1.2609
12608TIP3   OH259238   0.029   5.814   3.971  0.1837 -0.2889 -0.4294
12608TIP3    H159239   0.021   5.908   3.954  0.0737 -0.3813 -0.8906
12608TIP3    H259240   0.108   5.806   4.025 -0.7176  0.2381  1.0282
12609TIP3   OH259241   1.539   5.218  12.556  0.5266 -0.1098 -0.4459
12609TIP3    H159242   1.555   5.235  12.649  1.0447 -0.5603 -0.4456
12609TIP3    H259243   1.446   5.236  12.544  0.0563 -1.6718  0.5410
12610TIP3   OH259244   6.703   3.656  15.348 -0.5712 -0.2731  0.3736
12610TIP3    H159245   6.686   3.594  15.419  1.4965 -1.5338 -0.1446
12610TIP3    H259246   6.644   3.630  15.278  0.0109 -1.4703  0.3015
12611TIP3   OH259247   0.945   3.907   0.736  0.8421  0.3281 -0.3546
12611TIP3    H159248   1.013   3.958   0.780 -0.5398  1.1721  0.9087
12611TIP3    H259249   0.924   3.959   0.658 -0.4724  1.7319  0.8619
12612TIP3   OH259250   0.783   6.144  15.364  0.2601 -0.2382 -0.1098
12612TIP3    H159251   0.875   6.132  15.342  0.3948  2.0320 -1.0466
12612TIP3    H259252   0.754   6.058  15.395  2.1236 -1.5620 -1.8200
12613TIP3   OH259253   2.133   4.090   5.729 -0.1042  0.1188  0.4853
12613TIP3    H159254   2.173   4.168   5.768  3.4714 -1.4242  0.2512
12613TIP3    H259255   2.084   4.050   5.802 -3.3773  3.1433  0.2584
12614TIP3   OH259256   0.660   3.226   1.405  0.0293 -0.3195  0.0110
12614TIP3    H159257   0.599   3.233   1.478  0.4696  0.8848  0.2931
12614TIP3    H259258   0.741   3.265   1.437  0.5611 -0.7654 -0.7622
12615TIP3   OH259259   2.787   1.160  12.226  0.3031 -0.2117 -0.1885
12615TIP3    H159260   2.763   1.185  12.315  0.5624 -0.1184 -0.1451
12615TIP3    H259261   2.707   1.121  12.190  0.8245 -2.3231  0.8149
12616TIP3   OH259262   2.290   6.031  12.467 -0.2240 -0.3390 -0.0117
12616TIP3    H159263   2.231   6.046  12.393 -0.3023  1.6522  0.3988
12616TIP3    H259264   2.236   5.992  12.535 -1.1849  1.6254  0.4258
12617TIP3   OH259265   1.785   5.468   4.225 -0.0878  0.1302 -0.0639
12617TIP3    H159266   1.796   5.560   4.201 -1.2826 -0.1399 -1.8330
12617TIP3    H259267   1.691   5.452   4.216  0.1646 -1.3841 -0.2909
12618TIP3   OH259268   0.984   4.762  15.876 -0.1537 -0.4182 -0.0098
12618TIP3    H159269   1.033   4.806  15.946 -0.4713 -0.3587  0.1742
12618TIP3    H259270   1.013   4.671  15.880  0.4380 -0.2489 -0.3326
12619TIP3   OH259271   5.344   6.027  13.614  0.2828 -0.0315 -0.6178
12619TIP3    H159272   5.365   6.003  13.705  0.6721 -1.8119 -1.1301
12619TIP3    H259273   5.248   6.017  13.608  0.1153  1.1246 -0.1531
12620TIP3   OH259274   1.211   5.691   0.561  0.0180 -0.0605 -0.4214
12620TIP3    H159275   1.241   5.600   0.564  0.9445  0.2340 -0.5070
12620TIP3    H259276   1.281   5.741   0.602 -0.6504  0.5830 -0.0485
12621TIP3   OH259277   6.498   3.366  15.323  0.7293  0.8502  0.4766
12621TIP3    H159278   6.417   3.417  15.313  0.1812 -0.0347  0.3806
12621TIP3    H259279   6.478   3.302  15.391  1.3196  0.5539  0.3776
12622TIP3   OH259280   6.185   2.121   4.404  0.4076 -0.6526 -0.2761
12622TIP3    H159281   6.116   2.186   4.392  0.6521 -0.3251  0.0870
12622TIP3    H259282   6.145   2.039   4.376  0.6660 -0.0793 -2.5817
12623TIP3   OH259283   6.508   4.588   3.700  0.5657 -0.3353  0.2570
12623TIP3    H159284   6.420   4.592   3.664  1.2535 -0.1430 -1.5571
12623TIP3    H259285   6.546   4.508   3.662  1.0107 -0.6868  1.4144
12624TIP3   OH259286   6.185   2.148   0.497  0.5328  0.0793  0.3000
12624TIP3    H159287   6.109   2.100   0.530 -0.3940  1.3347  0.0885
12624TIP3    H259288   6.154   2.239   0.492  2.4557  0.8643  1.5151
12625TIP3   OH259289   0.443   2.495  13.335  0.4970 -0.4429 -0.1990
12625TIP3    H159290   0.466   2.460  13.249  0.3266 -3.3692  0.8318
12625TIP3    H259291   0.509   2.460  13.394 -2.0254 -2.5954  1.5780
12626TIP3   OH259292   6.753   4.573   2.378 -0.3096 -0.1285  0.2279
12626TIP3    H159293   6.804   4.495   2.359  1.4860  1.0353  0.0508
12626TIP3    H259294   6.696   4.547   2.451  1.5587 -1.1139  1.4217
12627TIP3   OH259295   3.811   3.633   2.614  0.0705  0.7589 -0.0107
12627TIP3    H159296   3.839   3.620   2.523 -0.0823 -1.7323  0.2473
12627TIP3    H259297   3.878   3.692   2.650  2.7742 -1.7456 -0.5553
12628TIP3   OH259298   4.164   5.712   1.813 -0.4504 -0.0734 -0.0221
12628TIP3    H159299   4.079   5.683   1.780  0.2120  1.7402 -3.7520
12628TIP3    H259300   4.207   5.631   1.841 -2.0829 -1.4753 -1.3579
12629TIP3   OH259301   1.498   1.631   5.648 -0.2404  0.2284 -0.0456
12629TIP3    H159302   1.565   1.675   5.596  0.7761  1.3354  2.0706
12629TIP3    H259303   1.515   1.659   5.738 -1.7420 -1.7859  0.9568
12630TIP3   OH259304   2.838   3.163  15.272 -0.2533  0.1630  0.5027
12630TIP3    H159305   2.923   3.149  15.229 -0.2803  0.9709  0.1598
12630TIP3    H259306   2.784   3.204  15.205 -0.6060  0.5381  1.0093
12631TIP3   OH259307   4.433   0.820   5.262 -0.1305  0.1170 -0.2019
12631TIP3    H159308   4.423   0.734   5.305  1.3210  0.7036  1.4124
12631TIP3    H259309   4.477   0.800   5.180  1.9763 -0.5692  1.0068
12632TIP3   OH259310   2.755   2.613   3.197  0.0792 -0.0904  0.3146
12632TIP3    H159311   2.810   2.572   3.131  0.5838  2.0520 -0.6845
12632TIP3    H259312   2.729   2.541   3.255 -0.9574 -2.2091 -2.5500
12633TIP3   OH259313   0.888   2.048  17.083 -0.0103  0.9544 -0.3338
12633TIP3    H159314   0.912   2.059  16.991  2.2290  0.6917  0.1643
12633TIP3    H259315   0.970   2.027  17.127 -1.2646 -0.3755  1.5165
12634TIP3   OH259316   1.649   5.153  11.475  0.3158  0.6110  0.1889
12634TIP3    H159317   1.658   5.100  11.396 -0.7040  1.8707 -0.8312
12634TIP3    H259318   1.563   5.195  11.466  0.2304  0.8900  1.9190
12635TIP3   OH259319   1.635   3.812   0.677 -0.4872 -0.4048 -0.2071
12635TIP3    H159320   1.611   3.731   0.631 -0.5710 -0.7079  0.3603
12635TIP3    H259321   1.724   3.831   0.646 -0.6936 -0.3735 -0.8035
12636TIP3   OH259322   1.209   6.803  14.933 -0.1247 -0.3849  0.6069
12636TIP3    H159323   1.265   6.762  14.999  1.4362  1.2948  0.3931
12636TIP3    H259324   1.267   6.821  14.860 -1.4918 -0.7366 -0.6205
12637TIP3   OH259325   1.410   1.228  12.038  0.3647  0.0859  0.0851
12637TIP3    H159326   1.479   1.241  12.103  0.3663 -0.0504  0.1104
12637TIP3    H259327   1.435   1.286  11.965 -0.2338  1.1036  0.6612
12638TIP3   OH259328   1.007   3.462   5.901  0.7391  0.2852 -0.6176
12638TIP3    H159329   0.989   3.519   5.976 -1.7196 -0.9334 -0.1858
12638TIP3    H259330   0.947   3.493   5.833  1.0006 -0.3427 -1.1418
12639TIP3   OH259331   0.717   6.148  12.041  0.2848 -0.2622 -0.1379
12639TIP3    H159332   0.641   6.136  11.983  0.7687 -1.7143 -0.5140
12639TIP3    H259333   0.792   6.150  11.981  0.4776  2.7616  0.0768
12640TIP3   OH259334   6.152   4.896   4.781  0.5616  0.1596  0.0936
12640TIP3    H159335   6.180   4.902   4.873 -0.8503  2.4006  0.4702
12640TIP3    H259336   6.082   4.830   4.782 -0.4631  1.2053  0.9773
12641TIP3   OH259337   4.058   5.873  12.748 -0.8099  0.2009 -0.2913
12641TIP3    H159338   4.124   5.925  12.794 -1.5976  0.3216  0.7304
12641TIP3    H259339   4.012   5.826  12.817 -2.1715  0.5495 -0.9195
12642TIP3   OH259340   1.972   4.872   2.983  0.1727 -0.5457  0.7202
12642TIP3    H159341   1.972   4.777   2.995 -0.3661 -0.5075  1.0193
12642TIP3    H259342   1.914   4.906   3.051  0.4596  0.0128  0.7006
12643TIP3   OH259343   0.436   3.219   0.108  0.2333 -0.0243  0.5114
12643TIP3    H159344   0.489   3.172   0.043 -0.8905  0.6555 -0.9643
12643TIP3    H259345   0.405   3.296   0.061 -2.7138 -0.7767  1.0474
12644TIP3   OH259346   2.359   5.269  12.748  0.4376 -0.0817 -0.0199
12644TIP3    H159347   2.432   5.328  12.766  0.3401  0.0223  0.0273
12644TIP3    H259348   2.301   5.318  12.690 -0.2343  0.2992  0.9548
12645TIP3   OH259349   6.576   6.420  14.166  0.0360 -0.5569 -0.3476
12645TIP3    H159350   6.583   6.516  14.172 -0.6796 -0.4806 -0.6392
12645TIP3    H259351   6.574   6.391  14.257 -0.8854 -0.1961 -0.2415
12646TIP3   OH259352   2.265   5.884   5.203 -0.3691  0.4266 -0.4230
12646TIP3    H159353   2.246   5.790   5.207 -3.1198  0.9288  0.2379
12646TIP3    H259354   2.320   5.894   5.125  0.3179 -1.7427 -0.2895
12647TIP3   OH259355   6.637   3.551   0.930  0.1553 -0.3400  0.3871
12647TIP3    H159356   6.693   3.511   0.864 -0.5679 -0.0610 -0.4220
12647TIP3    H259357   6.593   3.477   0.973  0.3231 -0.5063  0.2694
12648TIP3   OH259358   5.829   0.420  15.130 -0.3290 -0.3421  0.3317
12648TIP3    H159359   5.922   0.411  15.155 -0.2241  0.5611  0.2746
12648TIP3    H259360   5.816   0.352  15.063  0.4721 -0.0218 -0.1637
12649TIP3   OH259361   6.466   3.366  10.506 -0.0620 -0.1539  0.0546
12649TIP3    H159362   6.490   3.280  10.539 -1.6999  0.0129  1.8379
12649TIP3    H259363   6.370   3.368  10.510 -0.0366  2.0567  0.9575
12650TIP3   OH259364   6.033   2.575  15.750  0.4508  0.0907  0.1694
12650TIP3    H159365   6.109   2.577  15.692  0.8164  1.2801  0.6476
12650TIP3    H259366   5.969   2.520  15.705 -0.4623  3.2791 -2.9271
12651TIP3   OH259367   1.595   3.419  15.622  0.3375  0.5059 -0.0926
12651TIP3    H159368   1.552   3.469  15.692 -1.3416 -0.1514 -0.5957
12651TIP3    H259369   1.589   3.476  15.545  1.1385  0.7491  0.0179
12652TIP3   OH259370   5.261   4.826  11.901  0.0622 -0.1224 -0.2912
12652TIP3    H159371   5.214   4.753  11.862  0.4573  0.1088 -1.2237
12652TIP3    H259372   5.351   4.816  11.870  0.8257 -0.9127  1.9613
12653TIP3   OH259373   4.418   5.358   4.349  0.4412 -0.3193  0.3808
12653TIP3    H159374   4.361   5.432   4.328  0.3622 -0.6159 -0.4924
12653TIP3    H259375   4.506   5.395   4.352  0.3760 -0.1449  0.1562
12654TIP3   OH259376   3.530   3.014   5.459 -0.8107  0.5253 -0.7277
12654TIP3    H159377   3.569   3.098   5.483 -1.1753  0.7418 -0.8708
12654TIP3    H259378   3.548   3.005   5.366 -0.8837  0.5061 -0.7400
12655TIP3   OH259379   5.722   1.729  11.399  0.1096 -0.3869 -0.7847
12655TIP3    H159380   5.686   1.816  11.382  0.6195  0.1344  0.6807
12655TIP3    H259381   5.652   1.669  11.375  0.0973  0.3386 -2.8050
12656TIP3   OH259382   6.548   6.561   5.277  0.2704 -0.1433  0.3633
12656TIP3    H159383   6.581   6.593   5.193  0.1857  0.3921  0.5305
12656TIP3    H259384   6.490   6.488   5.254 -0.4554  0.5620 -0.1115
12657TIP3   OH259385   4.615   0.985   1.166 -0.1299  0.1136 -0.0361
12657TIP3    H159386   4.703   1.002   1.199 -0.7138  1.6651  0.8728
12657TIP3    H259387   4.562   1.056   1.203 -1.3503  0.4745 -2.3163
12658TIP3   OH259388   6.071   4.515  15.480 -0.1437 -0.2488 -0.0987
12658TIP3    H159389   6.041   4.503  15.571 -1.1739 -1.0694 -0.5253
12658TIP3    H259390   6.002   4.475  15.427  1.2148 -1.2296 -1.1919
12659TIP3   OH259391   6.463   4.782  12.837 -0.3507 -0.0354  0.1040
12659TIP3    H159392   6.381   4.813  12.876  0.3388 -0.1131  1.6783
12659TIP3    H259393   6.499   4.859  12.793 -2.1646 -0.4452 -2.3094
12660TIP3   OH259394   5.427   2.295   5.562  0.6884 -0.3813  0.0761
12660TIP3    H159395   5.471   2.212   5.583 -0.8812 -1.4783 -0.7792
12660TIP3    H259396   5.387   2.280   5.477 -1.1699  0.6245  0.7143
12661TIP3   OH259397   4.014   6.791   2.900 -0.0952  0.6229 -0.0018
12661TIP3    H159398   4.033   6.865   2.958  0.4369  1.5755 -1.3644
12661TIP3    H259399   4.074   6.722   2.929  1.4790  1.7019 -0.5744
12662TIP3   OH259400   4.952   0.016  12.605 -0.0641 -0.3595  0.3304
12662TIP3    H159401   4.902  -0.001  12.525  0.2658 -1.2474  0.2980
12662TIP3    H259402   4.993  -0.068  12.625 -0.4758 -0.2704  1.6609
12663TIP3   OH259403   0.421   4.665   3.759  0.6849  0.1442 -0.1654
12663TIP3    H159404   0.326   4.673   3.771  0.4875 -1.9404  0.1101
12663TIP3    H259405   0.446   4.742   3.708 -1.3789  0.0839 -1.3650
12664TIP3   OH259406   6.712   1.822  16.576 -0.6634 -0.2293  0.4345
12664TIP3    H159407   6.712   1.873  16.494 -1.3468 -0.2329  0.4283
12664TIP3    H259408   6.777   1.753  16.561  0.4615  0.7683  0.5356
12665TIP3   OH259409   0.539   5.903  10.825  0.5880  0.0777  0.2662
12665TIP3    H159410   0.514   5.834  10.886 -0.3985  0.7809  0.6870
12665TIP3    H259411   0.469   5.969  10.834 -1.5033 -1.2172 -4.0052
12666TIP3   OH259412   2.783   0.983  11.533  0.0531  0.2442 -0.4118
12666TIP3    H159413   2.705   0.953  11.579  1.0785 -0.4475  0.9514
12666TIP3    H259414   2.799   1.070  11.569 -0.3172  0.5694 -1.0128
12667TIP3   OH259415   1.245   4.580   2.814 -0.9383  0.0369  0.3735
12667TIP3    H159416   1.208   4.544   2.734  0.7454  0.1620 -0.4938
12667TIP3    H259417   1.336   4.599   2.793 -0.0644 -1.1685  2.6927
12668TIP3   OH259418   1.743   4.318   1.876 -0.0236  0.5203 -0.3971
12668TIP3    H159419   1.823   4.289   1.832 -0.2659 -1.2824  0.2804
12668TIP3    H259420   1.675   4.313   1.809 -0.0404 -0.3997 -0.3151
12669TIP3   OH259421   6.441   6.190  12.894 -0.0422 -0.8659  0.2245
12669TIP3    H159422   6.466   6.280  12.874  0.9727 -0.7512  1.8569
12669TIP3    H259423   6.346   6.193  12.907 -0.3152 -0.4401 -1.6524
12670TIP3   OH259424   2.543   3.943  12.263  0.1493  0.1666 -0.0198
12670TIP3    H159425   2.472   3.936  12.200 -0.7725  0.2310  0.9734
12670TIP3    H259426   2.622   3.954  12.210 -0.6116  0.3749 -1.1433
12671TIP3   OH259427   1.851   6.745   1.901  0.1923  0.6084 -0.0709
12671TIP3    H159428   1.930   6.763   1.952  0.5779  0.4498 -0.5947
12671TIP3    H259429   1.866   6.789   1.818  0.6887 -1.1619 -0.9785
12672TIP3   OH259430   5.962   2.441  16.617 -0.0708 -0.5085  0.2433
12672TIP3    H159431   6.010   2.359  16.628 -0.5539 -1.0232 -1.1237
12672TIP3    H259432   5.876   2.424  16.656 -0.0559 -0.5536  0.2561
12673TIP3   OH259433   1.355   3.950   2.443 -0.0609 -0.4011 -0.3909
12673TIP3    H159434   1.410   3.887   2.491 -1.3424 -0.9655  0.3976
12673TIP3    H259435   1.405   4.032   2.446  0.6927 -0.8652  0.4148
12674TIP3   OH259436   6.309   0.980  15.663  0.0803 -0.4837  0.7695
12674TIP3    H159437   6.351   1.062  15.634  0.0334 -0.3711  1.0190
12674TIP3    H259438   6.376   0.937  15.717  0.6082 -1.2666 -0.4732
12675TIP3   OH259439   1.175   6.010   2.243  0.2071 -0.0811 -0.3664
12675TIP3    H159440   1.186   5.919   2.271 -0.6152 -0.4391 -1.1631
12675TIP3    H259441   1.083   6.017   2.217 -0.6013  1.7814  2.5015
12676TIP3   OH259442   1.636   3.341   5.080 -0.1811  0.0783 -0.3128
12676TIP3    H159443   1.550   3.364   5.045 -1.3374  0.8208  2.7027
12676TIP3    H259444   1.694   3.409   5.047 -1.6659  2.0783  0.9760
12677TIP3   OH259445   3.325   4.938  13.343 -0.0084 -0.0447 -0.0531
12677TIP3    H159446   3.345   4.991  13.420 -1.1711  0.2904  0.0379
12677TIP3    H259447   3.382   4.973  13.274  1.1438 -0.4385  0.6646
12678TIP3   OH259448   3.636   2.097   5.485 -0.1425  0.1993 -0.8172
12678TIP3    H159449   3.631   2.028   5.418  0.5002 -0.2129 -0.4515
12678TIP3    H259450   3.729   2.101   5.508  0.4291  3.3557 -3.0773
12679TIP3   OH259451   5.024   4.111   4.392  0.8067 -0.0346  0.0002
12679TIP3    H159452   5.115   4.139   4.391  0.4674  1.1831 -1.7778
12679TIP3    H259453   5.004   4.093   4.300 -0.9853  0.5240  0.2547
12680TIP3   OH259454   2.530   4.451   3.798  0.0239 -0.3298  0.1831
12680TIP3    H159455   2.593   4.394   3.841 -0.6030 -0.6436  0.7140
12680TIP3    H259456   2.513   4.520   3.863 -0.1181 -0.2085  0.0164
12681TIP3   OH259457   5.302   5.503   3.671  0.4453 -0.3057  0.3320
12681TIP3    H159458   5.225   5.551   3.641 -0.1847 -0.7030  1.2628
12681TIP3    H259459   5.306   5.522   3.765  1.8752  0.2427  0.1826
12682TIP3   OH259460   4.633   6.376   5.974 -0.1320 -0.0440  0.5105
12682TIP3    H159461   4.613   6.332   5.891 -1.1982  2.0611 -0.4289
12682TIP3    H259462   4.713   6.426   5.957  1.8399 -2.4747  1.9654
12683TIP3   OH259463   0.962   6.238  16.081  0.1615 -0.0387  0.8712
12683TIP3    H159464   0.942   6.315  16.136  1.9025  1.3086 -0.2599
12683TIP3    H259465   1.001   6.175  16.142 -0.3469  0.3630  1.6366
12684TIP3   OH259466   4.409   2.703   2.869 -0.1736  0.3184 -0.1772
12684TIP3    H159467   4.483   2.697   2.930 -0.3147 -2.3749 -0.1687
12684TIP3    H259468   4.428   2.781   2.816  1.6129  0.8502  1.1477
12685TIP3   OH259469   4.327   6.804  13.359  0.3395 -0.1542 -0.1932
12685TIP3    H159470   4.399   6.859  13.388  0.5164 -0.6324  0.2938
12685TIP3    H259471   4.334   6.803  13.263  0.0034  1.0970 -0.2476
12686TIP3   OH259472   3.873   0.332   2.893 -0.0856 -0.2957  0.8148
12686TIP3    H159473   3.961   0.335   2.854  0.0756  2.8230  1.2300
12686TIP3    H259474   3.819   0.289   2.826  1.0351  1.1111 -1.0912
12687TIP3   OH259475   0.182   1.628   0.131 -0.1739 -0.2305  0.2289
12687TIP3    H159476   0.233   1.674   0.065  1.1868  0.4519  1.6681
12687TIP3    H259477   0.118   1.692   0.161  0.3984  0.0877  0.8099
12688TIP3   OH259478   3.650   5.245   2.762  0.1138  0.0560 -0.1261
12688TIP3    H159479   3.732   5.290   2.741 -0.2772  0.6248 -0.4608
12688TIP3    H259480   3.663   5.211   2.851  1.3490 -1.3515 -0.7979
12689TIP3   OH259481   0.761   0.886   5.696 -0.4790  0.1581 -0.6036
12689TIP3    H159482   0.697   0.817   5.678 -2.9522  1.4097  2.3883
12689TIP3    H259483   0.714   0.967   5.682  0.9527  1.1774  0.2036
12690TIP3   OH259484   5.763   3.668   1.535  0.4856  0.5948 -0.5147
12690TIP3    H159485   5.793   3.752   1.568 -2.7103  1.6191  0.0785
12690TIP3    H259486   5.695   3.690   1.471  1.8058 -1.5101 -2.8157
12691TIP3   OH259487   5.339   4.218  15.373 -0.0348 -0.1758  0.0991
12691TIP3    H159488   5.310   4.289  15.431 -0.6132  0.0761 -0.4927
12691TIP3    H259489   5.263   4.200  15.317 -0.4420 -2.2539  1.1763
12692TIP3   OH259490   4.196   4.399  10.837  0.0888  0.0973 -0.2183
12692TIP3    H159491   4.288   4.424  10.828  0.2841 -0.3865  0.3579
12692TIP3    H259492   4.148   4.472  10.798  0.6527  1.1664  0.9850
12693TIP3   OH259493   2.105   5.149   4.232  0.7748 -0.2232 -0.1848
12693TIP3    H159494   2.196   5.130   4.208  0.6402  0.4507 -1.3050
12693TIP3    H259495   2.087   5.234   4.192 -0.6157 -0.7411 -0.7245
12694TIP3   OH259496   6.480   2.202  14.109  0.3331 -0.1558  0.0615
12694TIP3    H159497   6.410   2.248  14.062 -0.3626 -2.1064 -0.9292
12694TIP3    H259498   6.560   2.223  14.062 -0.0885 -0.5167 -0.8314
12695TIP3   OH259499   4.402   1.669   5.532 -0.3864 -0.3691 -0.6624
12695TIP3    H159500   4.339   1.647   5.464 -1.1593 -0.6386  0.1169
12695TIP3    H259501   4.472   1.715   5.486 -1.2944  0.2148 -1.5085
12696TIP3   OH259502   3.340   1.537  11.450 -0.0763  0.2517  0.2802
12696TIP3    H159503   3.336   1.605  11.517 -1.4954  0.9899 -0.5001
12696TIP3    H259504   3.284   1.569  11.380 -2.0469 -2.3901  0.4812
12697TIP3   OH259505   2.044   6.729  10.809 -0.3610  0.1468 -0.1378
12697TIP3    H159506   2.136   6.714  10.787  0.8787  0.9863  3.6117
12697TIP3    H259507   2.010   6.642  10.830 -0.5108 -0.1799 -1.6252
12698TIP3   OH259508   0.405   4.142  11.621  0.1444  0.4172  0.2268
12698TIP3    H159509   0.330   4.197  11.644  1.2535  1.8310  0.6562
12698TIP3    H259510   0.480   4.189  11.657  1.3545 -0.3869 -1.1462
12699TIP3   OH259511   5.111   6.777  11.200 -0.1938 -0.0953 -0.2004
12699TIP3    H159512   5.200   6.813  11.195 -0.2182  0.2270  1.2042
12699TIP3    H259513   5.112   6.702  11.142  1.1603 -0.4020  0.1862
12700TIP3   OH259514   2.507   3.225   0.412  0.3073  0.6689 -0.4179
12700TIP3    H159515   2.482   3.207   0.502  2.3165  1.4822  0.3754
12700TIP3    H259516   2.519   3.139   0.372 -1.7900  0.2913 -0.3099
12701TIP3   OH259517   5.511   0.660   0.719 -0.3207 -0.2940 -0.2587
12701TIP3    H159518   5.605   0.670   0.733 -0.1193  1.8079 -2.4831
12701TIP3    H259519   5.471   0.719   0.783  0.1394  1.8792 -1.8516
12702TIP3   OH259520   5.434   0.360   4.948  0.4737  0.2023  0.5051
12702TIP3    H159521   5.374   0.400   5.011 -0.1641  0.5400 -0.2957
12702TIP3    H259522   5.509   0.419   4.946 -1.0087  2.2248 -1.6506
12703TIP3   OH259523   6.506   5.790   0.399 -0.1056 -0.0786  0.3366
12703TIP3    H159524   6.427   5.843   0.407 -0.7839 -1.0378  0.1125
12703TIP3    H259525   6.578   5.851   0.417 -0.9151  0.6830  1.0805
12704TIP3   OH259526   2.120   1.725   6.234  0.2959 -0.0598 -0.1659
12704TIP3    H159527   2.164   1.795   6.283  0.6928 -0.7768  0.5159
12704TIP3    H259528   2.077   1.672   6.302  0.6234 -0.9114 -0.6152
12705TIP3   OH259529   1.312   2.670  13.082 -1.1244 -0.0652  0.6975
12705TIP3    H159530   1.296   2.576  13.076 -2.2894  0.1626 -0.2671
12705TIP3    H259531   1.406   2.678  13.094 -1.0455 -1.3538  1.1472
12706TIP3   OH259532   0.794   5.202   2.651  0.2648 -0.0296 -0.1578
12706TIP3    H159533   0.731   5.188   2.580  0.6532 -2.2643 -0.1533
12706TIP3    H259534   0.740   5.208   2.730 -0.1032  1.2656 -0.4959
12707TIP3   OH259535   2.631   5.778   2.693 -0.5774  0.2374 -0.5025
12707TIP3    H159536   2.566   5.797   2.761  1.1282 -0.0004  1.2783
12707TIP3    H259537   2.643   5.861   2.647 -3.9940 -0.2666 -2.7286
12708TIP3   OH259538   5.350   2.575  13.794 -0.2326  0.0012  0.5851
12708TIP3    H159539   5.302   2.638  13.849  0.4969 -0.6832  2.0639
12708TIP3    H259540   5.442   2.595  13.811  0.0141 -0.0074 -0.6797
12709TIP3   OH259541   0.717   4.573  12.164 -0.5010  0.0913  0.0959
12709TIP3    H159542   0.762   4.655  12.146 -1.4655  1.0363  1.7190
12709TIP3    H259543   0.626   4.598  12.180 -1.0046 -1.4041 -0.2000
12710TIP3   OH259544   1.813   2.787   6.171  0.4854  0.1030 -0.3989
12710TIP3    H159545   1.857   2.857   6.219 -0.1034  0.3543 -0.2275
12710TIP3    H259546   1.730   2.825   6.143 -0.0932 -0.7011  0.1824
12711TIP3   OH259547   3.607   2.825  10.819  0.0347  0.4465 -0.2092
12711TIP3    H159548   3.633   2.816  10.727 -0.5490  1.3491 -0.4728
12711TIP3    H259549   3.608   2.919  10.835 -3.4891  0.6272 -0.3598
12712TIP3   OH259550   0.603   6.201   1.613 -0.8268  0.0783  0.4613
12712TIP3    H159551   0.605   6.215   1.518  1.6957  0.3226  0.4819
12712TIP3    H259552   0.685   6.155   1.632 -1.7161 -0.7960  2.4234
12713TIP3   OH259553   3.670   0.426   1.219  0.0029 -0.3826 -0.3316
12713TIP3    H159554   3.636   0.385   1.298  0.5260 -1.1502 -0.4908
12713TIP3    H259555   3.712   0.507   1.249 -1.7784  0.5000 -0.1156
12714TIP3   OH259556   1.385   2.735   2.101 -0.1173  0.3259 -0.1085
12714TIP3    H159557   1.435   2.711   2.179 -0.2340  0.1385 -0.0915
12714TIP3    H259558   1.449   2.735   2.030  0.1287  1.1740  0.1065
12715TIP3   OH259559   2.996   0.590  10.954 -0.4555  0.0217  0.2924
12715TIP3    H159560   3.004   0.685  10.964 -1.2852 -0.0843  2.5008
12715TIP3    H259561   3.080   0.555  10.982 -0.6024  0.0453  0.7658
12716TIP3   OH259562   6.334   6.052  13.457  0.2205  0.2576 -0.3506
12716TIP3    H159563   6.276   6.113  13.411  0.5657  0.3496 -0.6672
12716TIP3    H259564   6.393   6.107  13.508 -0.2866  0.1509  0.3681
12717TIP3   OH259565   3.690   4.571   1.525  0.2994 -0.0763  0.1012
12717TIP3    H159566   3.666   4.632   1.595 -2.4607 -0.2864 -0.5710
12717TIP3    H259567   3.622   4.503   1.527  1.4708 -1.3697 -1.2876
12718TIP3   OH259568   2.331   6.499  15.387  0.9204  0.0872  0.0140
12718TIP3    H159569   2.310   6.423  15.332 -0.2085 -0.8511  1.6624
12718TIP3    H259570   2.416   6.477  15.426  0.6183 -0.3210  0.4523
12719TIP3   OH259571   6.043   1.086  15.115  0.2640  0.0547  0.4796
12719TIP3    H159572   6.103   1.144  15.068  1.9550 -3.4482 -2.1491
12719TIP3    H259573   5.971   1.072  15.055 -0.6540  0.2168  1.5110
12720TIP3   OH259574   6.296   1.231  10.658  0.1252  0.3132  0.6848
12720TIP3    H159575   6.368   1.199  10.712  0.2380  0.3298  0.5448
12720TIP3    H259576   6.259   1.152  10.618 -0.4294  0.2196  1.3618
12721TIP3   OH259577   5.072   0.444   6.291 -0.1576  0.6613  0.2654
12721TIP3    H159578   4.983   0.428   6.321  0.4086  0.4138  1.9628
12721TIP3    H259579   5.120   0.364   6.316  1.5733  2.6130  4.0385
12722TIP3   OH259580   3.159   2.515  16.155 -0.9239  0.3529  0.1659
12722TIP3    H159581   3.240   2.473  16.127 -1.2605  0.5798 -1.2149
12722TIP3    H259582   3.115   2.540  16.074 -2.1470  0.6809  0.8974
12723TIP3   OH259583   0.569   2.143   5.197 -0.8488  0.4263 -0.4696
12723TIP3    H159584   0.624   2.067   5.213 -2.2381 -0.4351  0.4435
12723TIP3    H259585   0.604   2.211   5.255  0.1189  0.3600 -0.9552
12724TIP3   OH259586   4.780   3.162   6.017  0.2908 -0.4268 -0.1224
12724TIP3    H159587   4.755   3.164   6.109 -0.3951 -2.0963 -0.2325
12724TIP3    H259588   4.715   3.217   5.973  0.3039 -0.0514  0.3232
12725TIP3   OH259589   1.896   2.812  15.856  0.6090  0.8729  0.4609
12725TIP3    H159590   1.985   2.785  15.837  0.1079  0.5809 -1.7560
12725TIP3    H259591   1.880   2.888  15.800 -0.7301  0.5271  0.3216
12726TIP3   OH259592   4.753   1.956   3.918 -0.2247 -0.1640  0.1128
12726TIP3    H159593   4.695   2.032   3.917 -1.5570 -1.0160  2.6835
12726TIP3    H259594   4.747   1.923   4.007  1.9184 -2.1019 -0.3715
12727TIP3   OH259595   0.606   2.054   2.513 -0.0907  0.2106 -0.0966
12727TIP3    H159596   0.591   2.139   2.471  3.2187  0.5258 -0.8672
12727TIP3    H259597   0.561   1.992   2.457 -1.7198  1.2826 -0.0716
12728TIP3   OH259598   4.758   0.385  13.038 -0.3847  0.4401  0.0958
12728TIP3    H159599   4.698   0.432  13.096  0.6767  2.2928 -0.2097
12728TIP3    H259600   4.746   0.426  12.953 -2.2160 -2.5103 -1.2305
12729TIP3   OH259601   3.917   3.763   5.669 -0.2474 -0.4481  0.1350
12729TIP3    H159602   3.936   3.750   5.576  1.2072  1.4714  0.1252
12729TIP3    H259603   3.828   3.798   5.670  1.2166  4.0058 -1.0516
12730TIP3   OH259604   0.981   3.768   2.038 -0.3222 -0.1729 -0.2958
12730TIP3    H159605   1.005   3.679   2.011  1.4086  0.3608 -0.6953
12730TIP3    H259606   1.032   3.824   1.980 -0.6322  1.0673  0.5960
12731TIP3   OH259607   0.081   2.141  11.779 -0.0845  1.1347  0.3707
12731TIP3    H159608   0.114   2.157  11.691  0.3960  1.0700  0.5335
12731TIP3    H259609   0.061   2.228  11.814 -2.0842  1.0642 -0.4607
12732TIP3   OH259610   0.680   3.888  16.483  0.0271 -0.5042 -0.0174
12732TIP3    H159611   0.691   3.808  16.432 -0.9356  0.3510 -1.6692
12732TIP3    H259612   0.760   3.938  16.467  0.1578 -0.6733  0.1150
12733TIP3   OH259613   3.493   4.726   0.713 -0.0801  0.0819  0.5876
12733TIP3    H159614   3.447   4.809   0.703 -0.6622 -0.3219 -0.2127
12733TIP3    H259615   3.556   4.742   0.783  0.7092  1.5882 -0.4000
12734TIP3   OH259616   5.988   4.976   5.361 -0.5720  0.4202 -0.5106
12734TIP3    H159617   6.005   5.000   5.270  0.4527 -0.4239 -0.5690
12734TIP3    H259618   6.035   4.893   5.373  0.7262  1.3301  1.2406
12735TIP3   OH259619   3.639   0.184   5.283 -0.3212 -0.0650  0.1900
12735TIP3    H159620   3.598   0.139   5.208 -0.0437  1.5144 -0.9737
12735TIP3    H259621   3.726   0.146   5.288 -0.4255 -0.3656 -0.1289
12736TIP3   OH259622   5.729   3.440   0.206  0.0306 -0.5409 -0.4040
12736TIP3    H159623   5.779   3.368   0.168 -0.8522 -0.7790 -1.1528
12736TIP3    H259624   5.729   3.423   0.300  1.2544 -0.5889 -0.3923
12737TIP3   OH259625   4.681   0.395   5.226 -0.0179  0.2085 -0.1577
12737TIP3    H159626   4.756   0.453   5.241 -0.3113  0.1918  1.5828
12737TIP3    H259627   4.674   0.390   5.130  1.2329  1.4501 -0.3593
12738TIP3   OH259628   4.989   5.397   6.818  0.0024 -0.0296 -0.2259
12738TIP3    H159629   4.986   5.490   6.797 -1.0048 -0.3632 -1.7152
12738TIP3    H259630   5.082   5.374   6.809  0.2105  0.7528 -0.1507
12739TIP3   OH259631   3.042   5.098  15.408  0.2309 -0.2637  0.3308
12739TIP3    H159632   2.974   5.114  15.343  0.2415  0.6551  0.5253
12739TIP3    H259633   3.123   5.099  15.358  0.4271  2.3632  0.5550
12740TIP3   OH259634   2.818   4.004  15.517 -0.0764 -0.1122  0.3754
12740TIP3    H159635   2.827   3.942  15.589  1.0207  0.0972  0.4316
12740TIP3    H259636   2.810   4.090  15.559 -0.4175 -0.0865  0.2661
12741TIP3   OH259637   4.656   5.685  13.642  0.7789  0.0822 -0.1849
12741TIP3    H159638   4.644   5.779  13.647  0.6146 -0.0007  1.4822
12741TIP3    H259639   4.700   5.661  13.724  1.5563 -1.1834 -0.9295
12742TIP3   OH259640   6.011   5.591  12.747  0.7875  0.1275  0.5878
12742TIP3    H159641   6.065   5.646  12.805  1.0207 -1.0609  1.5524
12742TIP3    H259642   6.063   5.582  12.667  1.5377 -0.1050  1.0891
12743TIP3   OH259643   3.019   5.998  14.295  0.4175 -0.4524 -0.4455
12743TIP3    H159644   3.105   6.040  14.299  1.0709 -1.6394 -1.4391
12743TIP3    H259645   2.962   6.055  14.347  1.7453  0.4773  0.0361
12744TIP3   OH259646   3.501   3.244   4.999  0.1488 -0.3204  0.1564
12744TIP3    H159647   3.449   3.324   5.006 -2.3299 -1.8339  0.2767
12744TIP3    H259648   3.517   3.233   4.905  0.6510  0.3695  0.1527
12745TIP3   OH259649   2.752   0.075  13.134 -0.3081  0.2056  0.0108
12745TIP3    H159650   2.808   0.151  13.150  0.0882  0.0969 -0.7889
12745TIP3    H259651   2.730   0.081  13.041 -1.3322  0.0366  0.2316
12746TIP3   OH259652   2.906   0.573   1.841  0.5522 -0.5462  0.6871
12746TIP3    H159653   2.906   0.504   1.907 -1.0537  0.1625  1.4775
12746TIP3    H259654   2.939   0.651   1.886  2.0192 -0.6775 -0.1031
12747TIP3   OH259655   6.327   6.432  13.004 -0.2962 -0.4749 -0.5807
12747TIP3    H159656   6.278   6.513  12.986 -1.2993 -0.4797  1.8258
12747TIP3    H259657   6.417   6.461  13.014 -0.5107  0.2251 -0.5968
12748TIP3   OH259658   0.653   0.460   5.432  0.1551  0.0629  0.0623
12748TIP3    H159659   0.659   0.551   5.405 -0.2065 -0.1563 -0.7773
12748TIP3    H259660   0.738   0.422   5.409 -0.3536 -0.2665 -1.3435
12749TIP3   OH259661   6.635   6.446   5.519  0.6095  0.6275 -0.0844
12749TIP3    H159662   6.593   6.492   5.446 -4.0684  2.2293  3.1317
12749TIP3    H259663   6.656   6.516   5.581  1.3412 -0.9216  1.4812
12750TIP3   OH259664   4.301   6.241  14.543  0.8024 -0.1615  0.2015
12750TIP3    H159665   4.265   6.212  14.460  0.2175  0.1401  0.3509
12750TIP3    H259666   4.314   6.160  14.593  0.4915 -0.2825  0.0851
12751TIP3   OH259667   4.681   1.034   3.739  0.1734 -0.1005  0.5038
12751TIP3    H159668   4.763   1.085   3.745 -0.7254  1.3727  0.8087
12751TIP3    H259669   4.655   1.021   3.830 -0.0977 -0.2894  0.3997
12752TIP3   OH259670   2.926   1.621   3.541 -0.2286  0.4398  0.2874
12752TIP3    H159671   2.882   1.588   3.463 -1.8828 -0.8205  1.6880
12752TIP3    H259672   3.019   1.625   3.516 -0.3620 -2.3509 -0.9863
12753TIP3   OH259673   6.758   0.671   2.796  0.3521  0.4439  0.1138
12753TIP3    H159674   6.705   0.748   2.816  0.1801  0.2694  0.3421
12753TIP3    H259675   6.709   0.627   2.726  1.2498  1.3600 -1.1342
12754TIP3   OH259676   6.720   0.329   2.517  0.3892  0.6801  0.5018
12754TIP3    H159677   6.787   0.316   2.584 -0.2285  1.7026  1.3386
12754TIP3    H259678   6.674   0.408   2.543  0.0131  1.0143 -1.0536
12755TIP3   OH259679   3.604   0.322   1.957  0.0119 -0.6165 -0.7075
12755TIP3    H159680   3.648   0.367   2.030 -0.5331 -1.4249  0.1542
12755TIP3    H259681   3.557   0.391   1.911  0.2506 -0.1086 -0.2131
12756TIP3   OH259682   1.260   2.939   0.546  0.2777 -0.2578  0.2107
12756TIP3    H159683   1.324   2.869   0.562  0.4233 -0.1292  0.2013
12756TIP3    H259684   1.258   2.948   0.451 -0.4058 -0.8563  0.1578
12757TIP3   OH259685   3.399   1.858  13.548 -0.1846  0.0063 -0.4484
12757TIP3    H159686   3.352   1.939  13.566 -0.1541 -0.1557  0.3859
12757TIP3    H259687   3.343   1.789  13.582  0.9675 -0.1482  1.2498
12758TIP3   OH259688   6.554   2.993  15.350  0.3169 -0.0230  0.0018
12758TIP3    H159689   6.526   2.990  15.259 -0.0854 -1.4050  0.1420
12758TIP3    H259690   6.613   2.918  15.359 -1.9792 -1.7727  1.5703
12759TIP3   OH259691   0.858   4.539  10.949 -0.5215 -0.4404 -0.2936
12759TIP3    H159692   0.889   4.457  10.910  2.9485 -0.5612  2.1798
12759TIP3    H259693   0.794   4.511  11.015 -1.4168 -0.8460 -1.3112
12760TIP3   OH259694   2.746   6.737  14.241 -0.0489  0.7574  0.6278
12760TIP3    H159695   2.678   6.736  14.309 -0.3060 -0.5436  0.3733
12760TIP3    H259696   2.703   6.701  14.164  1.0660 -0.5756  0.5963
12761TIP3   OH259697   5.432   4.019   2.471 -0.0685 -0.3968  0.0133
12761TIP3    H159698   5.362   3.962   2.439 -1.7208  1.5252 -0.0430
12761TIP3    H259699   5.396   4.058   2.551  1.2265  0.1061  0.3789
12762TIP3   OH259700   5.703   0.381  13.713 -0.1092  0.1324  0.2363
12762TIP3    H159701   5.706   0.318  13.784 -0.0857 -0.1256  0.0087
12762TIP3    H259702   5.644   0.342  13.648 -0.4095  0.5275  0.2688
12763TIP3   OH259703   2.395   1.932   2.582 -0.2606 -0.1570  0.2865
12763TIP3    H159704   2.394   2.023   2.553  1.4570  0.5605  2.2685
12763TIP3    H259705   2.457   1.888   2.523 -1.6652 -0.2659 -1.1562
12764TIP3   OH259706   1.221   2.070  16.368 -0.2944 -0.1930 -0.1247
12764TIP3    H159707   1.188   1.981  16.370  0.0734 -0.4522 -2.4339
12764TIP3    H259708   1.183   2.108  16.289 -1.5448  2.1848  1.5190
12765TIP3   OH259709   1.756   0.401   6.607 -0.2186  0.5313  0.0997
12765TIP3    H159710   1.821   0.332   6.592  0.1304  0.8125  0.2887
12765TIP3    H259711   1.773   0.465   6.538 -0.4530  0.4929  0.0061
12766TIP3   OH259712   5.417   1.816   4.125  0.0424  0.2023 -0.6085
12766TIP3    H159713   5.426   1.867   4.044  0.2721 -1.3076 -1.5664
12766TIP3    H259714   5.403   1.882   4.193  0.9163  1.5792 -1.7067
12767TIP3   OH259715   4.075   0.786  11.478 -0.1133  0.5782 -0.7338
12767TIP3    H159716   4.062   0.695  11.452 -1.7125  0.1528  1.3230
12767TIP3    H259717   4.149   0.783  11.539  0.5535  0.8523 -1.5108
12768TIP3   OH259718   2.148   6.598  11.904 -0.0510 -0.4124 -0.0847
12768TIP3    H159719   2.217   6.533  11.916 -0.3135 -0.8955 -1.0950
12768TIP3    H259720   2.186   6.662  11.843 -0.1511 -0.1616  0.1169
12769TIP3   OH259721   0.835   0.727  16.870  0.9825 -0.0821  0.2175
12769TIP3    H159722   0.919   0.761  16.900  0.9250  0.5727 -0.3526
12769TIP3    H259723   0.852   0.697  16.780  0.4151  0.8299 -0.2082
12770TIP3   OH259724   5.400   4.279  12.293  0.1951  0.2913  0.0724
12770TIP3    H159725   5.391   4.235  12.378  2.5177  0.0139  0.2371
12770TIP3    H259726   5.421   4.370  12.315 -2.7031  1.1314 -0.2706
12771TIP3   OH259727   6.428   0.625   0.463 -0.3137 -0.5058 -0.5711
12771TIP3    H159728   6.399   0.708   0.503 -1.9162 -0.3917 -1.8388
12771TIP3    H259729   6.523   0.629   0.466 -0.2635  2.3124 -2.2892
12772TIP3   OH259730   2.298   2.115  13.776  0.6892  0.3004 -0.7623
12772TIP3    H159731   2.302   2.042  13.838  3.4416 -0.1203 -1.2783
12772TIP3    H259732   2.214   2.156  13.793  1.3232  0.3590  3.4336
12773TIP3   OH259733   2.033   4.012   4.777  0.0262 -0.8227  0.5355
12773TIP3    H159734   1.953   3.999   4.827 -0.3630  0.4660  0.2647
12773TIP3    H259735   2.103   4.004   4.842 -0.3664 -0.9968  0.9431
12774TIP3   OH259736   2.796   6.428   1.348  0.0969 -0.2653 -0.5965
12774TIP3    H159737   2.728   6.434   1.281  0.8127  0.5978 -1.2625
12774TIP3    H259738   2.756   6.377   1.419 -1.0054 -0.3344 -1.2583
12775TIP3   OH259739   6.502   3.802   4.155 -0.1349 -0.1343 -0.0672
12775TIP3    H159740   6.531   3.714   4.176  0.2374 -0.3205 -1.2982
12775TIP3    H259741   6.570   3.859   4.191 -0.9073 -0.2532  1.6858
12776TIP3   OH259742   1.863   1.051  16.912  0.4615  1.0342  0.6095
12776TIP3    H159743   1.810   1.103  16.973  0.0898  0.8870  0.4167
12776TIP3    H259744   1.801   1.026  16.843  0.8313  1.0264  0.2808
12777TIP3   OH259745   4.951   1.990   2.899  0.4712  0.8234 -0.1273
12777TIP3    H159746   4.881   2.052   2.917  0.5357  0.4518  1.5710
12777TIP3    H259747   4.933   1.958   2.811 -0.3651  2.1759 -0.4756
12778TIP3   OH259748   5.180   5.858  15.091 -0.2233  0.5653  0.0753
12778TIP3    H159749   5.190   5.943  15.049  0.8725  0.6021  0.3945
12778TIP3    H259750   5.243   5.859  15.163  0.2688 -0.7576 -0.3131
12779TIP3   OH259751   3.699   5.635   0.958  0.2135  0.4891  0.8894
12779TIP3    H159752   3.785   5.667   0.931 -0.4563  1.0845 -0.5956
12779TIP3    H259753   3.687   5.553   0.909  0.1395  0.1306  1.4908
12780TIP3   OH259754   1.375   2.100   1.691 -0.6502 -0.5904  0.2632
12780TIP3    H159755   1.453   2.062   1.733  2.1593  0.8802 -3.1268
12780TIP3    H259756   1.325   2.138   1.763  2.7672  0.0636  2.5282
12781TIP3   OH259757   4.624   5.692  15.221 -0.1913 -0.1679 -0.2629
12781TIP3    H159758   4.579   5.640  15.156  1.3527  0.0777 -1.6086
12781TIP3    H259759   4.561   5.760  15.246 -1.3203 -1.1468 -0.3715
12782TIP3   OH259760   3.351   4.019  15.648 -0.3314  0.4810 -0.2273
12782TIP3    H159761   3.373   3.960  15.576 -0.0638 -0.1003  0.3146
12782TIP3    H259762   3.427   4.013  15.707 -1.0162  0.0737  0.6465
12783TIP3   OH259763   0.170   0.453   3.122 -0.9001  0.3365 -0.0821
12783TIP3    H159764   0.199   0.518   3.059 -2.7612 -0.7790 -2.2236
12783TIP3    H259765   0.079   0.476   3.140 -1.0668 -0.6753  0.4723
12784TIP3   OH259766   3.914   3.670   5.425  0.3717  0.1215  0.7092
12784TIP3    H159767   3.820   3.664   5.405  0.2477  0.6128  1.1327
12784TIP3    H259768   3.957   3.659   5.340 -0.1359  1.7145  0.2076
12785TIP3   OH259769   6.423   1.191   3.981  0.4744  0.2630 -0.0070
12785TIP3    H159770   6.511   1.154   3.976  0.9547  1.0659  1.6969
12785TIP3    H259771   6.382   1.167   3.898  1.9963 -0.8759 -0.4754
12786TIP3   OH259772   0.092   1.907   3.125  0.1494 -0.2440 -0.1039
12786TIP3    H159773   0.122   1.817   3.120 -2.1111 -1.0002 -1.7825
12786TIP3    H259774   0.163   1.958   3.086  1.1438 -1.3414  0.1995
12787TIP3   OH259775   0.166   0.224  11.712 -0.4214  0.0538 -0.5892
12787TIP3    H159776   0.238   0.197  11.655 -2.8443 -3.6985 -2.3216
12787TIP3    H259777   0.162   0.156  11.779 -0.4067  2.0149  1.5096
12788TIP3   OH259778   0.363   2.535  11.501  0.8171 -0.1301 -0.1746
12788TIP3    H159779   0.458   2.521  11.493  0.8988  0.9726 -1.4850
12788TIP3    H259780   0.326   2.494  11.423  0.1133 -1.1325  0.6507
12789TIP3   OH259781   4.045   6.697  14.223 -0.2576 -0.0815 -0.5175
12789TIP3    H159782   4.055   6.677  14.130 -0.2019 -0.0673 -0.5147
12789TIP3    H259783   3.968   6.647  14.250  0.8812 -1.7279 -0.1120
12790TIP3   OH259784   1.747   3.625  11.392 -0.3318  0.3859  0.5444
12790TIP3    H159785   1.792   3.604  11.473  0.3334  2.2745  0.7275
12790TIP3    H259786   1.815   3.662  11.335 -1.2366  1.3781  0.0617
12791TIP3   OH259787   1.380   5.512  12.660 -0.6848  0.3083  0.3212
12791TIP3    H159788   1.472   5.533  12.645 -0.5180 -0.7474 -0.2805
12791TIP3    H259789   1.376   5.483  12.752 -0.4121  0.3374  0.3418
12792TIP3   OH259790   2.165   1.761   2.590 -0.7930  0.4374 -0.0951
12792TIP3    H159791   2.234   1.825   2.575  0.0203  0.3888  2.9157
12792TIP3    H259792   2.084   1.806   2.567 -0.1712  2.3430  1.2539
12793TIP3   OH259793   3.403   2.584  12.261  0.5582 -0.3297  0.1070
12793TIP3    H159794   3.496   2.605  12.266  0.5006  0.1670 -0.6866
12793TIP3    H259795   3.375   2.574  12.352  1.2023  0.3684  0.3865
12794TIP3   OH259796   1.462   3.224  11.482  0.2227  0.0795 -0.5974
12794TIP3    H159797   1.469   3.134  11.448  0.1033 -0.7921  1.4949
12794TIP3    H259798   1.388   3.262  11.435 -0.4940 -1.3494 -0.6802
12795TIP3   OH259799   0.392   5.317  11.128 -0.1089  0.4889 -0.7071
12795TIP3    H159800   0.353   5.396  11.090 -2.4058 -0.9100 -1.4352
12795TIP3    H259801   0.382   5.251  11.060 -1.9321 -1.4275  1.2778
12796TIP3   OH259802   0.812   0.499   0.063 -0.6919  0.4749 -0.1476
12796TIP3    H159803   0.780   0.589   0.049  0.0363  0.7319 -0.1857
12796TIP3    H259804   0.755   0.464   0.132 -0.1949  1.3882  0.7479
12797TIP3   OH259805   5.161   2.076  12.488 -0.5949  0.1964 -0.2785
12797TIP3    H159806   5.221   2.145  12.462  0.1957  0.0725  1.0907
12797TIP3    H259807   5.189   1.999  12.438  0.1274  0.2525  0.0230
12798TIP3   OH259808   6.691   5.765   1.490 -0.4722  0.0556 -0.0025
12798TIP3    H159809   6.713   5.736   1.401  0.3759  0.7364 -0.0381
12798TIP3    H259810   6.698   5.687   1.544 -0.6274 -0.2915 -0.4834
12799TIP3   OH259811   1.114   6.245  10.967  0.2155 -0.0430  0.1964
12799TIP3    H159812   1.065   6.186  10.911 -0.0539 -2.0117  2.3730
12799TIP3    H259813   1.052   6.315  10.989 -1.2538 -1.7539  1.7786
12800TIP3   OH259814   3.525   2.341  13.895 -0.3229 -0.3085 -0.8186
12800TIP3    H159815   3.538   2.292  13.976 -1.0356  0.9635  0.1194
12800TIP3    H259816   3.511   2.274  13.828 -0.9056 -1.3898  0.3368
12801TIP3   OH259817   0.834   3.365   1.164 -0.1059  0.2543  0.0626
12801TIP3    H159818   0.751   3.390   1.122 -0.4926  0.0154  0.6793
12801TIP3    H259819   0.829   3.270   1.173 -0.1754  0.3382  0.9655
12802TIP3   OH259820   5.058   2.901   1.492 -0.6928  0.6006 -0.9939
12802TIP3    H159821   5.016   2.973   1.446  0.3111  1.0100 -1.2988
12802TIP3    H259822   5.152   2.917   1.481 -0.2767  1.8701  2.9152
12803TIP3   OH259823   3.269   3.775  10.548  0.3828  0.9776 -0.4948
12803TIP3    H159824   3.324   3.734  10.481 -0.1665 -1.1332  0.2661
12803TIP3    H259825   3.314   3.856  10.569  1.1922  1.1391 -2.5598
12804TIP3   OH259826   2.992   0.424   4.720  0.7051  0.3693 -0.4093
12804TIP3    H159827   3.040   0.439   4.801  0.2119  0.1982 -0.0841
12804TIP3    H259828   3.047   0.364   4.670  0.8329  0.1857 -0.0464
12805TIP3   OH259829   0.573   4.605  14.959 -0.0904  0.3819 -0.2456
12805TIP3    H159830   0.650   4.656  14.984  0.0618 -0.1806  0.4749
12805TIP3    H259831   0.562   4.622  14.865  0.7815  0.6354 -0.3080
12806TIP3   OH259832   1.183   0.435   1.499 -0.2798  0.1362 -0.3065
12806TIP3    H159833   1.126   0.412   1.572 -0.8172  0.1661 -0.7132
12806TIP3    H259834   1.247   0.496   1.536  0.0179 -0.5558  0.3499
12807TIP3   OH259835   0.531   6.352  14.002  0.1201 -0.4976  0.0509
12807TIP3    H159836   0.523   6.365  13.908 -2.4783 -0.6103  0.1830
12807TIP3    H259837   0.490   6.430  14.040  0.3778 -0.8611  1.0941
12808TIP3   OH259838   5.835   2.855   0.288 -0.0569  0.0620 -0.1198
12808TIP3    H159839   5.847   2.792   0.359 -1.1397  0.2098  0.2243
12808TIP3    H259840   5.892   2.824   0.218 -0.9398 -1.6017 -0.1499
12809TIP3   OH259841   1.849   3.723   5.679  0.2570 -0.0408  0.2088
12809TIP3    H159842   1.907   3.681   5.742  0.5998  0.8982  0.5409
12809TIP3    H259843   1.786   3.655   5.654  0.5300 -0.6092  1.0517
12810TIP3   OH259844   2.240   3.218   4.491  0.0277 -0.0940  0.5248
12810TIP3    H159845   2.329   3.183   4.491 -0.5175 -1.5433  0.3129
12810TIP3    H259846   2.221   3.233   4.398  0.1008  0.3663  0.5830
12811TIP3   OH259847   4.285   0.163   5.192 -0.1790  0.2512  0.0101
12811TIP3    H159848   4.267   0.069   5.194 -0.0705  0.2302  0.0008
12811TIP3    H259849   4.224   0.198   5.126  1.1546 -0.1066 -1.4766
12812TIP3   OH259850   3.951   2.535  15.852 -0.2846  0.1279 -0.1266
12812TIP3    H159851   3.987   2.604  15.907  0.4630 -0.5267  0.2315
12812TIP3    H259852   4.008   2.459  15.868  0.9368  0.3118 -2.9418
12813TIP3   OH259853   0.787   1.753   4.442  0.3840 -0.1887  0.7621
12813TIP3    H159854   0.861   1.799   4.403 -0.8634  0.1529 -1.4053
12813TIP3    H259855   0.720   1.821   4.454  0.4818 -0.4179  3.0290
12814TIP3   OH259856   4.150   3.101  14.876  0.5973  0.0866 -0.0005
12814TIP3    H159857   4.061   3.124  14.847  0.5196 -0.1906  0.0125
12814TIP3    H259858   4.194   3.185  14.886  0.0165  0.2876  1.0165
12815TIP3   OH259859   3.188   6.727   0.104 -0.6685  0.0212 -0.1283
12815TIP3    H159860   3.176   6.690   0.017  0.3489 -0.2684 -0.1533
12815TIP3    H259861   3.283   6.735   0.114 -0.8160  1.7563  0.2448
12816TIP3   OH259862   4.157   2.653   3.593 -0.3581  0.0005 -0.0405
12816TIP3    H159863   4.120   2.610   3.516  1.4916 -0.5734 -0.6586
12816TIP3    H259864   4.213   2.722   3.558  1.0235 -0.6829  0.7266
12817TIP3   OH259865   4.761   2.867   2.197  0.2947  0.5806  0.5659
12817TIP3    H159866   4.807   2.783   2.192  1.4235  1.2041 -0.1034
12817TIP3    H259867   4.812   2.919   2.259 -0.4341  0.7615  1.0251
12818TIP3   OH259868   1.360   4.286   4.633 -0.3707  0.5887 -0.1347
12818TIP3    H159869   1.444   4.258   4.596  0.1440 -0.0190  1.4278
12818TIP3    H259870   1.294   4.236   4.584  0.1360  1.3076 -1.5882
12819TIP3   OH259871   6.127   6.735   0.911  0.7596  0.0471 -0.5231
12819TIP3    H159872   6.101   6.684   0.834 -0.2025  0.0686 -0.2143
12819TIP3    H259873   6.210   6.695   0.938 -0.5642 -2.2299  0.4745
12820TIP3   OH259874   6.676   4.688   2.119 -0.4416 -0.9870  0.5562
12820TIP3    H159875   6.656   4.663   2.210  0.2045 -1.5078  0.5651
12820TIP3    H259876   6.762   4.730   2.124 -1.3608  1.0158  0.4879
12821TIP3   OH259877   2.636   5.423  16.153 -0.0855 -0.2301 -0.3578
12821TIP3    H159878   2.725   5.408  16.183  0.0149 -0.3396 -0.7100
12821TIP3    H259879   2.591   5.460  16.229 -0.5461 -2.9875  0.8408
12822TIP3   OH259880   2.640   3.516   3.223 -0.1591 -0.0797  0.4437
12822TIP3    H159881   2.636   3.425   3.195  0.2440  0.2790 -0.8506
12822TIP3    H259882   2.663   3.565   3.143  0.7769  1.0176  1.3427
12823TIP3   OH259883   2.543   5.077   6.141  0.5481 -0.4067  1.0548
12823TIP3    H159884   2.550   5.006   6.205  1.3836 -1.3762 -0.0457
12823TIP3    H259885   2.629   5.079   6.098  0.1249  0.4308  0.2017
12824TIP3   OH259886   6.680   2.226   0.719 -0.5707  0.0266  0.2479
12824TIP3    H159887   6.740   2.156   0.748  0.5893  0.2909 -1.3487
12824TIP3    H259888   6.593   2.192   0.737 -0.0080 -1.5904  0.0929
12825TIP3   OH259889   3.982   2.430   1.047 -0.5816  0.3609 -0.3114
12825TIP3    H159890   3.998   2.513   1.001 -0.0627  0.5200  0.1495
12825TIP3    H259891   3.989   2.452   1.140  0.7666 -0.4250 -0.2011
12826TIP3   OH259892   2.133   4.256   0.905 -0.2935  0.4272 -0.2196
12826TIP3    H159893   2.175   4.245   0.990  0.5059  0.5667 -0.5962
12826TIP3    H259894   2.163   4.181   0.853  0.6082  1.2739 -0.9398
12827TIP3   OH259895   0.911   2.442  13.519 -0.3811  0.1077 -0.5608
12827TIP3    H159896   0.945   2.398  13.442 -0.7644  0.5084 -0.9603
12827TIP3    H259897   0.987   2.450  13.577 -0.2051 -0.6266 -0.6877
12828TIP3   OH259898   0.040   1.780   4.480 -0.4775 -0.2322 -0.4273
12828TIP3    H159899   0.055   1.791   4.386 -0.2740  0.8288 -0.2875
12828TIP3    H259900   0.126   1.795   4.520 -0.7033  0.0031 -0.0255
12829TIP3   OH259901   6.626   1.531  13.359 -0.8768 -0.2647  0.1281
12829TIP3    H159902   6.638   1.523  13.453 -0.7457  0.8395  0.2275
12829TIP3    H259903   6.541   1.491  13.342 -1.0267 -0.2267  0.7575
12830TIP3   OH259904   2.591   2.587  10.998  0.1060 -0.4889 -0.1517
12830TIP3    H159905   2.607   2.577  10.904 -1.9148 -2.1841 -0.3825
12830TIP3    H259906   2.500   2.559  11.010  0.2348 -0.0539  2.2823
12831TIP3   OH259907   5.737   0.127  11.561 -0.4102 -0.4815 -0.2443
12831TIP3    H159908   5.768   0.063  11.497  0.3663  0.7773 -1.1823
12831TIP3    H259909   5.728   0.208  11.511 -1.4955  0.1254  0.8841
12832TIP3   OH259910   4.932   0.670   1.322 -0.0295 -0.4289  0.3806
12832TIP3    H159911   4.931   0.603   1.390 -0.6559 -0.3615  0.4418
12832TIP3    H259912   4.954   0.751   1.368 -0.2950 -0.4116  0.4802
12833TIP3   OH259913   5.310   5.957   0.175  0.0317 -0.5638  0.9263
12833TIP3    H159914   5.328   6.015   0.101 -1.1723 -0.1708  0.9299
12833TIP3    H259915   5.329   5.869   0.141 -0.2707 -0.3620  0.2168
12834TIP3   OH259916   0.203   2.815   4.400  0.0073  0.3488  0.1189
12834TIP3    H159917   0.125   2.769   4.432  0.6765 -0.8375  0.0574
12834TIP3    H259918   0.195   2.814   4.305 -1.0654  2.3039  0.1270
12835TIP3   OH259919   2.818   0.966  16.587 -0.6543 -0.1760  0.0537
12835TIP3    H159920   2.776   0.970  16.673  0.7098 -0.8203  0.7931
12835TIP3    H259921   2.799   0.878  16.556  0.0810 -0.4531  0.3706
12836TIP3   OH259922   6.464   5.630  16.305 -0.3024 -0.4633 -0.4636
12836TIP3    H159923   6.528   5.580  16.255  0.2201 -0.2965  0.0421
12836TIP3    H259924   6.394   5.568  16.323  0.8586 -1.3416  1.1517
12837TIP3   OH259925   1.296   4.130   0.427 -0.0600  0.2442 -0.6436
12837TIP3    H159926   1.205   4.106   0.409  1.1931 -4.5122 -1.9299
12837TIP3    H259927   1.327   4.063   0.488  3.0084  0.7493 -1.4743
12838TIP3   OH259928   4.276   1.027   3.565  0.1421 -0.0900  0.3817
12838TIP3    H159929   4.295   0.943   3.607 -1.8554 -0.2410  1.0576
12838TIP3    H259930   4.212   1.069   3.621  0.9276  1.8339 -0.0664
12839TIP3   OH259931   1.113   0.265  15.214 -0.0601  0.3010  0.3013
12839TIP3    H159932   1.067   0.349  15.221 -1.9756 -0.7225  0.5118
12839TIP3    H259933   1.076   0.224  15.136  1.7036  0.1073 -0.4755
12840TIP3   OH259934   1.408   3.589   1.246 -0.0800 -0.5066  0.7963
12840TIP3    H159935   1.436   3.577   1.337  0.6784 -0.7854  0.5313
12840TIP3    H259936   1.489   3.602   1.197 -0.4939 -0.2160  0.1766
12841TIP3   OH259937   6.306   0.138  13.015  0.2209  0.0754 -0.2434
12841TIP3    H159938   6.328   0.115  12.925  1.2363  0.9479 -0.2403
12841TIP3    H259939   6.215   0.167  13.010 -0.2113 -1.2979 -0.7039
12842TIP3   OH259940   1.186   2.560  16.984  0.3289  0.4948 -0.2474
12842TIP3    H159941   1.244   2.494  17.021 -1.0051 -0.9494 -0.6256
12842TIP3    H259942   1.199   2.637  17.039  1.0063 -0.4692  0.9972
12843TIP3   OH259943   5.860   2.663  15.046 -0.3139 -0.4474  0.4761
12843TIP3    H159944   5.889   2.617  14.968 -0.5431 -0.6876  0.5321
12843TIP3    H259945   5.938   2.710  15.077  0.2476 -1.7595  1.1056
12844TIP3   OH259946   3.106   6.792   6.331  0.3396  0.1804 -0.0089
12844TIP3    H159947   3.152   6.874   6.345  1.1454 -0.4771  1.4879
12844TIP3    H259948   3.130   6.738   6.406  0.2372 -1.6097 -1.2026
12845TIP3   OH259949   5.169   4.770   2.765  0.3847 -0.9598  0.5638
12845TIP3    H159950   5.179   4.756   2.859 -1.7679 -0.3709  0.9239
12845TIP3    H259951   5.175   4.864   2.753 -0.1033 -0.9654  0.2267
12846TIP3   OH259952   5.652   2.961  14.640 -0.2162  0.1984  1.2561
12846TIP3    H159953   5.574   2.908  14.623 -0.6835  0.9441  0.9929
12846TIP3    H259954   5.618   3.050  14.652  0.6165  0.5767  0.8935
12847TIP3   OH259955   5.003   4.526   6.101 -0.7645  0.1547 -0.3239
12847TIP3    H159956   4.909   4.522   6.080 -0.7232  1.4555 -0.8146
12847TIP3    H259957   5.012   4.604   6.155 -0.4795 -1.8182  2.7618
12848TIP3   OH259958   4.113   4.156   0.384  0.0548 -0.0337  0.4342
12848TIP3    H159959   4.143   4.130   0.297  0.8071 -0.6245  0.8592
12848TIP3    H259960   4.112   4.252   0.382  0.2224 -0.0440 -0.1701
12849TIP3   OH259961   3.248   4.388  12.757 -0.6327 -0.4344  0.0289
12849TIP3    H159962   3.223   4.452  12.691  0.8602 -1.3660 -1.5185
12849TIP3    H259963   3.318   4.337  12.716 -2.0541 -3.3708  0.9789
12850TIP3   OH259964   6.516   0.015   5.352 -0.0326  0.3392  0.1314
12850TIP3    H159965   6.498  -0.066   5.303  0.2495  0.0530  0.4953
12850TIP3    H259966   6.497   0.085   5.289  0.2659 -0.0202 -0.3734
12851TIP3   OH259967   4.909   0.836   3.884 -0.1261 -0.4975  0.4395
12851TIP3    H159968   4.968   0.763   3.865 -0.4762 -0.8486  0.6626
12851TIP3    H259969   4.870   0.859   3.800  0.6104 -0.0085  0.2266
12852TIP3   OH259970   4.056   1.820  15.552 -0.5133 -0.1379  0.6345
12852TIP3    H159971   4.070   1.894  15.612 -1.0807  0.3827  0.1417
12852TIP3    H259972   4.039   1.745  15.609  0.1322  0.0969  1.1422
12853TIP3   OH259973   3.285   5.019   2.983  0.7866 -0.4432  0.4188
12853TIP3    H159974   3.342   4.976   3.047  0.2897  0.2498  1.3512
12853TIP3    H259975   3.317   5.110   2.979  1.7619 -0.8151 -1.4529
12854TIP3   OH259976   6.564   0.313  12.919 -0.0118  0.0821 -0.0898
12854TIP3    H159977   6.645   0.262  12.917  1.3047  1.9270  1.8690
12854TIP3    H259978   6.519   0.284  12.998 -1.2840 -0.8744 -1.1226
12855TIP3   OH259979   5.507   3.516  12.068 -0.0599  0.1348  0.1248
12855TIP3    H159980   5.553   3.432  12.067 -0.2048  0.0556  0.1152
12855TIP3    H259981   5.415   3.493  12.067 -0.0995  0.3013 -0.3316
12856TIP3   OH259982   3.158   4.849  10.703 -0.2422  0.3257 -0.3225
12856TIP3    H159983   3.136   4.941  10.717 -1.0973 -0.1495  1.6340
12856TIP3    H259984   3.203   4.822  10.783 -0.9592 -1.2433 -0.4134
12857TIP3   OH259985   2.561   2.630   3.825 -0.0115 -0.2259 -0.0772
12857TIP3    H159986   2.496   2.615   3.756  0.0466 -1.3009  0.0775
12857TIP3    H259987   2.633   2.674   3.781 -0.4595  0.1515 -0.4497
12858TIP3   OH259988   5.300   1.696   1.647 -0.3443  0.0235  0.3295
12858TIP3    H159989   5.318   1.785   1.677 -2.5082 -0.2709  2.8476
12858TIP3    H259990   5.386   1.657   1.636  0.6364  1.9288  0.7237
12859TIP3   OH259991   5.441   4.749   3.147  0.3521 -0.0456  0.2729
12859TIP3    H159992   5.510   4.684   3.130 -0.2825 -0.5586 -0.3997
12859TIP3    H259993   5.488   4.825   3.181  1.5895  0.5059 -2.3737
12860TIP3   OH259994   2.304   2.707  13.858 -0.5046 -0.5106  0.9810
12860TIP3    H159995   2.210   2.716  13.843 -0.5656 -1.0913  0.9806
12860TIP3    H259996   2.342   2.789  13.826 -0.7693 -1.1759 -1.2414
12861TIP3   OH259997   5.406   4.374  13.003  0.0733  0.1012  0.8828
12861TIP3    H159998   5.380   4.312  13.072 -0.5744 -1.5744 -0.7961
12861TIP3    H259999   5.327   4.425  12.985 -0.8043 -1.7530 -0.8900
12862TIP3   OH260000   3.861   2.941  11.597  0.7933  0.1803 -0.0556
12862TIP3    H160001   3.844   3.005  11.666  0.6855  0.7032 -0.5484
12862TIP3    H260002   3.809   2.865  11.621 -2.2128  1.6441 -1.3902
12863TIP3   OH260003   3.224   2.118  12.347  0.1292 -0.2121 -0.0291
12863TIP3    H160004   3.170   2.130  12.426 -2.4031  0.2010 -1.7200
12863TIP3    H260005   3.300   2.175  12.362  0.2690 -0.9337  2.5130
12864TIP3   OH260006   0.723   6.230  13.837 -0.3463  0.0155 -0.6828
12864TIP3    H160007   0.770   6.305  13.800  0.5081 -0.5964 -0.8722
12864TIP3    H260008   0.657   6.269  13.894  1.5313  0.9248  1.0278
12865TIP3   OH260009   0.557   0.143  16.001 -0.3045  0.5466 -0.5896
12865TIP3    H160010   0.548   0.172  15.911 -1.0528  0.1155 -0.6592
12865TIP3    H260011   0.647   0.110  16.006 -0.1609  0.8526 -1.0909
12866TIP3   OH260012   4.763   6.724   3.693 -0.3535  0.1623  0.6368
12866TIP3    H160013   4.777   6.793   3.628  0.2181 -0.2105  0.3500
12866TIP3    H260014   4.669   6.725   3.709 -0.5414  0.1097 -0.3716
12867TIP3   OH260015   4.892   1.062  11.292 -0.3148  0.2543 -0.3900
12867TIP3    H160016   4.850   1.113  11.224 -1.2066  0.6573  0.4374
12867TIP3    H260017   4.823   1.047  11.357  0.4678 -0.2387  0.3540
12868TIP3   OH260018   2.449   1.216  15.747 -0.0112 -0.6734  0.0343
12868TIP3    H160019   2.500   1.297  15.751  2.3851 -2.1090  1.1950
12868TIP3    H260020   2.475   1.175  15.664  0.2408 -1.0991  0.3175
12869TIP3   OH260021   4.584   3.968  17.022 -0.3457 -0.1941  0.7474
12869TIP3    H160022   4.671   3.968  16.982 -0.4157  3.2167  0.2545
12869TIP3    H260023   4.600   3.947  17.114  1.0199  0.2003  0.6258
12870TIP3   OH260024   3.239   6.751   4.985 -0.0799 -0.0367 -0.4383
12870TIP3    H160025   3.236   6.693   5.061  0.7286 -2.2267 -1.9935
12870TIP3    H260026   3.153   6.741   4.943  0.7748 -1.8714 -1.8813
12871TIP3   OH260027   1.840   4.753   0.782  0.4260 -0.4855  0.1772
12871TIP3    H160028   1.784   4.808   0.836 -1.5995 -0.6458 -1.6082
12871TIP3    H260029   1.906   4.812   0.747  0.2469  0.1226  0.8450
12872TIP3   OH260030   0.312   4.355  11.291 -1.1136 -0.1376  0.8656
12872TIP3    H160031   0.395   4.324  11.327 -0.7587  0.4838  0.5972
12872TIP3    H260032   0.333   4.440  11.252 -1.1992 -1.3108 -1.9618
12873TIP3   OH260033   4.690   3.954  13.764  0.3794  0.1386  0.2344
12873TIP3    H160034   4.698   3.962  13.669  2.1855 -1.8180  0.1696
12873TIP3    H260035   4.737   4.030  13.799 -1.5489  1.7015 -0.3681
12874TIP3   OH260036   0.461   1.639   4.118 -0.3063 -0.0626  0.0278
12874TIP3    H160037   0.394   1.655   4.185 -0.0383  2.2957 -0.1667
12874TIP3    H260038   0.543   1.632   4.168 -0.1677  1.2715  0.0478
12875TIP3   OH260039   5.312   4.342   2.514  0.1407 -0.1985  0.0806
12875TIP3    H160040   5.395   4.311   2.478 -0.3964  0.0557 -1.4699
12875TIP3    H260041   5.245   4.291   2.468 -0.6405  1.2722 -0.4881
12876TIP3   OH260042   4.743   4.605  14.039  0.2457  0.1105  0.0273
12876TIP3    H160043   4.822   4.580  14.086  0.0530  0.5535  0.5872
12876TIP3    H260044   4.674   4.551  14.076  0.3357 -0.5218 -0.6953
12877TIP3   OH260045   2.329   4.221  10.200  0.0601 -0.3388 -0.1961
12877TIP3    H160046   2.249   4.261  10.166 -0.0655  0.9147  1.4367
12877TIP3    H260047   2.301   4.136  10.232 -0.6660  0.1419  0.4809
12878TIP3   OH260048   5.645   2.790   1.402  0.0038 -0.1899 -0.6671
12878TIP3    H160049   5.570   2.830   1.359  0.1622 -0.6796 -1.4156
12878TIP3    H260050   5.650   2.701   1.366  0.7386 -0.2755 -0.3856
12879TIP3   OH260051   4.780   3.720  13.189  0.5766 -0.0702  0.0578
12879TIP3    H160052   4.787   3.626  13.172  2.3674  0.0970 -0.3343
12879TIP3    H260053   4.696   3.731  13.234  0.5142 -1.8955  0.4351
12880TIP3   OH260054   6.072   0.281  12.989  0.4260 -0.4443 -0.8198
12880TIP3    H160055   5.978   0.268  12.978  0.6544 -1.8530 -1.4110
12880TIP3    H260056   6.088   0.371  12.960 -0.7310 -0.2072 -0.7439
12881TIP3   OH260057   2.500   5.938   1.830  0.2995  0.4481  1.2872
12881TIP3    H160058   2.436   5.927   1.760 -0.5841 -0.1087  2.1431
12881TIP3    H260059   2.447   5.964   1.906  0.8527 -1.5690  2.4414
12882TIP3   OH260060   2.569   2.354   0.479 -0.4044 -0.3761  0.4067
12882TIP3    H160061   2.651   2.356   0.528 -0.3558 -2.3871  0.5136
12882TIP3    H260062   2.525   2.274   0.510 -2.0751  0.2792 -0.1700
12883TIP3   OH260063   6.650   0.331   1.818  0.4230  0.8237  0.0336
12883TIP3    H160064   6.617   0.341   1.729 -2.4851  0.0825  0.8986
12883TIP3    H260065   6.651   0.420   1.853 -0.1718  0.9294 -0.2087
12884TIP3   OH260066   6.600   5.029   0.991 -0.2392 -0.7659 -0.0235
12884TIP3    H160067   6.596   5.123   1.008 -1.0254 -0.1602 -2.9702
12884TIP3    H260068   6.508   5.002   0.987 -0.0222 -1.6903  0.7069
12885TIP3   OH260069   1.558   1.594  16.851 -0.4523 -0.3261  0.4918
12885TIP3    H160070   1.596   1.635  16.928  0.4645  1.1649 -0.7056
12885TIP3    H260071   1.513   1.665  16.805 -0.6107 -1.0783 -0.5706
12886TIP3   OH260072   1.914   2.092  12.389  0.1461 -0.0546 -0.0433
12886TIP3    H160073   1.869   2.133  12.463  1.2735  1.1412  0.0069
12886TIP3    H260074   1.843   2.061  12.332 -0.7955  2.3146 -0.2653
12887TIP3   OH260075   2.079   4.695   3.299  0.0434 -0.0611  0.8277
12887TIP3    H160076   2.151   4.735   3.250 -0.5301 -1.5812 -1.4637
12887TIP3    H260077   2.028   4.649   3.232 -2.8754  0.6557  2.4046
12888TIP3   OH260078   3.122   5.048   4.354  0.9562 -0.1506 -0.0457
12888TIP3    H160079   3.037   5.038   4.397  0.7083  1.0482 -0.2345
12888TIP3    H260080   3.179   4.985   4.399 -0.0968 -1.1854 -0.1316
12889TIP3   OH260081   4.182   0.661   5.070 -0.6116 -0.2965  0.1513
12889TIP3    H160082   4.143   0.700   5.148  1.6319  0.1468  1.1457
12889TIP3    H260083   4.133   0.580   5.055 -1.4247 -0.1180  1.7029
12890TIP3   OH260084   1.463   2.178  13.264 -0.2757  0.0784  0.3039
12890TIP3    H160085   1.490   2.087  13.281  0.0702  0.0246 -0.4876
12890TIP3    H260086   1.430   2.209  13.348  1.6634 -0.0697  1.1816
12891TIP3   OH260087   0.053   3.743   0.438  0.4219  0.0278  0.2165
12891TIP3    H160088  -0.025   3.798   0.447  0.0110 -0.6497  0.8634
12891TIP3    H260089   0.114   3.797   0.387  0.2469  1.3191  1.3201
12892TIP3   OH260090   5.321   0.283   2.630  0.9411  0.2344  0.4789
12892TIP3    H160091   5.264   0.210   2.653  1.0073 -0.0945 -0.3669
12892TIP3    H260092   5.331   0.333   2.712 -0.0961 -0.0163  0.7664
12893TIP3   OH260093   3.723   2.336   5.312  0.2279 -0.0941  0.0927
12893TIP3    H160094   3.747   2.275   5.382  0.3178 -1.1129 -0.7984
12893TIP3    H260095   3.720   2.422   5.354  2.7446 -0.2940  0.8151
12894TIP3   OH260096   6.076   0.226  14.390  0.2667 -0.1692  0.3080
12894TIP3    H160097   6.075   0.321  14.401  0.4866 -0.3237  1.8745
12894TIP3    H260098   6.057   0.213  14.297 -0.0548  1.3880  0.1200
12895TIP3   OH260099   1.972   0.194   3.656  0.2844 -0.3708  0.3667
12895TIP3    H160100   1.948   0.262   3.719  1.3262 -0.0603  0.4513
12895TIP3    H260101   2.044   0.232   3.606 -0.5260 -0.6108 -1.0336
12896TIP3   OH260102   1.177   5.951  11.232  0.1644  0.0702  0.2798
12896TIP3    H160103   1.228   5.998  11.165 -0.7867  1.2762  0.3617
12896TIP3    H260104   1.139   6.020  11.286 -2.9150 -0.6576 -0.7655
12897TIP3   OH260105   6.588   3.169  14.041  0.2448 -0.3384 -0.1682
12897TIP3    H160106   6.584   3.168  14.137 -0.5616  0.8545 -0.1683
12897TIP3    H260107   6.497   3.163  14.013  0.3428  0.8791 -0.8173
12898TIP3   OH260108   0.836   3.095  14.131  0.3468  0.1254 -0.1120
12898TIP3    H160109   0.823   3.188  14.111  0.8126 -0.3604 -3.3054
12898TIP3    H260110   0.764   3.072  14.189 -0.8162  2.1044 -0.6836
12899TIP3   OH260111   2.549   0.464  15.823 -0.2426  0.3041 -0.9193
12899TIP3    H160112   2.550   0.370  15.806 -0.4575  0.2689 -0.7393
12899TIP3    H260113   2.469   0.479  15.874 -0.1142  0.5535 -0.7852
12900TIP3   OH260114   1.247   3.119  15.256 -0.2272 -0.2419  0.0864
12900TIP3    H160115   1.178   3.179  15.230 -0.2344 -0.0472  0.5380
12900TIP3    H260116   1.304   3.112  15.180  2.3726  3.9026  1.3346
12901TIP3   OH260117   5.883   5.580   4.192  0.3966 -0.0956 -0.5825
12901TIP3    H160118   5.809   5.581   4.131 -0.4109  0.9539  0.3891
12901TIP3    H260119   5.950   5.633   4.149  0.4756 -0.7535 -1.3013
12902TIP3   OH260120   2.524   4.348  13.760  0.1757  0.1457 -0.0299
12902TIP3    H160121   2.563   4.275  13.807  0.1292  0.9215  1.2374
12902TIP3    H260122   2.538   4.425  13.816 -0.4738  0.9787 -0.9551
12903TIP3   OH260123   1.357   5.468  10.614  0.2411  0.4069  0.0734
12903TIP3    H160124   1.348   5.389  10.561 -2.0530 -0.1998  1.2115
12903TIP3    H260125   1.451   5.485  10.616  0.5649 -0.6036 -2.5521
12904TIP3   OH260126   0.875   3.278   0.615 -0.3003  0.4807  0.7266
12904TIP3    H160127   0.783   3.300   0.633 -0.8681 -2.5601  2.1165
12904TIP3    H260128   0.922   3.311   0.692 -0.7345 -0.6607  1.5065
12905TIP3   OH260129   3.529   5.529   3.332 -0.0572 -0.3934 -0.1559
12905TIP3    H160130   3.558   5.574   3.252  0.5111 -2.5535 -1.2514
12905TIP3    H260131   3.603   5.475   3.357 -1.1453 -1.7083  0.3205
12906TIP3   OH260132   3.684   2.814   3.751 -0.1802  0.4523 -0.0489
12906TIP3    H160133   3.637   2.738   3.785 -0.8734  1.3459  1.0542
12906TIP3    H260134   3.618   2.883   3.744  0.6007  1.2099 -0.2208
12907TIP3   OH260135   6.178   5.697  13.146  0.0623  0.1721 -0.7112
12907TIP3    H160136   6.109   5.704  13.213  0.7862  1.5394 -0.0450
12907TIP3    H260137   6.247   5.646  13.189  0.9768  1.9504  0.0572
12908TIP3   OH260138   3.511   3.973  11.438  0.0619  0.2578  0.2853
12908TIP3    H160139   3.592   4.022  11.449  0.3869 -0.5485  1.6136
12908TIP3    H260140   3.486   3.946  11.526 -1.5118  0.2520 -0.1307
12909TIP3   OH260141   4.160   5.951  16.615  0.7601  0.7416  0.2569
12909TIP3    H160142   4.218   5.973  16.688  0.9226  0.0885  0.3271
12909TIP3    H260143   4.120   5.868  16.641  0.5382  0.6935 -0.2370
12910TIP3   OH260144   6.488   1.366  11.888 -0.1237 -0.3883  0.0250
12910TIP3    H160145   6.511   1.432  11.954 -0.5501 -0.1806 -0.0300
12910TIP3    H260146   6.398   1.388  11.863 -0.5287 -1.4311  0.5280
12911TIP3   OH260147   1.682   4.280  11.014 -0.0310 -0.4571  0.7514
12911TIP3    H160148   1.676   4.375  11.013 -0.2175 -0.4712 -0.2366
12911TIP3    H260149   1.745   4.258  10.946  0.2638 -1.0282  1.1986
12912TIP3   OH260150   5.194   3.239  11.194 -0.6992  0.1073 -0.1616
12912TIP3    H160151   5.140   3.162  11.211 -1.0191  0.1553 -0.9208
12912TIP3    H260152   5.207   3.239  11.100  0.6589  0.0870  0.0065
12913TIP3   OH260153   2.872   2.697  16.223  0.0123  0.2252  0.3274
12913TIP3    H160154   2.877   2.606  16.195  1.1792  0.1693  0.6902
12913TIP3    H260155   2.844   2.745  16.144 -1.7357 -0.5628  0.4232
12914TIP3   OH260156   3.187   5.818  11.613 -0.2303 -0.3943  0.1203
12914TIP3    H160157   3.121   5.792  11.548  0.0583  2.7731 -1.6337
12914TIP3    H260158   3.137   5.868  11.678  0.2523  1.3562 -0.8045
12915TIP3   OH260159   6.793   2.623  12.652  0.1660  0.3611 -0.0876
12915TIP3    H160160   6.733   2.590  12.586  2.6867 -0.2558 -2.2410
12915TIP3    H260161   6.789   2.559  12.723  0.2971 -1.1970 -1.4341
12916TIP3   OH260162   0.336   0.990  14.250 -0.1843  0.0565 -0.1425
12916TIP3    H160163   0.323   0.958  14.339  0.9584  0.9503  0.3728
12916TIP3    H260164   0.425   0.964  14.227 -0.9695 -1.5486 -1.6629
12917TIP3   OH260165   3.943   3.019  12.552 -0.7225 -0.1615  0.2168
12917TIP3    H160166   3.901   3.078  12.489  2.5726 -0.2989 -2.4173
12917TIP3    H260167   4.004   3.074  12.600  0.3202 -0.8763 -0.2508
12918TIP3   OH260168   4.067   0.285  13.628 -0.2902 -0.4276  0.5976
12918TIP3    H160169   3.986   0.301  13.676 -1.2049 -1.7167 -0.4432
12918TIP3    H260170   4.099   0.201  13.660 -0.6691 -1.0833 -0.6684
12919TIP3   OH260171   2.888   4.557   0.905 -0.0906 -0.5090 -0.3834
12919TIP3    H160172   2.846   4.530   0.987  0.4401 -0.0521  0.0417
12919TIP3    H260173   2.815   4.586   0.850 -0.4396 -0.7026 -0.0288
12920TIP3   OH260174   5.159   3.128   0.074  0.0063 -0.2971 -0.6120
12920TIP3    H160175   5.208   3.179   0.139 -1.4396  0.5381 -0.1233
12920TIP3    H260176   5.114   3.194   0.022 -1.9179 -1.0335  0.0342
12921TIP3   OH260177   1.081   3.699   4.303 -0.4897  0.1543  0.6260
12921TIP3    H160178   1.174   3.689   4.324 -0.1847 -0.1660 -0.8044
12921TIP3    H260179   1.067   3.646   4.225 -1.4122  1.7849 -0.3884
12922TIP3   OH260180   4.841   0.686  15.581 -0.2598 -0.4295 -0.1280
12922TIP3    H160181   4.828   0.629  15.505 -0.1708 -0.5686 -0.0398
12922TIP3    H260182   4.800   0.639  15.654  0.3422 -0.6680  0.0656
12923TIP3   OH260183   6.696   1.723  14.662  0.2651 -0.3347  0.0337
12923TIP3    H160184   6.777   1.741  14.614 -0.1294  1.4709  0.0005
12923TIP3    H260185   6.627   1.757  14.606 -0.4188 -0.5737  0.7210
12924TIP3   OH260186   1.141   2.648  13.295  0.4274  0.3954 -0.1200
12924TIP3    H160187   1.205   2.687  13.355  0.0484 -0.4078  0.8440
12924TIP3    H260188   1.182   2.653  13.209  0.7266  2.1697  0.0829
12925TIP3   OH260189   2.639   1.987  11.815  0.3147  0.1341  0.2024
12925TIP3    H160190   2.688   1.925  11.870 -2.3327 -1.6282  0.7576
12925TIP3    H260191   2.703   2.055  11.793  2.8889 -1.8128  1.1148
12926TIP3   OH260192   6.012   0.658  16.120 -0.8923 -0.4856  0.5113
12926TIP3    H160193   5.931   0.680  16.073 -0.2916 -0.5004 -0.5567
12926TIP3    H260194   6.071   0.731  16.103 -0.8736 -0.1771  1.8116
12927TIP3   OH260195   3.431   2.093  15.798  0.0366 -0.2418  0.0103
12927TIP3    H160196   3.501   2.081  15.862  0.2983  2.2585  0.3116
12927TIP3    H260197   3.352   2.104  15.851 -0.0237  0.1458 -0.1518
12928TIP3   OH260198   2.727   1.680  17.000 -0.1176  0.1812  0.7752
12928TIP3    H160199   2.645   1.704  17.043 -0.1388 -0.1878  0.9483
12928TIP3    H260200   2.781   1.758  17.005 -1.2748  1.2113 -1.3438
12929TIP3   OH260201   1.893   0.204  15.357 -0.3151 -0.4669  0.4837
12929TIP3    H160202   1.815   0.207  15.302  0.8479  0.1918 -1.2322
12929TIP3    H260203   1.861   0.186  15.445 -2.2207 -1.9662 -0.4724
12930TIP3   OH260204   5.031   5.202   3.856 -0.7077 -0.0275 -0.2615
12930TIP3    H160205   4.980   5.269   3.812 -0.2661 -0.3962 -1.3758
12930TIP3    H260206   4.972   5.127   3.862 -1.2962  0.5051  1.2347
12931TIP3   OH260207   3.989   3.990   2.604  0.4260  0.0768 -0.0160
12931TIP3    H160208   4.052   4.062   2.603 -0.7074  1.1116 -1.0400
12931TIP3    H260209   3.924   4.014   2.538 -0.0139 -1.8867 -0.3600
12932TIP3   OH260210   5.602   4.736   6.726  0.5919  0.3224  0.5286
12932TIP3    H160211   5.570   4.728   6.636  0.0816  0.1405  0.7189
12932TIP3    H260212   5.585   4.650   6.765  1.2103  0.2627  0.6744
12933TIP3   OH260213   6.200   1.552   5.246 -0.6708 -0.2065  0.4380
12933TIP3    H160214   6.107   1.574   5.235 -0.4660  1.6174  1.8792
12933TIP3    H260215   6.200   1.488   5.317 -0.8516 -0.6205  0.0711
12934TIP3   OH260216   6.034   2.282   4.906  0.6057  0.4235  0.0532
12934TIP3    H160217   5.989   2.339   4.968  0.3962  1.1949 -0.7850
12934TIP3    H260218   6.065   2.342   4.838  0.0027 -0.5216 -1.0699
12935TIP3   OH260219   4.996   0.052   2.987 -0.6792 -0.2610 -0.1516
12935TIP3    H160220   5.040  -0.027   3.017 -0.2362  0.0079 -0.0965
12935TIP3    H260221   4.912   0.051   3.033 -1.3250 -1.4874 -1.2703
12936TIP3   OH260222   6.569   0.143   6.357 -0.1425 -0.3647 -0.3228
12936TIP3    H160223   6.527   0.179   6.435  0.5226 -1.4189  0.5537
12936TIP3    H260224   6.605   0.219   6.312  0.2526  0.1942  0.8890
12937TIP3   OH260225   6.711   4.069  16.457 -0.4643 -0.3606  0.7093
12937TIP3    H160226   6.668   3.989  16.428 -1.3835  0.1450  0.6431
12937TIP3    H260227   6.778   4.039  16.519  1.4041 -1.4606 -1.6600
12938TIP3   OH260228   4.955   1.738  15.503  0.3166  0.2069  0.2175
12938TIP3    H160229   4.893   1.725  15.574 -0.2372  0.4916 -0.2022
12938TIP3    H260230   5.014   1.663  15.508  0.5453  0.4443  1.2365
12939TIP3   OH260231   3.801   1.415  14.202  0.6465 -0.7238  0.1685
12939TIP3    H160232   3.722   1.435  14.251  1.9849 -0.9027  2.5353
12939TIP3    H260233   3.789   1.325  14.173  0.8513 -1.5347  2.4296
12940TIP3   OH260234   1.615   2.293   4.968  0.5771  0.5067  0.8121
12940TIP3    H160235   1.636   2.385   4.950 -0.9489  0.3679 -2.3711
12940TIP3    H260236   1.677   2.243   4.916 -0.1024 -0.2002  0.6612
12941TIP3   OH260237   5.728   0.132   0.068 -0.3468  0.1418  0.0406
12941TIP3    H160238   5.780   0.161   0.142 -0.3837  1.4901 -0.4290
12941TIP3    H260239   5.762   0.182  -0.006 -1.9746  0.6974 -0.3726
12942TIP3   OH260240   1.613   3.536   1.057  0.1379  0.4429  0.3190
12942TIP3    H160241   1.626   3.446   1.085  1.0064  0.3312 -0.3881
12942TIP3    H260242   1.569   3.529   0.972  0.2941  0.6698  0.2167
12943TIP3   OH260243   2.834   0.760   1.254 -0.3815  0.3218  0.8607
12943TIP3    H160244   2.765   0.718   1.203 -0.0199  0.5240  0.1902
12943TIP3    H260245   2.875   0.689   1.303  0.4371 -0.1854 -0.5030
12944TIP3   OH260246   3.178   0.070   0.945 -0.0841 -0.5989 -0.2144
12944TIP3    H160247   3.127   0.001   0.988 -0.9086 -0.1379 -0.4275
12944TIP3    H260248   3.166   0.053   0.851  1.0056 -1.0961 -0.2737
12945TIP3   OH260249   2.101   0.569   4.437 -0.1841  0.1865 -0.1150
12945TIP3    H160250   2.186   0.602   4.406  0.2176  0.3889  1.1364
12945TIP3    H260251   2.123   0.493   4.491 -0.8279  0.0539 -0.0309
12946TIP3   OH260252   6.785   3.187   2.224 -0.2928  0.6248 -0.0519
12946TIP3    H160253   6.729   3.119   2.260  0.1371  1.2579  1.9421
12946TIP3    H260254   6.867   3.142   2.204  0.0479  0.5496  1.4147
12947TIP3   OH260255   1.487   5.173  14.956 -0.1274 -0.4426  0.4381
12947TIP3    H160256   1.404   5.220  14.957  0.5492  0.9610 -1.9969
12947TIP3    H260257   1.536   5.208  15.031 -1.0772 -0.0851  0.9049
12948TIP3   OH260258   6.214   0.728  10.554  0.1898 -0.4145 -0.3554
12948TIP3    H160259   6.154   0.660  10.525 -2.1319  0.6977  1.5131
12948TIP3    H260260   6.238   0.703  10.643 -0.8009  1.1805  0.4120
12949TIP3   OH260261   1.220   3.763  14.898  0.0709  0.5074 -0.2867
12949TIP3    H160262   1.220   3.761  14.802  1.1860  0.4552 -0.3026
12949TIP3    H260263   1.184   3.678  14.923 -2.7885  1.5023 -0.6026
12950TIP3   OH260264   2.421   4.876   1.359 -0.3730  0.4212  0.0966
12950TIP3    H160265   2.509   4.839   1.357 -0.0345  1.2253 -0.8394
12950TIP3    H260266   2.384   4.852   1.273 -0.6891  0.9658  0.0796
12951TIP3   OH260267   0.776   5.686   3.793 -0.0025 -0.0889  0.0484
12951TIP3    H160268   0.701   5.726   3.748  0.0141 -0.0616  0.0453
12951TIP3    H260269   0.800   5.612   3.739  1.2059  1.0155 -0.9893
12952TIP3   OH260270   1.305   3.425  14.291 -0.0239  0.2111 -0.1838
12952TIP3    H160271   1.247   3.351  14.272  0.9744 -0.7214  0.3408
12952TIP3    H260272   1.284   3.489  14.223 -1.1022 -0.4293 -0.4809
12953TIP3   OH260273   3.169   0.582  12.627  0.2693 -0.4550 -0.7832
12953TIP3    H160274   3.250   0.540  12.599  0.0428  0.4430 -2.9936
12953TIP3    H260275   3.191   0.675  12.632 -0.6746 -0.1607 -1.7476
12954TIP3   OH260276   4.441   1.755   0.437  0.0109  0.7832  0.7018
12954TIP3    H160277   4.533   1.751   0.410 -0.0281  0.9644  0.5350
12954TIP3    H260278   4.443   1.748   0.532  0.1916  0.6910  0.6918
12955TIP3   OH260279   3.432   3.631   2.429  0.0146 -0.2308  0.6103
12955TIP3    H160280   3.389   3.652   2.512 -0.0909  1.3353  0.1968
12955TIP3    H260281   3.518   3.596   2.454 -0.1674 -0.1378  1.3871
12956TIP3   OH260282   4.629   6.689  13.084  0.5552  0.2038 -0.0843
12956TIP3    H160283   4.643   6.775  13.122  0.1059 -1.2648  3.8417
12956TIP3    H260284   4.534   6.683  13.073  0.4302 -0.2900  1.1254
12957TIP3   OH260285   0.026   3.719   0.980  0.0223  0.0520 -0.1716
12957TIP3    H160286   0.032   3.755   1.069 -0.2110  1.2749 -0.6319
12957TIP3    H260287  -0.067   3.701   0.967  0.2637 -1.9760  0.5006
12958TIP3   OH260288   2.796   2.402  13.686 -0.7117  0.6889 -0.5630
12958TIP3    H160289   2.796   2.398  13.590  0.4955 -0.1050 -0.5546
12958TIP3    H260290   2.729   2.467  13.707 -1.2227  0.6507 -1.9297
12959TIP3   OH260291   5.967   6.393   2.815 -0.0035  0.4035  0.2983
12959TIP3    H160292   6.002   6.471   2.859  0.9324 -0.2244  0.6901
12959TIP3    H260293   5.879   6.382   2.852 -0.3403  1.5318 -0.1070
12960TIP3   OH260294   5.383   4.728  17.118  0.2370 -0.0659 -0.1434
12960TIP3    H160295   5.299   4.687  17.138 -0.4845  1.2866 -0.3378
12960TIP3    H260296   5.373   4.819  17.144  1.4165  0.2725 -0.7887
12961TIP3   OH260297   6.775   0.421  15.814 -0.1752  0.9986 -0.3624
12961TIP3    H160298   6.780   0.327  15.828  0.5312  1.2281  1.2475
12961TIP3    H260299   6.684   0.443  15.830 -0.1595  0.6974  0.1571
12962TIP3   OH260300   2.038   4.034  15.027 -0.1902  0.2409  0.8888
12962TIP3    H160301   1.985   4.002  15.099 -0.3061  0.6358  0.9849
12962TIP3    H260302   1.974   4.074  14.966 -0.1185 -0.2857  0.4621
12963TIP3   OH260303   3.782   2.898  16.543 -0.7110  0.6645 -0.1059
12963TIP3    H160304   3.813   2.987  16.554 -2.3461  1.2170  0.2332
12963TIP3    H260305   3.862   2.845  16.539  0.2474  1.9134  1.4934
12964TIP3   OH260306   0.263   5.387  11.479 -0.5904 -0.6084  0.0900
12964TIP3    H160307   0.267   5.377  11.574  0.3591  0.6117  0.1969
12964TIP3    H260308   0.316   5.315  11.445  0.2841 -0.1869  0.5469
12965TIP3   OH260309   0.653   3.371  10.954  0.1090 -0.4988 -0.0468
12965TIP3    H160310   0.696   3.457  10.950 -1.0988  0.1231 -0.2301
12965TIP3    H260311   0.722   3.311  10.981  1.6113  0.0967 -2.2190
12966TIP3   OH260312   2.967   1.503   3.835 -0.4651 -0.0012 -0.1376
12966TIP3    H160313   2.956   1.589   3.875 -1.0246 -0.8850  1.7471
12966TIP3    H260314   2.966   1.520   3.741 -2.5180  1.8395  0.1233
12967TIP3   OH260315   3.727   5.365   5.739 -1.0500  0.2253 -0.5621
12967TIP3    H160316   3.659   5.304   5.767  0.9420 -1.3102  1.2326
12967TIP3    H260317   3.703   5.388   5.650 -2.8902 -1.7340 -0.6510
12968TIP3   OH260318   4.148   5.600  13.560 -0.0532  0.2033 -0.0224
12968TIP3    H160319   4.229   5.643  13.530  1.0816 -0.1220  2.3718
12968TIP3    H260320   4.131   5.639  13.645 -0.3775 -2.2958  1.1331
12969TIP3   OH260321   6.701   0.604  14.171 -0.2757 -0.7598  0.0412
12969TIP3    H160322   6.745   0.521  14.190  0.3771 -0.3137  0.5464
12969TIP3    H260323   6.771   0.669  14.176 -1.0069 -0.0204  0.9070
12970TIP3   OH260324   3.806   6.195   1.346  0.4970 -0.2194  0.1407
12970TIP3    H160325   3.890   6.151   1.352 -0.0108 -1.2008  0.2767
12970TIP3    H260326   3.741   6.125   1.353 -0.3330  0.5050 -0.0421
12971TIP3   OH260327   0.571   3.217  14.646 -0.4335  0.6331  0.3279
12971TIP3    H160328   0.483   3.247  14.670 -0.8034  0.7214 -1.0903
12971TIP3    H260329   0.557   3.137  14.597  0.2697  0.7578 -0.0881
12972TIP3   OH260330   4.676   0.917  16.242  0.6681 -0.1475 -0.4074
12972TIP3    H160331   4.653   0.827  16.265 -0.7645  0.8429  2.6298
12972TIP3    H260332   4.702   0.956  16.325  0.7272  2.3965 -1.5494
12973TIP3   OH260333   3.591   5.452   1.517  0.2563  0.1168  0.0778
12973TIP3    H160334   3.507   5.432   1.478  0.5366 -0.7431 -0.1011
12973TIP3    H260335   3.576   5.444   1.612  1.0061 -4.0969  0.0640
12974TIP3   OH260336   0.285   6.395  15.403 -0.3401  0.2329  0.3692
12974TIP3    H160337   0.211   6.433  15.451 -0.8994  0.3237 -0.5340
12974TIP3    H260338   0.250   6.314  15.366 -0.2779  0.7116 -0.8013
12975TIP3   OH260339   0.843   3.050   0.874 -0.2964 -0.6738  0.1894
12975TIP3    H160340   0.828   2.979   0.936 -1.7206 -1.7248 -1.2701
12975TIP3    H260341   0.886   3.007   0.800  0.8707  0.4462  0.1860
12976TIP3   OH260342   0.865   4.264  11.562  0.3815  0.5576 -0.2948
12976TIP3    H160343   0.921   4.221  11.626  0.2906 -0.3869 -0.8360
12976TIP3    H260344   0.914   4.259  11.480  0.5037  1.7590 -0.3157
12977TIP3   OH260345   5.928   5.968   0.852  0.6027 -0.3956  0.2807
12977TIP3    H160346   5.901   5.991   0.763  0.9897 -1.9854 -0.2841
12977TIP3    H260347   5.871   5.894   0.876  1.6661 -1.1186  0.6561
12978TIP3   OH260348   2.048   5.138  15.304 -0.5360 -0.2199 -0.0683
12978TIP3    H160349   2.125   5.188  15.279  0.4905 -1.3987  0.6461
12978TIP3    H260350   2.072   5.096  15.387 -2.2463  0.0480  0.6099
12979TIP3   OH260351   0.751   1.176  16.704  0.0890  0.3593 -0.0978
12979TIP3    H160352   0.664   1.202  16.733  1.2952  1.1400  3.2349
12979TIP3    H260353   0.775   1.240  16.637 -2.2772 -0.6233 -2.0351
12980TIP3   OH260354   1.145   5.799   0.156  0.5581 -0.2138 -0.1365
12980TIP3    H160355   1.118   5.710   0.135 -0.4134 -0.1368  0.7398
12980TIP3    H260356   1.155   5.842   0.071 -2.3140 -0.1953 -0.5492
12981TIP3   OH260357   5.593   0.222   4.337 -0.1013  0.2535 -0.1166
12981TIP3    H160358   5.664   0.175   4.293  0.2131  0.9900 -0.4175
12981TIP3    H260359   5.597   0.311   4.300 -0.8429  0.4464  0.2501
12982TIP3   OH260360   1.026   3.246  14.944  0.1836  0.5032  0.2610
12982TIP3    H160361   0.937   3.272  14.920  0.1559 -0.1590 -0.3999
12982TIP3    H260362   1.017   3.211  15.033 -0.8427 -2.3852 -0.8334
12983TIP3   OH260363   4.595   4.797  12.777  0.1039  0.3601 -0.1167
12983TIP3    H160364   4.665   4.740  12.807  0.2296  1.5983  2.1826
12983TIP3    H260365   4.529   4.737  12.740  0.6691 -1.1821  1.2543
12984TIP3   OH260366   2.878   2.539   2.053  0.0115 -0.0547 -0.3160
12984TIP3    H160367   2.823   2.617   2.056  0.5981  0.3683 -0.4597
12984TIP3    H260368   2.878   2.506   2.143  1.0624  1.0303  0.1059
12985TIP3   OH260369   3.097   6.786  15.628 -0.2044  0.3138 -0.1860
12985TIP3    H160370   3.063   6.865  15.670  1.4083  0.5398  0.7654
12985TIP3    H260371   3.174   6.815  15.579  0.3998 -0.6356  0.1600
12986TIP3   OH260372   0.768   0.434   6.805 -1.1984  0.0140 -0.1448
12986TIP3    H160373   0.794   0.520   6.774  0.0598 -0.0821  0.5930
12986TIP3    H260374   0.686   0.415   6.758 -2.6754  2.5034  1.2546
12987TIP3   OH260375   5.788   1.724   2.000  0.2293  0.7814  0.5653
12987TIP3    H160376   5.780   1.663   1.927  0.2579  1.8185 -0.3202
12987TIP3    H260377   5.734   1.685   2.069  0.4256 -0.3536  0.1088
12988TIP3   OH260378   2.692   1.024  16.218 -0.1658  0.7772  0.5884
12988TIP3    H160379   2.709   1.012  16.125  2.2585 -0.6861  1.1417
12988TIP3    H260380   2.744   1.100  16.243  1.1944 -0.2991  1.1787
12989TIP3   OH260381   4.222   4.711  11.370  0.1005  0.0726 -0.0871
12989TIP3    H160382   4.197   4.686  11.281  0.1946  0.1356 -0.1327
12989TIP3    H260383   4.208   4.806  11.373 -2.2669 -0.2284  0.7383
12990TIP3   OH260384   4.045   4.348  12.401 -0.8649  0.7905 -0.4478
12990TIP3    H160385   4.078   4.382  12.318 -0.8768  1.4367 -0.1916
12990TIP3    H260386   3.978   4.411  12.428  0.9042  2.0662  1.3346
12991TIP3   OH260387   2.796   2.207   0.606 -0.0634  0.6298  0.9634
12991TIP3    H160388   2.860   2.198   0.536  0.9437 -0.6124  1.9871
12991TIP3    H260389   2.814   2.292   0.646  1.2332  0.1309  1.4867
12992TIP3   OH260390   5.819   1.946  15.096  0.2154  0.4773  0.0513
12992TIP3    H160391   5.844   2.022  15.148  0.0864 -0.0450  0.8912
12992TIP3    H260392   5.807   1.876  15.160 -1.1177  0.1203 -0.5474
12993TIP3   OH260393   0.388   5.695  14.191 -0.0668  0.3133 -0.0024
12993TIP3    H160394   0.408   5.613  14.237  0.1314  0.6348  0.4930
12993TIP3    H260395   0.342   5.667  14.112 -0.2318 -0.2652  0.2882
12994TIP3   OH260396   1.244   6.371   2.763  0.0841 -0.6879  0.0709
12994TIP3    H160397   1.221   6.463   2.749  0.4488 -0.6434 -0.2557
12994TIP3    H260398   1.326   6.360   2.715  0.2087 -1.1016  0.3797
12995TIP3   OH260399   0.407   5.992  15.667  0.4723 -0.0165  0.2205
12995TIP3    H160400   0.338   5.929  15.644 -0.3988  1.3673 -1.2184
12995TIP3    H260401   0.390   6.015  15.758 -0.2528 -0.5364  0.2251
12996TIP3   OH260402   6.280   0.399   0.372  0.1964 -0.0662  0.0883
12996TIP3    H160403   6.284   0.341   0.448  2.8622 -1.6224 -1.1243
12996TIP3    H260404   6.309   0.484   0.405  2.5609 -1.0242  0.6384
12997TIP3   OH260405   2.921   6.349   5.822 -0.3699 -0.2707  0.2271
12997TIP3    H160406   2.915   6.402   5.902 -0.1997  0.3789 -0.1846
12997TIP3    H260407   2.835   6.355   5.782  0.2449  1.4742 -0.9214
12998TIP3   OH260408   3.655   6.683  13.606 -0.4342  0.1825  1.2236
12998TIP3    H160409   3.627   6.748  13.541  0.8751  0.6267  1.0757
12998TIP3    H260410   3.593   6.694  13.678 -0.9016  0.8365  0.7388
12999TIP3   OH260411   2.511   2.604  11.445  0.5955 -0.0288 -0.0788
12999TIP3    H160412   2.592   2.646  11.472  0.3873  1.0653 -1.0707
12999TIP3    H260413   2.534   2.553  11.368  0.3025  0.5169 -0.5384
13000TIP3   OH260414   0.489   0.817  15.167  0.2143 -0.3325 -0.3396
13000TIP3    H160415   0.485   0.811  15.071  0.6474 -0.8595 -0.3295
13000TIP3    H260416   0.540   0.896  15.184  0.8754 -0.7077 -0.5535
13001TIP3   OH260417   3.221   5.419  16.157 -0.1019  0.1614 -0.1430
13001TIP3    H160418   3.278   5.496  16.159 -0.7605  0.6790 -0.6178
13001TIP3    H260419   3.279   5.347  16.136  0.4496  0.6233 -0.2275
13002TIP3   OH260420   2.203   6.305  13.664 -1.1717  0.1013 -0.3563
13002TIP3    H160421   2.206   6.213  13.640  0.9338 -0.5697  2.0636
13002TIP3    H260422   2.184   6.305  13.758  1.9825  1.8582  0.4333
13003TIP3   OH260423   2.763   5.099   5.950 -0.0112 -0.0736 -0.6693
13003TIP3    H160424   2.839   5.094   5.893  1.3255 -0.6115  1.0514
13003TIP3    H260425   2.798   5.081   6.038 -1.9942  0.4451  0.2908
13004TIP3   OH260426   4.297   2.083  15.129 -0.1195  0.3885 -0.1473
13004TIP3    H160427   4.283   2.177  15.119 -0.9775  0.3147  0.3069
13004TIP3    H260428   4.273   2.064  15.220  0.1565 -0.2508 -0.1991
13005TIP3   OH260429   1.571   1.477  15.408  0.1494 -0.0669 -0.4244
13005TIP3    H160430   1.618   1.449  15.329 -1.9492 -2.1380 -1.0600
13005TIP3    H260431   1.517   1.550  15.380  0.3861  0.0579 -0.5602
13006TIP3   OH260432   4.762   4.436  16.779 -0.0236 -0.2393 -0.2359
13006TIP3    H160433   4.806   4.450  16.695 -0.0207 -1.1529 -0.4051
13006TIP3    H260434   4.681   4.486  16.771  0.2034  0.0795 -0.5948
13007TIP3   OH260435   5.630   2.745  13.646  0.3442  0.1612  0.0773
13007TIP3    H160436   5.649   2.663  13.599 -1.9462 -1.4079  1.6701
13007TIP3    H260437   5.676   2.736  13.730 -2.2229 -0.9552  1.4795
13008TIP3   OH260438   3.807   0.851   2.892 -0.0156  0.5395 -0.3064
13008TIP3    H160439   3.756   0.839   2.972 -1.7503  4.0559 -0.6486
13008TIP3    H260440   3.775   0.784   2.832  0.3788 -1.3106  1.4448
13009TIP3   OH260441   1.776   2.234  16.111  0.2792 -0.2379  0.7265
13009TIP3    H160442   1.683   2.256  16.108  0.1971 -0.6382  0.0134
13009TIP3    H260443   1.779   2.141  16.089  0.7773 -0.4554  1.6753
13010TIP3   OH260444   1.624   5.911   2.678 -0.0103 -0.2614 -0.1660
13010TIP3    H160445   1.666   5.844   2.732 -0.2380 -0.0528  0.2763
13010TIP3    H260446   1.581   5.862   2.607  1.3549 -0.4426 -0.8923
13011TIP3   OH260447   2.150   5.363  13.028 -0.4072  0.1797  0.4555
13011TIP3    H160448   2.105   5.432  13.077 -0.0133  0.4182  0.4783
13011TIP3    H260449   2.230   5.346  13.078 -0.1159  0.2634  0.0171
13012TIP3   OH260450   3.723   3.956  13.868 -0.5554  0.2865  0.0544
13012TIP3    H160451   3.797   3.957  13.928 -2.2744  0.5816  2.2979
13012TIP3    H260452   3.690   3.866  13.872  1.2644 -0.7085 -3.1832
13013TIP3   OH260453   3.923   2.338   2.047 -0.0306 -0.0666 -0.3030
13013TIP3    H160454   3.988   2.373   1.986 -0.7785 -0.6744 -1.4992
13013TIP3    H260455   3.841   2.343   1.998 -1.0827  1.5768  1.5042
13014TIP3   OH260456   3.423   5.406  14.191  0.1752  0.1225 -0.2173
13014TIP3    H160457   3.424   5.456  14.273  2.0906  1.4602 -0.9718
13014TIP3    H260458   3.331   5.381  14.179 -0.1613 -0.0704  2.2773
13015TIP3   OH260459   1.114   3.078  12.904 -0.1842  0.0123 -0.0587
13015TIP3    H160460   1.148   3.011  12.845  0.5271  0.8763 -0.6542
13015TIP3    H260461   1.154   3.057  12.989 -0.2560 -0.5277 -0.1571
13016TIP3   OH260462   1.553   3.415  12.030 -0.0879  0.1962  0.0059
13016TIP3    H160463   1.631   3.458  11.995  1.1616 -1.9587 -0.0324
13016TIP3    H260464   1.505   3.386  11.953  1.0259 -1.7124 -0.0457
13017TIP3   OH260465   2.067   1.064  16.698 -0.0371  0.2801 -0.4120
13017TIP3    H160466   2.088   1.043  16.789 -2.7313  1.2827  0.5429
13017TIP3    H260467   2.036   0.982  16.660  1.0841 -0.1370 -0.4871
13018TIP3   OH260468   5.129   5.767  16.292  0.4872 -0.1301  0.0432
13018TIP3    H160469   5.102   5.794  16.380 -0.7829  1.6764 -0.8435
13018TIP3    H260470   5.223   5.787  16.288  0.1172  1.8339  0.3017
13019TIP3   OH260471   4.938   3.719   3.585 -0.0301 -0.0112  0.0310
13019TIP3    H160472   4.917   3.705   3.677  1.0637  1.7386  0.5778
13019TIP3    H260473   4.853   3.715   3.541 -0.5655 -0.9313  1.0665
13020TIP3   OH260474   2.933   5.566   0.232  0.0373 -0.1279  0.3699
13020TIP3    H160475   2.946   5.658   0.211 -1.4494  0.2151  0.8623
13020TIP3    H260476   2.839   5.552   0.224  0.2370 -1.6284  0.2452
13021TIP3   OH260477   6.340   5.579  14.515 -0.2013 -0.1232 -0.0226
13021TIP3    H160478   6.296   5.494  14.512 -0.6929  0.1050  0.3856
13021TIP3    H260479   6.356   5.601  14.424 -1.1980 -0.0938 -0.2097
13022TIP3   OH260480   0.817   2.859   3.869 -0.0770  0.1285  0.1026
13022TIP3    H160481   0.881   2.928   3.857 -2.2746  2.1973 -0.5377
13022TIP3    H260482   0.768   2.886   3.947  0.0991 -1.6696  0.8898
13023TIP3   OH260483   3.773   0.052  13.125 -0.0456  0.2077 -0.3464
13023TIP3    H160484   3.828   0.054  13.047  0.1602 -1.4623 -0.2705
13023TIP3    H260485   3.685   0.035  13.093  0.0768 -0.7107 -0.2033
13024TIP3   OH260486   0.082   4.656  11.313 -0.2766  0.5486  0.2124
13024TIP3    H160487   0.034   4.735  11.338  1.8550  1.4586  1.7474
13024TIP3    H260488   0.038   4.585  11.361 -2.2420  0.7155 -1.2245
13025TIP3   OH260489   6.688   1.112  14.093  0.0074  0.0396 -0.2661
13025TIP3    H160490   6.636   1.068  14.161  1.5672 -2.8905 -0.7814
13025TIP3    H260491   6.765   1.145  14.140 -0.4675  0.9265 -0.1077
13026TIP3   OH260492   1.036   3.359   4.344 -0.1696  0.1252 -0.1088
13026TIP3    H160493   1.054   3.373   4.251 -1.4187  3.1568 -0.0133
13026TIP3    H260494   1.123   3.360   4.386  0.2558  1.1399 -0.9914
13027TIP3   OH260495   2.146   4.833   2.629 -0.3849 -0.7686  0.4265
13027TIP3    H160496   2.124   4.923   2.604  1.7760  0.6100  3.0204
13027TIP3    H260497   2.218   4.810   2.571 -0.0216 -0.2700  0.6675
13028TIP3   OH260498   0.579   3.680   1.634  0.2790  0.3490 -0.1787
13028TIP3    H160499   0.549   3.722   1.715  1.1632 -0.0796  0.3877
13028TIP3    H260500   0.535   3.728   1.564  0.6171  1.6728  0.4913
13029TIP3   OH260501   5.115   1.661   1.154 -0.3901  0.0435 -0.3746
13029TIP3    H160502   5.193   1.683   1.104  0.2038  3.5732  1.7765
13029TIP3    H260503   5.134   1.690   1.243 -2.5772 -3.0393  1.2816
13030TIP3   OH260504   3.333   3.209  12.722  0.1252 -0.6227  0.2023
13030TIP3    H160505   3.254   3.250  12.758  0.6226  0.3943  0.1860
13030TIP3    H260506   3.337   3.124  12.764 -0.2785 -0.1742  1.1962
13031TIP3   OH260507   4.767   4.616  16.124 -0.3105  0.1590 -0.5266
13031TIP3    H160508   4.740   4.689  16.180 -1.9173 -1.3602  0.7980
13031TIP3    H260509   4.746   4.646  16.035 -1.8475  0.9744  0.0653
13032TIP3   OH260510   5.799   4.279   6.468 -0.1251 -0.1255  0.2596
13032TIP3    H160511   5.786   4.368   6.499  1.0173 -0.5019  1.9768
13032TIP3    H260512   5.710   4.244   6.456 -0.5908  0.8773  0.6873
13033TIP3   OH260513   1.493   5.298   4.261  0.0934  0.6148  0.2790
13033TIP3    H160514   1.453   5.376   4.222 -0.5799 -0.0790 -0.4650
13033TIP3    H260515   1.508   5.239   4.186  0.2728 -0.1022  0.8680
13034TIP3   OH260516   0.940   4.373  17.121  0.1615 -0.4973 -0.1767
13034TIP3    H160517   0.940   4.294  17.176 -0.3701 -1.2956 -1.2959
13034TIP3    H260518   0.848   4.392  17.105  0.2722  0.5368  0.3136
13035TIP3   OH260519   0.320   1.772   3.316 -0.1177  0.7032 -0.0210
13035TIP3    H160520   0.331   1.681   3.344  1.7716  0.7876 -0.3801
13035TIP3    H260521   0.349   1.773   3.225  1.8933  2.0108  0.5693
13036TIP3   OH260522   6.743   6.462  14.826  0.2776  0.0631  1.0614
13036TIP3    H160523   6.656   6.503  14.818 -0.5331 -1.5406  1.2616
13036TIP3    H260524   6.731   6.374  14.792  2.0981  0.1047  0.2112
13037TIP3   OH260525   3.043   1.443   5.144 -0.4314 -0.5809  0.4469
13037TIP3    H160526   3.126   1.411   5.108 -0.9017 -1.0759 -0.2156
13037TIP3    H260527   3.061   1.456   5.237  0.6897  0.3102  0.1389
13038TIP3   OH260528   4.025   1.055  11.411  0.3922 -0.3524 -0.4003
13038TIP3    H160529   4.115   1.065  11.382  0.3743  1.2193  0.0410
13038TIP3    H260530   4.021   0.965  11.444  3.1081  0.7578  3.8400
13039TIP3   OH260531   0.016   4.445   4.494  0.4465  0.0765 -0.3295
13039TIP3    H160532   0.007   4.522   4.550  2.2256 -0.2029  0.3822
13039TIP3    H260533   0.001   4.371   4.553  0.8466 -0.1810 -0.5524
13040TIP3   OH260534   4.279   4.600  13.639  0.3067  0.3381 -0.5010
13040TIP3    H160535   4.262   4.640  13.725 -0.3574  1.2039 -1.0223
13040TIP3    H260536   4.239   4.660  13.576 -1.6272 -1.6585 -1.2744
13041TIP3   OH260537   6.320   0.189   5.821 -0.0812 -0.2171 -0.4654
13041TIP3    H160538   6.289   0.151   5.739  1.9035  0.1698 -1.4585
13041TIP3    H260539   6.244   0.185   5.880 -1.9355  0.5443 -2.6426
13042TIP3   OH260540   2.443   0.789  16.728  0.7439  0.0461  0.2178
13042TIP3    H160541   2.470   0.861  16.785  1.1151 -0.2332  0.4039
13042TIP3    H260542   2.477   0.812  16.642 -0.5229  0.8676 -0.0786
13043TIP3   OH260543   2.003   5.401   4.416 -0.1994 -0.4723 -0.3701
13043TIP3    H160544   1.935   5.454   4.457  0.5783  0.5320 -0.3490
13043TIP3    H260545   1.963   5.370   4.334 -1.0881 -0.9046  0.2103
13044TIP3   OH260546   1.666   4.051   2.833 -0.2688 -0.1777  0.2636
13044TIP3    H160547   1.694   4.129   2.881 -2.3725 -0.0230  1.3432
13044TIP3    H260548   1.613   4.086   2.761  1.1545 -0.5189 -1.0045
13045TIP3   OH260549   4.212   0.261  13.924 -0.3454 -0.1655 -0.2370
13045TIP3    H160550   4.255   0.221  13.849  1.3441  0.8005  0.1547
13045TIP3    H260551   4.155   0.193  13.959  2.1823 -2.1858  0.2314
13046TIP3   OH260552   0.817   0.453  12.789 -0.2674 -0.1523 -0.5223
13046TIP3    H160553   0.805   0.496  12.704  0.8873  1.4211  0.0590
13046TIP3    H260554   0.904   0.481  12.818 -0.2460 -1.4070  0.7824
13047TIP3   OH260555   2.968   2.975   0.424  0.3406  0.6435 -0.2155
13047TIP3    H160556   3.026   3.035   0.471  1.3590  1.8022 -2.7436
13047TIP3    H260557   2.996   2.981   0.333 -1.4425 -1.5373 -1.0091
13048TIP3   OH260558   3.228   1.336   5.696 -0.1736 -0.1848 -0.0374
13048TIP3    H160559   3.207   1.426   5.721 -0.5346 -0.1724 -0.3750
13048TIP3    H260560   3.252   1.293   5.778  1.1396  0.5167 -0.0240
13049TIP3   OH260561   1.979   2.416  14.217 -0.2695 -0.4783 -0.1180
13049TIP3    H160562   2.042   2.361  14.264  0.8691  1.3041  0.5280
13049TIP3    H260563   1.903   2.359  14.205  0.6803 -2.0550  0.8866
13050TIP3   OH260564   5.815   0.268   3.054 -0.0103  0.1524 -0.0627
13050TIP3    H160565   5.815   0.300   3.144  1.2067 -1.4150  0.5423
13050TIP3    H260566   5.902   0.292   3.021 -0.1496 -0.0127 -0.5523
13051TIP3   OH260567   0.065   3.293  16.930 -0.3464  0.0483  0.3809
13051TIP3    H160568   0.157   3.314  16.911 -0.7586  1.5012 -0.1737
13051TIP3    H260569   0.061   3.197  16.925  0.7659  0.0447 -1.4335
13052TIP3   OH260570   5.788   1.401   3.034 -0.2294  0.2824 -0.3766
13052TIP3    H160571   5.784   1.497   3.039 -0.4767  0.2400  0.3364
13052TIP3    H260572   5.791   1.373   3.125 -1.6909 -0.4470 -0.5285
13053TIP3   OH260573   3.385   5.336  12.603  0.2881 -0.1439  0.0432
13053TIP3    H160574   3.379   5.421  12.645  0.2597  0.1538 -0.5607
13053TIP3    H260575   3.451   5.289  12.654  1.4308  0.7822 -0.5357
13054TIP3   OH260576   3.942   4.907   2.111 -0.6370  0.1575 -0.2347
13054TIP3    H160577   4.009   4.975   2.116 -0.0561 -0.4979  1.8924
13054TIP3    H260578   3.860   4.954   2.125 -0.4603  0.7203 -1.0549
13055TIP3   OH260579   4.131   0.117  15.471  0.1735 -0.0414  0.3720
13055TIP3    H160580   4.124   0.156  15.385 -0.7345 -1.5345 -0.2816
13055TIP3    H260581   4.042   0.088  15.492  0.3106  0.5533  1.9437
13056TIP3   OH260582   3.348   5.507  16.852  0.1833  0.4210  0.3252
13056TIP3    H160583   3.365   5.601  16.856 -0.7872  0.5667  2.2675
13056TIP3    H260584   3.377   5.474  16.937 -1.6653 -0.5962  0.6161
13057TIP3   OH260585   3.474   3.671  10.406  0.2931 -0.4297  0.0414
13057TIP3    H160586   3.501   3.638  10.320  0.1757 -0.6995  0.1089
13057TIP3    H260587   3.476   3.594  10.463  0.3733 -0.2515  0.2839
13058TIP3   OH260588   6.392   6.474  16.927  0.4324  0.0708 -0.5073
13058TIP3    H160589   6.411   6.567  16.941  2.0615 -0.1676 -0.9736
13058TIP3    H260590   6.345   6.447  17.006  1.1762  0.9671  0.2682
13059TIP3   OH260591   3.573   0.085  14.635 -0.1297 -0.7349 -0.7515
13059TIP3    H160592   3.595   0.174  14.662 -0.5870 -0.8848  0.1437
13059TIP3    H260593   3.577   0.034  14.716 -3.7811 -0.7686 -0.4357
13060TIP3   OH260594   0.014   0.390   3.848  0.2431 -0.1125  0.2780
13060TIP3    H160595  -0.012   0.412   3.938 -3.5554 -1.9955 -0.1383
13060TIP3    H260596   0.027   0.295   3.850  0.1817 -0.1677 -1.1361
13061TIP3   OH260597   6.194   5.531  11.866  0.3065  0.5905 -0.8595
13061TIP3    H160598   6.117   5.495  11.822 -0.2999 -0.6185  1.0527
13061TIP3    H260599   6.228   5.458  11.918  0.9438  1.9204  0.6926
13062TIP3   OH260600   6.485   1.393   3.008  0.5152  0.2694  0.2886
13062TIP3    H160601   6.452   1.483   3.018  1.6725  1.0335 -1.9667
13062TIP3    H260602   6.519   1.371   3.095 -1.9110  1.0528  1.5373
13063TIP3   OH260603   0.661   3.449  12.139 -0.1913 -0.3321 -0.0640
13063TIP3    H160604   0.598   3.377  12.144 -0.3272 -0.1451  1.3386
13063TIP3    H260605   0.612   3.525  12.168  0.4742 -0.0314  0.2801
13064TIP3   OH260606   2.140   3.555   4.444  0.0911 -0.3388 -0.1940
13064TIP3    H160607   2.064   3.515   4.487 -0.5847 -0.8140 -1.7425
13064TIP3    H260608   2.107   3.639   4.410  0.6037  0.0245  0.1991
13065TIP3   OH260609   2.706   0.419  14.714  0.5857  0.3868 -0.3143
13065TIP3    H160610   2.793   0.380  14.707 -0.2285 -1.6853  0.2095
13065TIP3    H260611   2.673   0.389  14.799 -0.4068  1.6518 -0.2270
13066TIP3   OH260612   3.488   2.222  10.919  0.4569  0.3166  0.3008
13066TIP3    H160613   3.520   2.277  10.848 -0.2851  0.0778 -0.2322
13066TIP3    H260614   3.486   2.134  10.882 -0.4963  0.2781  0.4144
13067TIP3   OH260615   0.032   0.998  15.172 -0.7619  0.3056  0.1687
13067TIP3    H160616  -0.053   0.959  15.195 -2.8080  3.9660 -0.4255
13067TIP3    H260617   0.038   0.986  15.077 -1.0596  0.8291  0.0832
13068TIP3   OH260618   3.231   0.737  11.728 -0.1138 -0.5351  0.5494
13068TIP3    H160619   3.240   0.805  11.795 -2.3533 -0.7759  1.1528
13068TIP3    H260620   3.321   0.708  11.712  0.5951  0.2330  2.7236
13069TIP3   OH260621   5.170   3.693  10.512  0.0410 -0.1349  0.3606
13069TIP3    H160622   5.157   3.599  10.501  1.3926 -0.1096 -2.2405
13069TIP3    H260623   5.116   3.716  10.587  0.7168 -3.1965  1.9355
13070TIP3   OH260624   1.074   6.687   0.519  0.3418 -0.1728  0.2097
13070TIP3    H160625   1.023   6.743   0.460  0.2879  0.7829  1.1279
13070TIP3    H260626   1.040   6.599   0.503 -1.1086  0.3411  0.2727
13071TIP3   OH260627   6.779   4.051   5.324 -0.9375  0.3881 -0.1196
13071TIP3    H160628   6.865   4.060   5.365 -0.7061  2.1237 -0.9024
13071TIP3    H260629   6.797   4.039   5.231 -1.5282  1.9212 -0.4594
13072TIP3   OH260630   1.318   3.482   6.421  0.1979 -0.2987  0.1869
13072TIP3    H160631   1.232   3.516   6.445  0.4715 -0.2920  1.2188
13072TIP3    H260632   1.312   3.387   6.434 -0.0048 -0.4456 -0.8955
13073TIP3   OH260633   0.433   1.990   3.766 -0.6260  0.2557 -0.7902
13073TIP3    H160634   0.523   2.020   3.762 -0.2477 -0.4601  1.2121
13073TIP3    H260635   0.401   1.998   3.676  1.5818 -0.0305 -1.6602
13074TIP3   OH260636   0.667   1.900  10.625  0.1142  0.3521 -0.4102
13074TIP3    H160637   0.623   1.971  10.578  1.4046  1.6893  0.3248
13074TIP3    H260638   0.596   1.850  10.665 -0.8883  0.4788 -1.9447
13075TIP3   OH260639   2.132   1.692  11.476  0.3580  0.5164  0.5859
13075TIP3    H160640   2.188   1.624  11.512 -0.2288 -0.3262 -0.0300
13075TIP3    H260641   2.100   1.655  11.393 -0.5297  1.2566  0.5784
13076TIP3   OH260642   6.430   2.516  16.707 -0.5037 -0.4628  0.8183
13076TIP3    H160643   6.456   2.425  16.722  0.7984 -0.2774 -0.1581
13076TIP3    H260644   6.452   2.561  16.788  3.2768 -0.1385 -0.2303
13077TIP3   OH260645   5.952   4.702   5.305  0.4188  0.1639 -0.1671
13077TIP3    H160646   5.869   4.721   5.348  1.6344  0.3136  2.2895
13077TIP3    H260647   5.941   4.615   5.268 -0.6274 -0.0762  0.6708
13078TIP3   OH260648   3.697   4.217   0.239 -0.2590 -0.0868 -0.5357
13078TIP3    H160649   3.644   4.255   0.309 -2.2630  0.8125 -2.4364
13078TIP3    H260650   3.755   4.288   0.212  1.6609 -0.8945  1.1382
13079TIP3   OH260651   0.363   4.046   3.906  0.0049  0.2899 -0.2854
13079TIP3    H160652   0.340   4.096   3.984  0.6393  1.1692 -0.6399
13079TIP3    H260653   0.422   3.978   3.938 -1.6361 -0.8699  0.3503
13080TIP3   OH260654   3.713   4.229  14.887  0.0130 -0.3953 -0.4024
13080TIP3    H160655   3.716   4.190  14.800  1.4089  0.6499 -0.8610
13080TIP3    H260656   3.796   4.277  14.895  0.0200 -0.6444  1.5905
13081TIP3   OH260657   0.816   0.362   1.642 -0.4997 -0.6605 -0.3577
13081TIP3    H160658   0.894   0.386   1.692 -0.3435 -1.7120 -0.0610
13081TIP3    H260659   0.837   0.386   1.552  0.6183 -1.8966 -0.4598
13082TIP3   OH260660   5.123   0.742   1.897  0.4192 -0.0750  0.2909
13082TIP3    H160661   5.145   0.774   1.809 -1.7491  2.0877  0.4174
13082TIP3    H260662   5.205   0.749   1.946  0.8982  2.1011 -0.6752
13083TIP3   OH260663   0.086   1.145   1.960 -0.2395 -0.2126  0.7954
13083TIP3    H160664   0.069   1.154   2.054 -0.4502  0.8046  0.6688
13083TIP3    H260665   0.178   1.172   1.950 -0.1634 -0.4943  0.7332
13084TIP3   OH260666   4.951   3.605   3.271  0.0263  0.4115  0.0476
13084TIP3    H160667   4.971   3.623   3.179  0.9302  0.5551  0.2666
13084TIP3    H260668   4.891   3.675   3.297  0.0507  0.5747 -0.3296
13085TIP3   OH260669   4.594   0.860  15.467 -0.4285  0.0282 -0.3459
13085TIP3    H160670   4.616   0.864  15.560  0.6199  0.7947 -0.6150
13085TIP3    H260671   4.521   0.921  15.456 -0.9094 -0.4652  0.0586
13086TIP3   OH260672   5.750   5.800  11.316  0.0878 -0.1446 -0.2181
13086TIP3    H160673   5.782   5.859  11.248  0.2388  1.1763  0.9627
13086TIP3    H260674   5.665   5.770  11.284 -0.6059  1.7666 -0.2756
13087TIP3   OH260675   2.820   4.663  13.625 -0.1194  0.2951  0.4562
13087TIP3    H160676   2.884   4.594  13.645  0.1271  0.3917  0.0293
13087TIP3    H260677   2.743   4.616  13.594 -0.3666  0.1642  1.2628
13088TIP3   OH260678   2.221   0.502   4.818 -0.2318  0.4707  0.2019
13088TIP3    H160679   2.294   0.491   4.758 -0.9390 -2.6102 -0.2515
13088TIP3    H260680   2.261   0.533   4.899  1.2160  1.1680 -0.7375
13089TIP3   OH260681   5.772   2.254  16.468  0.1094  0.3947 -0.1647
13089TIP3    H160682   5.768   2.215  16.381  1.8823  0.5321 -0.3345
13089TIP3    H260683   5.827   2.332  16.457 -0.3276  0.8811  0.9212
13090TIP3   OH260684   5.688   3.181   2.592  0.1421  0.1065 -0.0831
13090TIP3    H160685   5.690   3.105   2.534 -0.0517  0.5591 -0.6940
13090TIP3    H260686   5.667   3.254   2.534  0.3932  0.6341  0.4894
13091TIP3   OH260687   1.472   5.891  16.748  0.2373  0.8553 -0.8218
13091TIP3    H160688   1.498   5.896  16.840  0.3744  1.3429 -0.8832
13091TIP3    H260689   1.554   5.903  16.700  0.0333  1.5610 -1.0111
13092TIP3   OH260690   1.927   2.207   4.090 -0.1559  0.3991 -0.1157
13092TIP3    H160691   1.856   2.144   4.073 -0.2682 -0.7721  3.7735
13092TIP3    H260692   1.886   2.276   4.143  0.9682  1.4088 -0.5113
13093TIP3   OH260693   2.461   3.631   2.500 -0.3399  0.7388  0.3715
13093TIP3    H160694   2.515   3.665   2.571  0.3385  2.1829 -0.7964
13093TIP3    H260695   2.523   3.586   2.442 -0.8769 -0.3684  0.6221
13094TIP3   OH260696   5.403   1.444  12.828 -0.3240  0.4998  0.2235
13094TIP3    H160697   5.353   1.457  12.747  1.2222  0.0364 -0.8377
13094TIP3    H260698   5.336   1.444  12.897 -1.7846  0.0318 -1.1221
13095TIP3   OH260699   4.990   6.488  16.447  0.5891  0.3214 -0.1979
13095TIP3    H160700   5.062   6.455  16.500  0.2157 -1.3940 -0.6825
13095TIP3    H260701   4.926   6.519  16.510 -0.1021 -2.2137  0.4885
13096TIP3   OH260702   6.183   6.455  11.208 -0.6626  0.7177  1.1291
13096TIP3    H160703   6.151   6.467  11.118 -2.2891  1.7617  1.8063
13096TIP3    H260704   6.192   6.360  11.218 -1.7470  0.5036  0.2739
13097TIP3   OH260705   3.755   5.928  16.321 -0.4954  0.1477  0.1255
13097TIP3    H160706   3.848   5.941  16.338 -0.9126  1.7801  1.4168
13097TIP3    H260707   3.720   6.016  16.304 -1.8617 -0.3818  0.0133
13098TIP3   OH260708   3.325   5.635   5.497 -0.1074  0.4152  0.2857
13098TIP3    H160709   3.346   5.580   5.572 -2.3497  1.7934  2.0596
13098TIP3    H260710   3.262   5.582   5.446 -0.8204  0.5895  0.9731
13099TIP3   OH260711   0.960   1.433  14.825 -0.3577  0.1896 -0.9047
13099TIP3    H160712   1.033   1.387  14.867 -1.3950 -1.4681 -0.8167
13099TIP3    H260713   0.949   1.513  14.877  0.2437 -0.4203  0.2093
13100TIP3   OH260714   3.628   4.180  12.089 -0.1937  0.5185  0.6731
13100TIP3    H160715   3.613   4.203  12.181  0.6331  0.4126  0.8451
13100TIP3    H260716   3.708   4.228  12.065  0.2919 -0.3999  0.3855
13101TIP3   OH260717   0.530   1.085   2.408  1.0897  0.2730 -0.6827
13101TIP3    H160718   0.551   1.139   2.484  3.9722 -2.5376  0.7449
13101TIP3    H260719   0.436   1.071   2.415  1.1899  0.3495  2.2558
13102TIP3   OH260720   0.817   4.941   2.114  0.9592  0.2124  0.5474
13102TIP3    H160721   0.882   5.001   2.150  0.4812  0.4197  1.0965
13102TIP3    H260722   0.780   4.897   2.191 -0.3162  0.9002  0.3624
13103TIP3   OH260723   0.788   5.915  13.188  0.6715 -0.5505 -0.0831
13103TIP3    H160724   0.814   5.838  13.237 -2.0089 -1.1322  0.5651
13103TIP3    H260725   0.734   5.881  13.116 -1.5210  0.6978  0.8646
13104TIP3   OH260726   4.535   0.910   6.285  0.1657  0.2963 -0.5715
13104TIP3    H160727   4.517   0.979   6.222  1.1318 -0.6646 -1.9715
13104TIP3    H260728   4.630   0.916   6.300  0.4843 -1.4113 -1.6299
13105TIP3   OH260729   5.372   2.213  10.919  0.7249 -0.9864  0.3526
13105TIP3    H160730   5.438   2.279  10.941  0.6824 -0.4162 -1.1311
13105TIP3    H260731   5.420   2.145  10.872  0.4117 -0.9877  0.0265
13106TIP3   OH260732   0.835   1.791   0.826  0.1815  0.0473  0.0786
13106TIP3    H160733   0.749   1.752   0.844 -0.5815  0.7474 -1.7918
13106TIP3    H260734   0.824   1.884   0.848  0.4413  0.1468 -0.2153
13107TIP3   OH260735   1.889   5.985   3.241  0.6441  0.0359  0.2625
13107TIP3    H160736   1.972   6.009   3.282  0.2195  0.8686  0.6595
13107TIP3    H260737   1.914   5.930   3.166  1.5038 -0.3348  0.8068
13108TIP3   OH260738   4.167   4.715   5.454  0.5698  0.1052  0.5408
13108TIP3    H160739   4.085   4.740   5.496  0.8013 -0.7470  1.5619
13108TIP3    H260740   4.226   4.696   5.528  1.6037  0.4599 -0.1716
13109TIP3   OH260741   1.704   4.811   5.260 -0.1150  0.3453  0.2011
13109TIP3    H160742   1.787   4.847   5.230 -0.2065 -0.0630 -0.5682
13109TIP3    H260743   1.658   4.885   5.300  1.3497  0.2014  2.3183
13110TIP3   OH260744   3.082   1.181   2.259  0.0173  0.2374  0.6698
13110TIP3    H160745   3.075   1.249   2.326 -0.4346  1.7725 -0.8473
13110TIP3    H260746   2.991   1.162   2.234  0.2026  0.9258 -0.6440
13111TIP3   OH260747   1.286   1.194   4.219 -0.4956 -0.3955 -0.2064
13111TIP3    H160748   1.216   1.259   4.216 -0.0981  0.1997  1.7703
13111TIP3    H260749   1.284   1.152   4.133 -4.2475 -1.4423  0.1845
13112TIP3   OH260750   2.749   6.499  14.597  0.1949 -0.0500  0.8341
13112TIP3    H160751   2.671   6.552  14.616  0.4642  0.4066  0.6610
13112TIP3    H260752   2.756   6.440  14.672 -0.2104  0.0348  0.9408
13113TIP3   OH260753   1.737   4.330  13.216  0.3658 -0.2559  0.0791
13113TIP3    H160754   1.719   4.236  13.210 -0.4909 -0.0563 -0.6699
13113TIP3    H260755   1.652   4.369  13.235  1.0725  0.1915  2.7313
13114TIP3   OH260756   3.211   4.482   1.779 -0.5153  0.1531 -0.0737
13114TIP3    H160757   3.305   4.479   1.800 -0.3801  1.7821 -0.3141
13114TIP3    H260758   3.209   4.487   1.683 -0.9391 -1.5609 -0.1899
13115TIP3   OH260759   4.731   2.263  11.323  0.3955  0.1178 -0.0965
13115TIP3    H160760   4.808   2.208  11.307  0.4687  0.1255  0.2208
13115TIP3    H260761   4.734   2.281  11.417  0.1125  0.2787 -0.1181
13116TIP3   OH260762   2.297   0.252  12.867 -0.8175 -0.3160 -0.3742
13116TIP3    H160763   2.302   0.340  12.902 -1.7670 -0.3136 -0.2014
13116TIP3    H260764   2.235   0.258  12.794 -0.9279 -0.8446 -0.3323
13117TIP3   OH260765   1.866   5.280   0.410  0.0496 -0.0802  0.5093
13117TIP3    H160766   1.775   5.292   0.437  0.2437 -1.4836  2.0228
13117TIP3    H260767   1.861   5.230   0.329 -0.5457 -0.7773  0.9593
13118TIP3   OH260768   2.676   2.183   1.627  0.0655  0.4780 -0.1147
13118TIP3    H160769   2.695   2.115   1.562 -0.6349 -2.5698  2.6177
13118TIP3    H260770   2.759   2.195   1.674  0.0696  1.2086 -0.2984
13119TIP3   OH260771   0.429   2.131   1.041 -0.0379  0.0993  0.0501
13119TIP3    H160772   0.428   2.099   1.131 -0.7800  0.6875  0.2673
13119TIP3    H260773   0.483   2.069   0.993 -2.0645 -1.9682  0.2708
13120TIP3   OH260774   6.306   3.099  15.704 -0.1182 -0.0562 -0.2280
13120TIP3    H160775   6.219   3.058  15.705  0.4657 -1.5412 -2.5359
13120TIP3    H260776   6.291   3.186  15.739 -2.1625 -0.9235  1.2688
13121TIP3   OH260777   4.716   4.074   1.567 -0.2020 -0.6215  0.0591
13121TIP3    H160778   4.665   4.139   1.614  1.1270  0.6004 -0.1154
13121TIP3    H260779   4.745   4.013   1.635  0.0025 -0.0292  0.5154
13122TIP3   OH260780   3.888   6.546  12.085  0.2032 -0.2366  0.2360
13122TIP3    H160781   3.842   6.627  12.062 -0.0420 -0.3042  0.4772
13122TIP3    H260782   3.957   6.574  12.144 -0.0792 -0.2393  0.5707
13123TIP3   OH260783   1.971   3.291   5.215 -0.3011  0.0514  0.0363
13123TIP3    H160784   2.010   3.228   5.154  0.6797  1.7247 -1.1610
13123TIP3    H260785   1.913   3.345   5.161  1.4089  2.2751  0.2619
13124TIP3   OH260786   3.704   6.649   4.960  0.3794  0.3006  0.6715
13124TIP3    H160787   3.702   6.599   4.878  0.0558  2.1991 -0.5326
13124TIP3    H260788   3.715   6.582   5.028 -1.4508 -1.5402 -0.7121
13125TIP3   OH260789   3.548   6.199   0.944  1.0886  0.6616  0.0417
13125TIP3    H160790   3.507   6.277   0.982 -1.1456 -0.3788 -0.0820
13125TIP3    H260791   3.617   6.234   0.887 -0.6208  2.6555 -0.9680
13126TIP3   OH260792   3.780   2.002   2.042  0.6816 -0.2658 -0.5652
13126TIP3    H160793   3.860   1.998   1.989  0.7621  0.6533 -0.5445
13126TIP3    H260794   3.797   1.945   2.116  0.7229 -1.2629 -1.3241
13127TIP3   OH260795   1.076   4.550  12.279  0.0183 -0.7202 -0.5364
13127TIP3    H160796   1.131   4.587  12.209  0.8127 -0.4097  0.2333
13127TIP3    H260797   1.100   4.600  12.357  0.9694 -2.6850  0.4899
13128TIP3   OH260798   2.439   6.179   4.790 -0.3922 -0.7250 -0.0681
13128TIP3    H160799   2.525   6.146   4.816 -1.3769 -2.4379  1.2919
13128TIP3    H260800   2.417   6.242   4.858  0.1640  0.4555 -0.9523
13129TIP3   OH260801   2.230   2.181   2.231 -0.4836  0.2489 -0.0152
13129TIP3    H160802   2.300   2.235   2.268 -0.2432 -0.5045  0.6417
13129TIP3    H260803   2.264   2.151   2.147 -0.8816  1.6457 -0.7195
13130TIP3   OH260804   1.955   3.013   0.210  0.0094  0.5371 -0.3964
13130TIP3    H160805   1.911   2.944   0.162 -0.4244 -0.0043  0.7544
13130TIP3    H260806   1.993   3.069   0.142  0.0337 -0.5993 -1.3512
13131TIP3   OH260807   5.674   2.587   3.406  0.1417 -0.0470 -0.3403
13131TIP3    H160808   5.765   2.612   3.425 -0.9730  2.8670  2.0138
13131TIP3    H260809   5.667   2.592   3.311  1.9700  1.7496 -0.4558
13132TIP3   OH260810   2.785   0.578  16.877  0.1517 -0.2879 -0.3093
13132TIP3    H160811   2.777   0.482  16.882 -1.9077 -0.1729 -0.7305
13132TIP3    H260812   2.721   0.604  16.811  0.7602  1.3913 -0.2849
13133TIP3   OH260813   3.190   2.477   2.337  0.3314  0.0020  0.3938
13133TIP3    H160814   3.272   2.500   2.294  1.1801  0.0387  1.9448
13133TIP3    H260815   3.161   2.397   2.294  0.3436  0.8180 -1.2128
13134TIP3   OH260816   2.524   6.079  16.875 -0.2489 -0.1928  0.0452
13134TIP3    H160817   2.592   6.101  16.811  0.8789  1.7487  1.7882
13134TIP3    H260818   2.507   5.985  16.861  0.0901  0.0918 -2.8755
13135TIP3   OH260819   6.366   3.205  14.574  0.9152  0.3480 -0.1628
13135TIP3    H160820   6.356   3.245  14.487  0.9548  0.6221 -0.0445
13135TIP3    H260821   6.415   3.271  14.624  0.2307  0.5206  0.2881
13136TIP3   OH260822   0.640   2.648  12.020  0.0540  0.3843  0.6669
13136TIP3    H160823   0.645   2.609  11.932 -1.0711  1.5688  0.0391
13136TIP3    H260824   0.707   2.716  12.019 -0.2768  0.7108  0.5514
13137TIP3   OH260825   5.021   5.908   3.006 -0.0810  0.0349  0.0202
13137TIP3    H160826   4.926   5.908   2.990 -0.2477  0.1112  0.9477
13137TIP3    H260827   5.050   5.822   2.974 -0.2845  0.3908 -1.1766
13138TIP3   OH260828   5.721   1.472   4.542 -0.2044  0.0262 -0.0666
13138TIP3    H160829   5.647   1.530   4.559 -1.1292 -1.6597  2.0602
13138TIP3    H260830   5.683   1.384   4.543  1.3460 -0.7550 -2.0843
13139TIP3   OH260831   3.308   5.147  11.482  0.5462  0.1729 -0.0554
13139TIP3    H160832   3.289   5.112  11.569  1.2853 -1.8247 -0.6196
13139TIP3    H260833   3.223   5.172  11.446  0.0567 -0.3839  0.6865
13140TIP3   OH260834   1.867   6.745  11.901 -0.2373 -0.2755 -0.5124
13140TIP3    H160835   1.830   6.738  11.813  0.2576 -0.7086 -0.6940
13140TIP3    H260836   1.938   6.809  11.893 -0.8320  0.4398 -0.1988
13141TIP3   OH260837   3.610   4.805   6.086  0.4121  0.0477  0.1232
13141TIP3    H160838   3.608   4.838   6.176 -2.2945 -1.0198  0.5596
13141TIP3    H260839   3.601   4.710   6.095 -1.1621  0.0251 -1.2666
13142TIP3   OH260840   2.402   3.926  12.833 -0.2165 -0.0249 -0.1178
13142TIP3    H160841   2.451   4.000  12.870  1.2986 -1.1662  0.2714
13142TIP3    H260842   2.434   3.919  12.743 -3.1165  2.0734 -1.4583
13143TIP3   OH260843   3.654   0.023   5.935  0.4676  0.4287  0.2468
13143TIP3    H160844   3.561   0.001   5.932  0.0749  2.0347 -2.9036
13143TIP3    H260845   3.698  -0.054   5.899  0.2472  0.2438  0.3692
13144TIP3   OH260846   0.245   3.699  10.901 -0.2772  0.0524 -0.6787
13144TIP3    H160847   0.303   3.641  10.852  0.9311 -0.0014  0.7606
13144TIP3    H260848   0.209   3.758  10.835 -0.5736 -1.5287 -1.9768
13145TIP3   OH260849   2.016   5.363   4.070 -0.4714 -0.1866 -0.0033
13145TIP3    H160850   1.948   5.430   4.063  0.3036  0.7493  0.9598
13145TIP3    H260851   2.077   5.383   3.999 -0.1405  0.2877  0.3984
13146TIP3   OH260852   5.258   1.502  12.597 -0.6718 -0.5006  0.2787
13146TIP3    H160853   5.169   1.520  12.564 -0.3736 -0.3368 -0.4662
13146TIP3    H260854   5.308   1.579  12.572 -0.0444 -1.1037 -0.3686
13147TIP3   OH260855   1.108   6.058  15.142 -0.4133 -0.8559 -0.4754
13147TIP3    H160856   1.154   6.135  15.108  0.5273 -0.2305  2.0180
13147TIP3    H260857   1.016   6.082  15.141 -0.1429  0.2370  0.0923
13148TIP3   OH260858   0.137   3.659   4.287 -0.3713 -0.6851  0.0725
13148TIP3    H160859   0.227   3.640   4.311 -0.2152 -1.4708 -1.0653
13148TIP3    H260860   0.094   3.574   4.285 -1.0086 -0.3704  0.1130
13149TIP3   OH260861   5.188   6.745  14.825  0.8324  0.0078 -0.1019
13149TIP3    H160862   5.148   6.825  14.792  1.1438  0.9707  1.7075
13149TIP3    H260863   5.119   6.679  14.819 -0.1703  0.9743  0.4156
13150TIP3   OH260864   1.309   5.210   4.674 -0.1918  0.2529  0.3300
13150TIP3    H160865   1.373   5.277   4.652  0.3426 -0.2674  0.2576
13150TIP3    H260866   1.306   5.152   4.598 -3.0919  1.9713 -1.0370
13151TIP3   OH260867   2.122   4.929  13.119 -0.5080 -0.0207 -0.1955
13151TIP3    H160868   2.215   4.923  13.097 -0.9588  0.1870 -2.3493
13151TIP3    H260869   2.121   4.960  13.209  1.5219  1.2584 -0.5542
13152TIP3   OH260870   5.274   6.458   0.372 -0.3056  0.0778  0.3752
13152TIP3    H160871   5.196   6.502   0.406 -0.0383 -0.4581  1.7389
13152TIP3    H260872   5.320   6.426   0.450 -0.5987 -2.8211 -0.5456
13153TIP3   OH260873   0.972   3.734  12.423  0.2490  0.0771  0.0034
13153TIP3    H160874   0.999   3.678  12.495 -1.0699  0.0980  0.5359
13153TIP3    H260875   0.952   3.673  12.352  0.6257 -0.0052 -0.0327
13154TIP3   OH260876   4.546   2.706  11.318  0.3846  0.1657  0.1955
13154TIP3    H160877   4.503   2.623  11.338  1.0695 -0.1793  0.2767
13154TIP3    H260878   4.557   2.705  11.223  1.1376 -0.2226  0.2774
13155TIP3   OH260879   5.413   0.859  14.351  0.1951 -0.6120 -0.1981
13155TIP3    H160880   5.353   0.919  14.395  0.4299  0.1596 -0.9031
13155TIP3    H260881   5.357   0.806  14.295  0.2883  1.2848 -2.2004
13156TIP3   OH260882   3.518   2.086   2.014  0.0226  0.8232  0.0354
13156TIP3    H160883   3.610   2.062   2.001 -0.1031  0.7531 -0.8184
13156TIP3    H260884   3.492   2.038   2.093  0.7049  0.8120  0.2622
13157TIP3   OH260885   1.017   3.274  15.221  0.1146  0.3453  0.7294
13157TIP3    H160886   0.941   3.278  15.279 -1.0029  1.6667 -0.7265
13157TIP3    H260887   1.032   3.365  15.195  1.5830 -0.0193  0.2202
13158TIP3   OH260888   2.487   1.555  15.171  0.4987 -0.4759 -0.1914
13158TIP3    H160889   2.528   1.602  15.099 -0.8816  0.2548 -0.5375
13158TIP3    H260890   2.424   1.496  15.129  0.8272 -1.2255  0.3444
13159TIP3   OH260891   3.365   1.763   5.712 -0.0081  0.1550  0.0679
13159TIP3    H160892   3.444   1.736   5.758  1.1287 -1.8613 -2.7870
13159TIP3    H260893   3.386   1.850   5.677  0.9752 -0.3855 -0.7095
13160TIP3   OH260894   0.481   3.590   2.195 -0.0470 -0.3247  0.0182
13160TIP3    H160895   0.538   3.572   2.121  0.6994 -0.6156  0.6481
13160TIP3    H260896   0.443   3.676   2.176 -1.3764 -1.2099 -1.6145
13161TIP3   OH260897   5.401   1.797  15.977  0.6035 -0.1347  0.5110
13161TIP3    H160898   5.431   1.853  16.049  0.3611  2.5977 -1.3263
13161TIP3    H260899   5.474   1.796  15.916 -1.3661  3.7006 -2.4025
13162TIP3   OH260900   4.487   5.263   5.177 -0.5675  0.2070  0.0428
13162TIP3    H160901   4.563   5.224   5.220 -1.6911 -0.4782  1.5060
13162TIP3    H260902   4.423   5.276   5.248 -2.5433 -1.0298 -1.4114
13163TIP3   OH260903   2.224   3.558  14.009  0.2388  0.4352  0.4049
13163TIP3    H160904   2.204   3.652  14.012 -1.5998  0.2708 -2.3529
13163TIP3    H260905   2.318   3.553  13.995  0.4222  1.8470  1.0266
13164TIP3   OH260906   3.437   4.041  13.515  0.1962  0.1236 -0.0173
13164TIP3    H160907   3.488   4.060  13.437  0.6392 -1.9329 -0.3016
13164TIP3    H260908   3.490   4.072  13.588 -0.7472  3.1637 -0.4984
13165TIP3   OH260909   5.177   2.241  10.695  0.7839  0.5102  0.1654
13165TIP3    H160910   5.110   2.175  10.679 -0.1397  1.1672  1.1362
13165TIP3    H260911   5.230   2.206  10.766 -0.6557  1.4154  1.7631
13166TIP3   OH260912   0.573   4.849  13.493 -0.5075  0.5967 -0.6225
13166TIP3    H160913   0.498   4.793  13.472 -0.9526 -0.1328  2.4334
13166TIP3    H260914   0.635   4.834  13.422 -1.9063 -1.3584 -1.5185
13167TIP3   OH260915   6.375   3.635   5.413  0.6638  0.4052  0.2287
13167TIP3    H160916   6.377   3.665   5.322  0.8439  0.4248  0.2382
13167TIP3    H260917   6.351   3.543   5.408 -0.9140  0.7858  0.2641
13168TIP3   OH260918   3.379   5.895   3.607  1.0455  0.1120 -0.5397
13168TIP3    H160919   3.385   5.808   3.566  3.9496 -1.2261  2.1867
13168TIP3    H260920   3.321   5.882   3.682  2.3891  0.1239  0.5439
13169TIP3   OH260921   6.425   0.537   2.005 -0.2094 -0.6080 -0.3525
13169TIP3    H160922   6.508   0.565   1.968  0.5620 -0.5839  1.3128
13169TIP3    H260923   6.360   0.562   1.940  0.7810  2.0412 -0.4429
13170TIP3   OH260924   4.734   4.517  10.589 -0.1355 -0.4686 -0.1971
13170TIP3    H160925   4.657   4.475  10.552 -0.9429 -0.2593  1.1637
13170TIP3    H260926   4.794   4.528  10.515 -0.6302 -2.3360 -0.9280
13171TIP3   OH260927   3.630   3.075   2.931  0.1968 -0.0935  0.8938
13171TIP3    H160928   3.688   3.009   2.893  3.0136  1.7483  1.7307
13171TIP3    H260929   3.673   3.100   3.013 -0.9098  2.5748  0.7379
13172TIP3   OH260930   3.518   2.206  12.406  0.7933 -0.3440  0.0462
13172TIP3    H160931   3.533   2.121  12.446  1.3926 -0.5980 -0.6943
13172TIP3    H260932   3.563   2.201  12.322  4.3432  2.0962  1.6077
13173TIP3   OH260933   3.994   2.018  13.724 -0.2495 -0.1780 -0.3779
13173TIP3    H160934   3.937   2.075  13.671  1.6452  0.5253 -1.7480
13173TIP3    H260935   4.076   2.066  13.731  0.5759 -1.6655  0.6183
13174TIP3   OH260936   4.657   1.418  15.437  0.3400  0.5043  0.1231
13174TIP3    H160937   4.607   1.345  15.401 -0.5296  1.2187 -0.1700
13174TIP3    H260938   4.695   1.461  15.360 -0.0199  0.9692  0.2005
13175TIP3   OH260939   0.473   1.946  12.581  0.5850 -0.3687 -0.0594
13175TIP3    H160940   0.525   1.929  12.502  0.6002  0.2253 -0.1829
13175TIP3    H260941   0.385   1.961  12.548  0.5182 -0.4815  0.0698
13176TIP3   OH260942   3.206   4.292  15.986  0.3522 -0.1469  0.4914
13176TIP3    H160943   3.158   4.320  16.064 -0.8424  0.3717 -0.3966
13176TIP3    H260944   3.236   4.373  15.946 -1.4098 -0.1693 -1.0268
13177TIP3   OH260945   6.266   3.451   3.617 -0.0514  0.2912  0.3594
13177TIP3    H160946   6.266   3.520   3.684  1.5774  0.3874  0.3103
13177TIP3    H260947   6.241   3.371   3.664 -0.7201  0.6844  0.6825
13178TIP3   OH260948   0.110   6.190  15.886 -0.0454 -0.4116 -0.5252
13178TIP3    H160949   0.154   6.275  15.880  1.3948 -1.1489 -0.9781
13178TIP3    H260950   0.062   6.193  15.969 -0.8134  1.1868 -1.0034
13179TIP3   OH260951   3.852   4.183   2.934 -0.6033  0.0692  0.1953
13179TIP3    H160952   3.829   4.139   3.016 -1.2786 -1.8270 -0.9511
13179TIP3    H260953   3.875   4.111   2.874  1.1872  1.4762 -0.9074
13180TIP3   OH260954   4.486   4.813   3.431 -0.6919 -0.2045 -0.0415
13180TIP3    H160955   4.394   4.830   3.409 -0.0421  1.1172 -2.0715
13180TIP3    H260956   4.503   4.725   3.398 -1.2159 -0.4503  0.3360
13181TIP3   OH260957   2.674   0.361  13.370 -0.3965  0.2705  0.1885
13181TIP3    H160958   2.770   0.356  13.365 -0.3354  0.7857  0.7226
13181TIP3    H260959   2.653   0.332  13.459 -0.8339 -0.9859 -0.3013
13182TIP3   OH260960   4.011   2.427   1.325  0.2247  0.1419  0.3182
13182TIP3    H160961   3.987   2.344   1.367 -0.9183 -0.5266 -1.5551
13182TIP3    H260962   3.950   2.491   1.361  1.3840  0.3297  2.0972
13183TIP3   OH260963   4.597   1.100   3.981 -0.4368  1.4759 -0.1499
13183TIP3    H160964   4.529   1.118   3.916  0.3603  1.5581 -0.9904
13183TIP3    H260965   4.552   1.101   4.065 -1.9371 -0.8922 -0.8362
13184TIP3   OH260966   5.243   5.302   0.362 -0.1945 -0.0872  0.0189
13184TIP3    H160967   5.243   5.301   0.458 -0.5581 -0.2987  0.0211
13184TIP3    H260968   5.265   5.212   0.337 -0.7096 -0.1902 -0.0868
13185TIP3   OH260969   3.132   6.143  10.833 -0.5831  0.7889  0.1569
13185TIP3    H160970   3.079   6.206  10.882 -0.9091  1.7567 -1.4019
13185TIP3    H260971   3.165   6.192  10.758  0.3371 -0.5275 -0.3292
13186TIP3   OH260972   4.458   1.044  10.564 -0.6900 -0.0306 -0.0684
13186TIP3    H160973   4.431   1.102  10.493  1.0099  1.5992  0.5281
13186TIP3    H260974   4.405   1.071  10.639 -0.1057  0.5914  0.1322
13187TIP3   OH260975   4.332   2.672  13.023  0.3803  0.2309  0.5273
13187TIP3    H160976   4.302   2.736  13.087  1.7936  0.4189  1.0398
13187TIP3    H260977   4.305   2.587  13.060  2.5143  0.1993  2.2395
13188TIP3   OH260978   6.109   4.930  11.763  0.3806 -0.6471  0.7269
13188TIP3    H160979   6.111   4.957  11.671 -2.1714  1.3121  1.1324
13188TIP3    H260980   6.053   4.853  11.765 -1.4559  0.6406  0.8471
13189TIP3   OH260981   6.087   5.729   4.096  0.5451 -0.2942 -0.0120
13189TIP3    H160982   6.166   5.685   4.130  2.8419  2.0323 -1.9311
13189TIP3    H260983   6.076   5.805   4.154  1.6674  1.0867 -1.5188
13190TIP3   OH260984   0.130   4.134  16.237  0.1743 -0.8394 -0.4855
13190TIP3    H160985   0.104   4.223  16.213  0.8008 -0.8786 -1.3463
13190TIP3    H260986   0.222   4.128  16.211  1.3895 -0.4347  3.1761
13191TIP3   OH260987   3.568   4.194   5.263  0.8663 -0.0049 -0.2148
13191TIP3    H160988   3.633   4.263   5.276  0.9705 -0.2752  0.7563
13191TIP3    H260989   3.487   4.232   5.295  1.2667 -0.9311  2.0480
13192TIP3   OH260990   6.642   4.618  15.955  0.2808  0.1419 -0.6129
13192TIP3    H160991   6.562   4.666  15.978  1.8106  1.3747  2.6199
13192TIP3    H260992   6.616   4.526  15.960 -1.1492  0.5224 -0.5010
13193TIP3   OH260993   2.523   0.030  16.882 -0.8864  0.2348  0.5832
13193TIP3    H160994   2.487   0.118  16.872 -2.1167 -0.4111 -1.2527
13193TIP3    H260995   2.514  -0.010  16.796 -0.3413 -1.6913  1.3488
13194TIP3   OH260996   1.393   0.213   2.141 -0.3043 -0.2453 -0.1065
13194TIP3    H160997   1.474   0.172   2.110 -0.6747 -0.4029 -0.8845
13194TIP3    H260998   1.421   0.273   2.210  0.2621 -1.8171  1.1018
13195TIP3   OH260999   0.671   1.623  12.992  0.1825 -0.1987  0.1415
13195TIP3    H161000   0.742   1.563  13.014 -0.2392 -0.7232  0.1025
13195TIP3    H261001   0.670   1.687  13.063  1.4881  0.5585 -0.4739
13196TIP3   OH261002   5.915   2.621   1.086 -0.1340  0.6503  0.8467
13196TIP3    H161003   5.916   2.629   0.991 -1.1883  1.6324  0.8949
13196TIP3    H261004   5.847   2.557   1.104  0.2139  0.3017  0.9420
13197TIP3   OH261005   4.082   3.358   5.319 -0.5696  0.0782 -0.0055
13197TIP3    H161006   4.084   3.451   5.298  2.2545 -0.0173 -0.6551
13197TIP3    H261007   4.162   3.344   5.370 -0.3108 -2.1879 -0.9270
13198TIP3   OH261008   4.611   5.502   5.066 -0.1684  0.6643  0.1005
13198TIP3    H161009   4.647   5.518   5.153  1.3231 -0.7023 -0.2080
13198TIP3    H261010   4.562   5.420   5.075  1.5624 -0.5102 -0.7116
13199TIP3   OH261011   1.462   4.257   1.231 -0.0826  0.4067 -0.6276
13199TIP3    H161012   1.468   4.164   1.255  0.1534  0.1016 -1.7988
13199TIP3    H261013   1.550   4.291   1.244 -0.0098  0.2987 -0.8333
13200TIP3   OH261014   6.515   4.544  16.290 -0.0934  0.2117 -0.2634
13200TIP3    H161015   6.474   4.519  16.207  0.0591 -2.4400  0.3937
13200TIP3    H261016   6.593   4.490  16.296 -1.1084 -1.1219  2.4638
13201TIP3   OH261017   2.468   3.964  13.724  0.4515 -0.3036 -0.1038
13201TIP3    H161018   2.484   3.920  13.808  0.1294 -0.6316 -0.2125
13201TIP3    H261019   2.471   3.893  13.660  1.0527 -0.0040 -0.4140
13202TIP3   OH261020   2.145   2.706  15.784 -0.1006 -0.2673 -0.3585
13202TIP3    H161021   2.187   2.666  15.860 -2.7148 -0.2068  1.2091
13202TIP3    H261022   2.214   2.760  15.744  2.6777 -3.6802 -0.7345
13203TIP3   OH261023   2.901   6.315   2.534  0.2212 -0.2591  0.0018
13203TIP3    H161024   2.851   6.234   2.525 -0.1267 -0.0198 -0.2029
13203TIP3    H261025   2.990   6.285   2.555  0.1863 -0.7085 -0.4684
13204TIP3   OH261026   1.673   4.658   1.351  0.3675 -0.2118  0.6770
13204TIP3    H161027   1.729   4.701   1.416  0.3604  1.0144 -0.1150
13204TIP3    H261028   1.588   4.651   1.393  0.7052 -0.6780  1.3051
13205TIP3   OH261029   2.079   3.022  16.747  0.7167  0.1696  0.1153
13205TIP3    H161030   2.037   2.962  16.808  3.0613 -0.0151  1.6505
13205TIP3    H261031   2.124   3.086  16.802  1.2520  1.2097 -1.4408
13206TIP3   OH261032   2.136   3.506  15.073 -0.4909 -0.0170 -0.1914
13206TIP3    H161033   2.217   3.550  15.048 -0.0190 -0.9439 -0.3410
13206TIP3    H261034   2.151   3.475  15.162 -0.2053 -1.2281 -0.6335
13207TIP3   OH261035   2.917   2.874  11.098 -0.1786 -0.3017  0.4467
13207TIP3    H161036   2.899   2.952  11.046  0.4222  0.6842  1.6700
13207TIP3    H261037   3.008   2.853  11.080 -0.8900 -1.9979 -1.4779
13208TIP3   OH261038   4.442   0.044  15.042 -0.0459  0.4245  0.4595
13208TIP3    H161039   4.377   0.006  14.983  1.3349  0.5539 -1.2100
13208TIP3    H261040   4.428  -0.002  15.125 -0.6380 -1.3446 -0.5610
13209TIP3   OH261041   3.014   6.701   2.833 -0.1620 -0.3514  0.2068
13209TIP3    H161042   2.979   6.700   2.744 -0.9938 -1.3810  0.5216
13209TIP3    H261043   2.946   6.743   2.886 -0.3553 -1.1492  0.6066
13210TIP3   OH261044   2.032   4.319  13.673 -0.0799 -0.0303 -0.4772
13210TIP3    H161045   1.937   4.330  13.673 -0.0674  0.4796  1.3082
13210TIP3    H261046   2.045   4.226  13.657 -0.9541 -0.3163  0.3379
13211TIP3   OH261047   2.633   4.740  14.526  0.0645 -0.4549  0.7122
13211TIP3    H161048   2.715   4.776  14.490 -0.7226  0.3996 -0.2709
13211TIP3    H261049   2.567   4.760  14.460 -0.9027 -1.3947  1.3615
13212TIP3   OH261050   1.905   4.288   4.702 -0.3228  0.1305  0.3220
13212TIP3    H161051   1.827   4.281   4.646 -0.2981 -0.8875  0.4095
13212TIP3    H261052   1.931   4.198   4.720  0.0754  0.4393  1.4221
13213TIP3   OH261053   1.728   1.766   0.346 -0.0607 -0.5080 -0.1479
13213TIP3    H161054   1.674   1.735   0.274 -0.8500 -0.1622  0.2780
13213TIP3    H261055   1.667   1.774   0.420  0.5834 -0.1563  0.3575
13214TIP3   OH261056   1.190   5.602  11.240  0.8973 -0.2091  0.4401
13214TIP3    H161057   1.257   5.651  11.194  1.4422 -1.7770 -0.5251
13214TIP3    H261058   1.194   5.632  11.331  2.3758  0.2619  0.2272
13215TIP3   OH261059   5.969   1.106  10.650 -0.0364 -0.0978 -0.1919
13215TIP3    H161060   6.065   1.109  10.655 -0.0722 -0.1634  0.5929
13215TIP3    H261061   5.951   1.053  10.572  0.5649 -0.6919  0.0649
13216TIP3   OH261062   2.916   1.448  10.630  0.0584  0.6562 -0.5607
13216TIP3    H161063   2.826   1.438  10.601 -1.2945  1.3062  2.9341
13216TIP3    H261064   2.942   1.535  10.598 -1.3501  1.3652  0.1212
13217TIP3   OH261065   5.422   1.217  11.188 -0.4844 -0.1113  0.6290
13217TIP3    H161066   5.437   1.180  11.275 -1.7795  1.9275  1.7971
13217TIP3    H261067   5.338   1.181  11.161 -0.6271  0.1499  0.7256
13218TIP3   OH261068   4.786   1.123  14.802  0.3261 -0.3429 -0.1163
13218TIP3    H161069   4.692   1.124  14.786  0.4141  0.7344 -0.6467
13218TIP3    H261070   4.813   1.035  14.779 -0.4567 -0.4769 -0.5647
13219TIP3   OH261071   4.812   4.591  12.706  0.0827  0.1439  0.1859
13219TIP3    H161072   4.752   4.557  12.639  2.2954 -0.3089 -1.7097
13219TIP3    H261073   4.866   4.654  12.658  1.1998  0.4343  1.7878
13220TIP3   OH261074   1.109   2.419  16.244 -0.1071 -0.3346 -0.1481
13220TIP3    H161075   1.098   2.341  16.189 -0.3137 -1.4099  1.3692
13220TIP3    H261076   1.142   2.386  16.327  1.9257  1.4538 -0.1517
13221TIP3   OH261077   5.948   4.328   0.170 -0.0782  0.4970  0.3432
13221TIP3    H161078   6.015   4.395   0.161 -2.3380  3.2658  2.1167
13221TIP3    H261079   5.905   4.325   0.085 -0.5890  2.1493  0.5054
13222TIP3   OH261080   4.795   0.287  11.548  0.1966  0.1309 -0.0125
13222TIP3    H161081   4.801   0.256  11.639 -0.9434  0.3250  0.1475
13222TIP3    H261082   4.886   0.301  11.521  0.6266 -1.2059  0.6484
13223TIP3   OH261083   1.319   2.321   3.667  0.0159 -0.1174 -0.1264
13223TIP3    H161084   1.250   2.255   3.672  0.3837 -0.6136 -1.2419
13223TIP3    H261085   1.273   2.403   3.651 -0.3122 -0.5082 -1.2772
13224TIP3   OH261086   5.941   3.813  12.737 -0.3747  0.2297 -0.3044
13224TIP3    H161087   5.969   3.905  12.733 -1.0357  0.4939  0.8394
13224TIP3    H261088   5.870   3.806  12.674 -0.7565  0.6624  0.0790
13225TIP3   OH261089   0.724   5.833  14.388  0.0405  0.4607  0.4643
13225TIP3    H161090   0.675   5.900  14.436 -1.1963  0.6808 -1.0162
13225TIP3    H261091   0.748   5.769  14.454 -3.3828 -0.3056  1.1214
13226TIP3   OH261092   6.305   0.947   3.354 -0.2156  0.2549  0.1437
13226TIP3    H161093   6.227   1.002   3.352  0.9230  1.9421 -0.0106
13226TIP3    H261094   6.348   0.963   3.269  0.9935  0.4331  0.7662
13227TIP3   OH261095   3.777   2.579   1.834  0.0350  0.0750 -0.7194
13227TIP3    H161096   3.853   2.574   1.776  1.6397 -1.6733  1.3676
13227TIP3    H261097   3.750   2.488   1.847 -1.9261  0.6087 -0.7339
13228TIP3   OH261098   2.803   4.740   2.263 -0.0084 -0.2549 -0.1144
13228TIP3    H161099   2.831   4.688   2.338  1.7691  0.0684 -0.4926
13228TIP3    H261100   2.884   4.753   2.212 -1.3543 -1.5502 -2.7787
13229TIP3   OH261101   6.156   4.097  13.539 -0.4283 -0.2059  0.5720
13229TIP3    H161102   6.192   4.183  13.518 -1.0094 -0.4860 -1.8574
13229TIP3    H261103   6.172   4.044  13.461  1.4332 -2.8736  2.6023
13230TIP3   OH261104   0.700   4.084   4.774  0.0260  0.4981  0.3120
13230TIP3    H161105   0.625   4.113   4.825 -2.4733 -2.1756 -1.5301
13230TIP3    H261106   0.734   4.008   4.821 -0.0853  0.1231 -0.2094
13231TIP3   OH261107   1.185   1.594   4.195 -0.1292 -0.0979  0.9275
13231TIP3    H161108   1.203   1.529   4.127  2.0256  0.8316  0.5066
13231TIP3    H261109   1.215   1.553   4.276 -2.2530 -1.0189  1.3070
13232TIP3   OH261110   5.331   0.340  11.828 -0.3604 -0.2884 -0.2578
13232TIP3    H161111   5.427   0.345  11.832 -0.3720 -0.2860  0.1169
13232TIP3    H261112   5.306   0.315  11.917 -0.7205 -0.0442 -0.2904
13233TIP3   OH261113   0.078   4.687  13.919  0.4439  0.4039 -0.2180
13233TIP3    H161114   0.138   4.619  13.950 -0.2671  0.7781  2.1540
13233TIP3    H261115  -0.008   4.658  13.949  0.1584  2.4541  1.1304
13234TIP3   OH261116   2.303   5.537   4.908 -0.0291 -0.3045  0.0223
13234TIP3    H161117   2.319   5.616   4.855 -1.4261  0.2318  0.3590
13234TIP3    H261118   2.324   5.465   4.849 -0.0571  0.3074 -0.7590
13235TIP3   OH261119   6.208   4.980  14.691 -0.4858  0.3563  0.3365
13235TIP3    H161120   6.280   4.918  14.697  1.4857  2.6004  0.9960
13235TIP3    H261121   6.216   5.018  14.604 -1.6619 -0.2281 -0.0521
13236TIP3   OH261122   6.427   1.106   1.358 -0.0558  0.0590 -0.6334
13236TIP3    H161123   6.344   1.104   1.311 -0.1708 -1.1036 -0.3952
13236TIP3    H261124   6.492   1.130   1.291 -0.2276 -1.5182 -1.3982
13237TIP3   OH261125   0.192   5.638   2.863  0.5365 -0.4507  0.1368
13237TIP3    H161126   0.227   5.723   2.837  0.7563 -0.9517 -1.2492
13237TIP3    H261127   0.269   5.584   2.879  0.4138 -0.2275  1.7146
13238TIP3   OH261128   2.113   6.123   1.507 -0.3058  0.0157  0.9482
13238TIP3    H161129   2.129   6.186   1.578 -0.4678  1.1113  0.0290
13238TIP3    H261130   2.060   6.171   1.443  2.1605  0.0207 -1.2547
13239TIP3   OH261131   3.473   0.484  16.241 -0.2618 -0.2903 -0.5022
13239TIP3    H161132   3.492   0.391  16.227  0.5457 -0.0234 -1.3190
13239TIP3    H261133   3.452   0.517  16.154 -0.5383  0.2895 -0.2147
13240TIP3   OH261134   1.929   1.097   3.529  0.4204 -0.1981  0.0488
13240TIP3    H161135   1.971   1.016   3.559  0.8898  0.2112  0.5216
13240TIP3    H261136   1.955   1.104   3.437  2.0465  0.4310  0.5228
13241TIP3   OH261137   3.342   4.329  15.644 -0.0762  0.1198 -0.3045
13241TIP3    H161138   3.296   4.336  15.560 -0.5460  0.5762 -0.0136
13241TIP3    H261139   3.365   4.236  15.651  0.3932  0.1656 -1.1609
13242TIP3   OH261140   2.373   3.973   1.170 -0.5503  0.0530 -0.1145
13242TIP3    H161141   2.291   3.989   1.123 -0.1895 -0.0945 -0.8147
13242TIP3    H261142   2.439   4.021   1.120 -0.1262 -0.2426  0.1519
13243TIP3   OH261143   0.085   6.165   3.483  0.2591  0.3564 -0.1526
13243TIP3    H161144   0.150   6.175   3.553 -1.8836 -1.2303  2.2518
13243TIP3    H261145   0.105   6.080   3.444  1.5909  1.3383 -1.7360
13244TIP3   OH261146   0.247   2.040  16.820  0.2902 -0.1754  0.3958
13244TIP3    H161147   0.284   1.953  16.831  1.8412  0.4356  0.3096
13244TIP3    H261148   0.323   2.098  16.820 -0.7031  1.1698  0.3682
13245TIP3   OH261149   6.345   4.259  12.724  0.2146  0.0307 -0.2468
13245TIP3    H161150   6.406   4.240  12.652  0.7411 -0.5761  0.3534
13245TIP3    H261151   6.338   4.355  12.724 -1.8584  0.0018 -2.7971
13246TIP3   OH261152   4.230   1.905   4.811 -0.5459  0.1640  0.0025
13246TIP3    H161153   4.203   1.815   4.829  2.2084 -1.3890 -2.6174
13246TIP3    H261154   4.177   1.959   4.870 -1.4950 -3.2171  2.5459
13247TIP3   OH261155   1.416   1.252  15.139  0.1883  0.6096  0.3730
13247TIP3    H161156   1.409   1.285  15.049 -0.0442 -2.3228 -0.8088
13247TIP3    H261157   1.341   1.193  15.149  0.3591  0.6697  2.4201
13248TIP3   OH261158   3.170   4.757   1.829 -0.2757  0.1197 -0.1062
13248TIP3    H161159   3.121   4.783   1.751 -0.6470  1.1668  0.4462
13248TIP3    H261160   3.195   4.666   1.814 -1.2463 -0.0126 -0.9815
13249TIP3   OH261161   0.745   6.704   4.407  0.2878  0.8246 -0.4066
13249TIP3    H161162   0.769   6.723   4.498  1.8447  1.8090 -0.9761
13249TIP3    H261163   0.651   6.720   4.403  0.0641  0.1259  1.1693
13250TIP3   OH261164   3.324   4.059  16.190 -0.3123 -0.0099  0.4663
13250TIP3    H161165   3.264   4.117  16.142  0.3658 -0.6204 -1.2128
13250TIP3    H261166   3.267   4.004  16.243 -1.2424 -0.3477 -0.8328
13251TIP3   OH261167   4.190   1.906  11.863 -0.0653  0.3500 -0.0190
13251TIP3    H161168   4.138   1.827  11.882 -1.0508  1.4101  2.0770
13251TIP3    H261169   4.194   1.910  11.768 -0.1366 -2.1194 -0.1940
13252TIP3   OH261170   1.375   2.695  16.691  0.1694 -0.0610 -0.5568
13252TIP3    H161171   1.462   2.680  16.656  0.6800  1.7153 -0.1457
13252TIP3    H261172   1.355   2.786  16.668 -0.9819 -0.0009  0.5636
13253TIP3   OH261173   3.558   2.641  16.207 -0.4154  0.5961  0.4615
13253TIP3    H161174   3.619   2.568  16.194  0.4007  1.5267 -1.2644
13253TIP3    H261175   3.588   2.682  16.288  1.2230  0.9556 -0.2818
13254TIP3   OH261176   3.685   0.174  11.200 -0.2176 -0.2159  0.0412
13254TIP3    H161177   3.735   0.253  11.178 -0.9811  0.1466 -0.4467
13254TIP3    H261178   3.686   0.122  11.120 -2.4142  0.7841 -0.7283
13255TIP3   OH261179   0.353   0.033  15.142 -0.2406 -0.6643 -0.2058
13255TIP3    H161180   0.404   0.036  15.223 -0.7273  0.6661  0.0783
13255TIP3    H261181   0.281  -0.027  15.161 -0.5173 -0.1267  0.4497
13256TIP3   OH261182   5.956   4.142  11.929 -0.1178  0.0229 -0.1461
13256TIP3    H161183   5.927   4.134  11.838 -3.9049  0.8336  0.8169
13256TIP3    H261184   5.900   4.210  11.966  1.3981 -0.1729  2.8002
13257TIP3   OH261185   1.177   5.214   6.121  0.6356  0.7140  0.1284
13257TIP3    H161186   1.085   5.237   6.106 -0.6626 -1.6835  3.1821
13257TIP3    H261187   1.207   5.278   6.186  0.1610 -0.1157  1.2077
13258TIP3   OH261188   6.773   4.016  12.857 -0.1557 -0.4127 -0.4081
13258TIP3    H161189   6.768   4.055  12.769 -0.2592  0.5645  0.0241
13258TIP3    H261190   6.694   4.048  12.901  0.5449  0.1406  0.4609
13259TIP3   OH261191   2.976   5.175   3.130  0.2147  0.6744  0.5430
13259TIP3    H161192   3.047   5.180   3.193 -0.2286 -0.0530  1.1212
13259TIP3    H261193   2.906   5.130   3.176  0.7499 -2.2243 -1.2027
13260TIP3   OH261194   6.591   5.797   6.130 -0.5643  0.0106  0.3943
13260TIP3    H161195   6.535   5.722   6.150 -2.8830  1.6732  0.5660
13260TIP3    H261196   6.566   5.863   6.195  0.7770  1.2273 -0.2816
13261TIP3   OH261197   3.873   0.964  16.249 -0.7194 -0.1230 -0.2212
13261TIP3    H161198   3.938   0.893  16.247 -0.3876  0.0065  2.2635
13261TIP3    H261199   3.791   0.922  16.224 -0.7360 -1.7334  2.1761
13262TIP3   OH261200   3.408   5.613  11.334  0.7423  0.4184 -0.2010
13262TIP3    H161201   3.469   5.539  11.331  1.1425  0.5889  2.2065
13262TIP3    H261202   3.323   5.574  11.316  1.2009 -0.2563 -1.0042
13263TIP3   OH261203   6.173   1.220   1.178  0.0807  1.0033  0.3207
13263TIP3    H161204   6.127   1.223   1.262 -1.6182 -2.2744 -0.3368
13263TIP3    H261205   6.132   1.288   1.126 -1.8725  0.2829  0.8309
13264TIP3   OH261206   1.443   5.674   2.999 -0.2876  0.5051  0.5516
13264TIP3    H161207   1.434   5.579   2.991  0.7318  0.4691 -0.2973
13264TIP3    H261208   1.362   5.708   2.961 -0.3048 -0.0104  0.1031
13265TIP3   OH261209   1.841   6.091  11.842  0.3315 -0.1267  0.5909
13265TIP3    H161210   1.914   6.094  11.780  0.8857 -0.1513  1.2231
13265TIP3    H261211   1.787   6.167  11.820  0.1511 -0.5111 -0.3511
13266TIP3   OH261212   4.544   0.709   2.293  0.1332 -0.6514  0.0809
13266TIP3    H161213   4.540   0.614   2.289  1.6718 -0.7046 -0.9744
13266TIP3    H261214   4.539   0.738   2.202 -1.4080  0.3790  0.4376
13267TIP3   OH261215   3.173   5.226   3.308  0.3110  0.1236 -0.3795
13267TIP3    H161216   3.193   5.186   3.392  0.5058  1.2026  0.1051
13267TIP3    H261217   3.188   5.320   3.322 -2.8285  0.7850 -0.6288
13268TIP3   OH261218   6.628   6.418  16.691 -0.6104 -0.1033 -0.0523
13268TIP3    H161219   6.613   6.505  16.655 -1.8758 -0.6244 -0.8581
13268TIP3    H261220   6.541   6.377  16.691 -0.0462 -1.3544  0.3399
13269TIP3   OH261221   5.276   3.261   3.017 -0.0450  0.1034  0.2676
13269TIP3    H161222   5.365   3.295   3.020 -0.6220  1.7063  0.3236
13269TIP3    H261223   5.241   3.295   2.935 -0.3905 -1.0885 -0.0852
13270TIP3   OH261224   4.372   5.716  13.882 -0.0371 -0.1140  0.1524
13270TIP3    H161225   4.366   5.776  13.808 -1.9362 -1.7083 -1.0768
13270TIP3    H261226   4.425   5.644  13.851  1.2797  0.3454  1.2400
13271TIP3   OH261227   5.051   1.595   2.056  0.1708  0.4258  0.5026
13271TIP3    H161228   4.981   1.614   2.119 -0.4099 -0.5840  0.1797
13271TIP3    H261229   5.131   1.596   2.109 -0.2000  0.5514  1.0728
13272TIP3   OH261230   6.729   4.549   1.342 -0.0943 -0.5880 -0.0341
13272TIP3    H161231   6.708   4.523   1.432 -0.1836  0.4129  0.2467
13272TIP3    H261232   6.664   4.505   1.288 -0.5525 -0.5450  0.4773
13273TIP3   OH261233   3.784   3.535   2.007  0.3863  0.0898 -0.3248
13273TIP3    H161234   3.774   3.441   1.995  2.7589 -0.0776 -1.7147
13273TIP3    H261235   3.702   3.564   2.046 -0.9691 -2.3178 -1.2173
13274TIP3   OH261236   2.884   6.745   5.888  0.4695 -0.3204  0.2715
13274TIP3    H161237   2.884   6.668   5.945 -1.2752  0.6535  1.6895
13274TIP3    H261238   2.892   6.819   5.947  2.5689  0.6367 -1.1011
13275TIP3   OH261239   3.863   2.467   4.299  0.8173 -0.4060  0.0287
13275TIP3    H161240   3.852   2.444   4.391  2.8057 -1.6130  0.0333
13275TIP3    H261241   3.816   2.398   4.251  1.4688 -0.9384  0.1374
13276TIP3   OH261242   5.350   3.729   3.104  0.3429 -0.3156  0.2665
13276TIP3    H161243   5.396   3.647   3.124  1.0561  0.1503  0.5908
13276TIP3    H261244   5.288   3.740   3.176  0.1839 -0.6128  0.1762
13277TIP3   OH261245   5.029   2.217  15.185 -0.2955 -0.5436  0.0266
13277TIP3    H161246   5.095   2.167  15.233 -0.5617 -1.6636 -0.7325
13277TIP3    H261247   4.990   2.274  15.251  1.1587 -0.1117  0.5699
13278TIP3   OH261248   4.822   2.292   6.185  0.2431 -0.1786 -0.2435
13278TIP3    H161249   4.879   2.350   6.134  0.3956  0.6105  0.7844
13278TIP3    H261250   4.740   2.289   6.136  0.3141  0.7316 -0.4315
13279TIP3   OH261251   0.325   2.970   0.192  0.5073  0.0344  0.3232
13279TIP3    H161252   0.366   3.054   0.170  0.4566  0.1663  0.7204
13279TIP3    H261253   0.293   2.982   0.282  1.5058 -0.7900  0.8067
13280TIP3   OH261254   0.791   3.384   5.384  0.2266 -0.0511 -0.2404
13280TIP3    H161255   0.783   3.290   5.398  2.2190 -0.4042 -1.1311
13280TIP3    H261256   0.793   3.394   5.289 -1.2945  1.0639 -0.2004
13281TIP3   OH261257   6.154   1.503   5.743 -0.0374  0.3192  0.3697
13281TIP3    H161258   6.109   1.432   5.787 -1.0257 -0.2790 -1.5325
13281TIP3    H261259   6.093   1.577   5.746 -0.1732  0.2301 -0.1132
13282TIP3   OH261260   0.018   3.907  14.337 -0.3182 -0.8562  0.0836
13282TIP3    H161261   0.007   3.977  14.402 -0.9342 -0.0518 -0.8446
13282TIP3    H261262  -0.031   3.833  14.372 -0.2350 -0.5948  0.7627
13283TIP3   OH261263   4.390   3.773   3.499 -0.3017  0.6323 -0.7106
13283TIP3    H161264   4.402   3.678   3.500 -0.0404  0.6207 -2.3929
13283TIP3    H261265   4.316   3.788   3.558 -0.2138 -0.5870 -0.2546
13284TIP3   OH261266   5.114   5.267   2.068  0.5227 -0.4869 -0.2061
13284TIP3    H161267   5.103   5.323   1.991  0.5846 -2.0141 -1.3738
13284TIP3    H261268   5.051   5.301   2.132 -0.3796  0.1008 -1.3633
13285TIP3   OH261269   1.736   5.599   2.141  0.2440  0.3573  0.2039
13285TIP3    H161270   1.807   5.574   2.199  0.4513  0.5731  0.0448
13285TIP3    H261271   1.746   5.693   2.130 -0.0018  0.3725  0.0935
13286TIP3   OH261272   3.940   6.707   4.080 -0.3450  0.0621  0.3572
13286TIP3    H161273   3.962   6.709   4.173 -0.4214  2.4399  0.3701
13286TIP3    H261274   4.009   6.759   4.038 -1.6045  1.0184 -0.5887
13287TIP3   OH261275   4.410   0.635  16.822  0.3649  0.2534  0.2860
13287TIP3    H161276   4.445   0.658  16.736 -0.2667 -1.1493 -0.3862
13287TIP3    H261277   4.320   0.669  16.821  0.6188  0.9598  0.7300
13288TIP3   OH261278   1.750   3.063  14.516  0.2322  0.5796 -0.2214
13288TIP3    H161279   1.795   2.995  14.566  0.0121  0.7132  0.1586
13288TIP3    H261280   1.819   3.104  14.463  0.8751  1.8615  1.5264
13289TIP3   OH261281   0.602   1.650   0.851 -0.0934 -0.0540  0.1057
13289TIP3    H161282   0.631   1.571   0.804  0.4227  0.3168 -0.2071
13289TIP3    H261283   0.576   1.618   0.937 -0.8586 -0.7199 -0.3507
13290TIP3   OH261284   1.658   1.019   1.941  0.8786  0.3161  0.1858
13290TIP3    H161285   1.620   0.971   2.016  1.1072 -0.2103 -0.0280
13290TIP3    H261286   1.582   1.051   1.893  0.7213  0.2442  0.3822
13291TIP3   OH261287   3.152   0.070  14.661 -0.0815 -0.2492  0.0471
13291TIP3    H161288   3.217   0.000  14.649 -0.2365 -0.5837  1.0577
13291TIP3    H261289   3.068   0.026  14.648 -0.1357  0.0172 -0.5095
13292TIP3   OH261290   0.890   3.692  10.605 -0.1913 -0.2757 -0.1431
13292TIP3    H161291   0.861   3.773  10.646  1.4852 -0.2500  1.0930
13292TIP3    H261292   0.833   3.625  10.642 -1.9977  0.3442 -1.6325
13293TIP3   OH261293   1.263   6.180   5.823  0.4678  0.0385 -0.1181
13293TIP3    H161294   1.239   6.263   5.784 -1.3094 -1.0601 -1.5260
13293TIP3    H261295   1.189   6.158   5.881 -0.1838 -1.5452 -1.4594
13294TIP3   OH261296   1.293   1.719   2.554  0.2383  1.1333 -0.1936
13294TIP3    H161297   1.243   1.799   2.535 -0.4648  0.6798 -0.2562
13294TIP3    H261298   1.251   1.651   2.501 -0.0459  0.4215  0.9226
13295TIP3   OH261299   4.107   0.077   1.530  0.2713  0.0583 -0.2716
13295TIP3    H161300   4.120   0.037   1.444  2.7052  0.6348 -0.2319
13295TIP3    H261301   4.133   0.010   1.592 -0.4638  0.0121 -0.0003
13296TIP3   OH261302   2.485   2.426  15.659 -0.3001 -0.4928 -0.2223
13296TIP3    H161303   2.471   2.398  15.749  0.4328  0.1013  0.0856
13296TIP3    H261304   2.397   2.447  15.626 -0.4620  0.3802  0.7179
13297TIP3   OH261305   4.381   1.777  15.504 -0.3584 -0.8639  0.5646
13297TIP3    H161306   4.356   1.855  15.555 -0.3064  0.2080 -0.9866
13297TIP3    H261307   4.422   1.719  15.568 -0.2123  0.4731  1.7287
13298TIP3   OH261308   2.920   1.018  14.045  0.8068  0.6897  0.8372
13298TIP3    H161309   2.973   0.989  13.971  0.8073  1.6075  0.4680
13298TIP3    H261310   2.876   1.097  14.013 -2.0521 -0.8819  0.5504
13299TIP3   OH261311   0.566   1.195   2.131 -0.2837  0.0748  0.8065
13299TIP3    H161312   0.602   1.283   2.134 -0.8015  0.2876  0.8248
13299TIP3    H261313   0.577   1.160   2.219 -0.1543  0.1505  0.8198
13300TIP3   OH261314   2.780   4.796   3.714  0.3426 -0.5651 -0.3496
13300TIP3    H161315   2.823   4.847   3.645 -0.6557 -1.1279 -1.4100
13300TIP3    H261316   2.770   4.709   3.678 -1.9970 -0.3846 -0.3069
13301TIP3   OH261317   0.947   1.886  14.178  0.4475  0.0495 -0.0975
13301TIP3    H161318   0.879   1.876  14.245  0.0865 -0.7542 -0.5753
13301TIP3    H261319   0.904   1.934  14.107  0.6346  0.3024 -0.0427
13302TIP3   OH261320   4.335   0.115  16.958  0.3954  0.1011 -0.5176
13302TIP3    H161321   4.368   0.130  17.047  1.2991  1.3982 -1.0426
13302TIP3    H261322   4.350   0.198  16.913  0.4713 -0.7175 -2.0505
13303TIP3   OH261323   2.444   3.145  12.862  0.2535 -0.9169  0.1244
13303TIP3    H161324   2.458   3.230  12.819 -0.3212 -1.1875 -0.6307
13303TIP3    H261325   2.398   3.093  12.796 -1.7678 -0.9616  1.4785
13304TIP3   OH261326   5.385   2.434   0.206 -0.3176 -0.0088  0.2855
13304TIP3    H161327   5.427   2.502   0.153 -1.5962  0.0144 -0.7340
13304TIP3    H261328   5.404   2.352   0.160  0.2446 -0.2338  0.8921
13305TIP3   OH261329   4.073   5.683   0.751  0.1462  0.0442  0.2240
13305TIP3    H161330   4.097   5.612   0.810 -0.3819 -0.9156 -0.6972
13305TIP3    H261331   4.156   5.726   0.730  0.5178 -0.5499  0.4640
13306TIP3   OH261332   1.616   4.012  16.292 -0.0906 -0.5132  0.8967
13306TIP3    H161333   1.572   3.939  16.247  1.0941 -0.3100 -0.6628
13306TIP3    H261334   1.708   3.985  16.296  0.1519  0.3724  1.4220
13307TIP3   OH261335   2.968   6.153   1.409 -0.3527 -0.1164 -0.0751
13307TIP3    H161336   2.978   6.122   1.499  1.1495  0.4192 -0.0319
13307TIP3    H261337   3.023   6.094   1.358 -1.5462 -0.6936 -0.7279
13308TIP3   OH261338   4.970   5.453   2.584 -0.5388 -0.2066  0.4553
13308TIP3    H161339   4.986   5.359   2.574 -4.8099 -1.1138  0.3755
13308TIP3    H261340   5.008   5.492   2.505  1.6373 -1.7293  0.6612
13309TIP3   OH261341   5.785   5.329  13.670 -0.0826 -0.8123 -0.2420
13309TIP3    H161342   5.842   5.253  13.663 -0.5654 -1.0755 -1.7553
13309TIP3    H261343   5.794   5.374  13.586 -0.5004  0.3079  0.2851
13310TIP3   OH261344   3.806   3.866   5.968 -0.1470 -0.0627  0.5767
13310TIP3    H161345   3.740   3.798   5.956 -0.6563  0.5973 -0.6188
13310TIP3    H261346   3.860   3.861   5.889 -1.4070  2.1633 -0.5323
13311TIP3   OH261347   1.906   4.660   3.554  0.4536 -0.1358  0.3797
13311TIP3    H161348   1.882   4.691   3.467  0.2319 -2.7434 -0.5782
13311TIP3    H261349   1.832   4.607   3.582  0.6437  0.4331  2.0764
13312TIP3   OH261350   2.385   6.611  13.831 -0.3572 -0.0339  0.2398
13312TIP3    H161351   2.474   6.607  13.866  0.2285  2.3250 -0.7478
13312TIP3    H261352   2.331   6.571  13.899  1.4973 -2.3893  0.4631
13313TIP3   OH261353   6.736   0.463  13.463 -0.1099  0.8993 -0.1001
13313TIP3    H161354   6.709   0.399  13.398 -0.3469 -0.8392  1.6308
13313TIP3    H261355   6.829   0.445  13.477 -0.1139  1.1077  0.2059
13314TIP3   OH261356   0.828   3.445  16.338 -0.2871  0.2927 -0.4492
13314TIP3    H161357   0.828   3.354  16.309  0.1667  0.6767 -1.7202
13314TIP3    H261358   0.845   3.440  16.432 -2.4237 -1.0327 -0.0770
13315TIP3   OH261359   6.675   3.433  13.928  0.2772  0.2208 -0.2591
13315TIP3    H161360   6.594   3.477  13.902 -1.1847 -2.3529 -0.3951
13315TIP3    H261361   6.651   3.341  13.934  3.2055 -0.6288 -0.2039
13316TIP3   OH261362   2.106   3.819   4.375  0.5629  0.0385 -0.5514
13316TIP3    H161363   2.046   3.893   4.386  0.2096 -0.6636  3.8381
13316TIP3    H261364   2.184   3.842   4.425  1.5607 -1.5170 -1.2782
13317TIP3   OH261365   1.222   2.371   2.118  0.2352 -0.2418 -0.7301
13317TIP3    H161366   1.242   2.371   2.025 -1.5145  0.5602 -1.1534
13317TIP3    H261367   1.191   2.460   2.136 -2.3716 -1.1956 -0.0990
13318TIP3   OH261368   5.031   5.696  12.976  0.2029  0.2020 -0.4544
13318TIP3    H161369   5.031   5.601  12.967  0.8414  0.1552 -0.0241
13318TIP3    H261370   5.074   5.728  12.897  2.1858 -0.0058  0.4809
13319TIP3   OH261371   5.751   2.926   3.521 -0.0155  0.0868 -0.3506
13319TIP3    H161372   5.831   2.967   3.553  1.0881 -0.7473 -1.8976
13319TIP3    H261373   5.762   2.923   3.426 -1.5228 -0.7946 -0.5308
13320TIP3   OH261374   2.185   1.588   3.566 -0.4935 -0.3754 -0.7374
13320TIP3    H161375   2.151   1.500   3.577 -1.2459 -0.1753 -1.3930
13320TIP3    H261376   2.120   1.633   3.512 -0.6691  0.9009  0.4691
13321TIP3   OH261377   2.975   0.760   4.434  0.0807  0.5384 -0.4176
13321TIP3    H161378   3.017   0.780   4.350  0.4641 -0.0891 -0.3829
13321TIP3    H261379   2.990   0.839   4.487 -1.2136  1.4209 -1.3204
13322TIP3   OH261380   5.802   6.656   3.778 -0.3432 -0.4952  0.2844
13322TIP3    H161381   5.800   6.751   3.775 -1.5996 -0.5263 -0.2825
13322TIP3    H261382   5.742   6.628   3.710  1.3375 -1.7315 -0.7818
13323TIP3   OH261383   0.461   6.081  16.208  0.4368 -0.9218 -0.4008
13323TIP3    H161384   0.456   6.148  16.277  0.7815 -2.8988  1.6469
13323TIP3    H261385   0.379   6.031  16.218  1.2287 -2.2374 -0.3091
13324TIP3   OH261386   3.986   2.142  14.871  0.5053  0.4559 -0.2230
13324TIP3    H161387   3.984   2.221  14.926 -1.9306  0.8195 -0.7314
13324TIP3    H261388   3.914   2.088  14.904  0.9402 -0.7045 -1.1149
13325TIP3   OH261389   1.984   6.370   5.823 -0.4303 -0.0014 -0.2599
13325TIP3    H161390   2.074   6.393   5.802  0.2299 -0.2788  1.9794
13325TIP3    H261391   1.985   6.275   5.832 -0.6339  0.1033  0.9909
13326TIP3   OH261392   4.888   1.315  15.015 -0.9022 -0.2668  0.7022
13326TIP3    H161393   4.801   1.338  14.983 -0.4939  0.5182  0.1235
13326TIP3    H261394   4.917   1.246  14.955  0.2628  1.8717 -1.3889
13327TIP3   OH261395   5.482   6.659  10.536 -0.5852 -0.2581  0.5711
13327TIP3    H161396   5.419   6.610  10.590  1.0756 -0.6002  2.2875
13327TIP3    H261397   5.476   6.748  10.569 -0.8581 -0.0771  0.0482
13328TIP3   OH261398   3.124   3.552   3.367  0.1384 -0.1494  0.5765
13328TIP3    H161399   3.194   3.570   3.430  0.4900  1.1036 -0.1382
13328TIP3    H261400   3.147   3.467   3.330  0.5422 -0.3713  1.3157
13329TIP3   OH261401   4.166   5.913  13.048  0.0370 -0.3717  0.3560
13329TIP3    H161402   4.192   5.826  13.016 -1.4241 -0.4453 -0.7236
13329TIP3    H261403   4.099   5.894  13.114 -1.3097 -0.0669 -0.8758
13330TIP3   OH261404   1.729   2.927   3.640 -0.4379 -0.6795 -0.3494
13330TIP3    H161405   1.796   2.943   3.573 -0.1319  0.1419  0.1348
13330TIP3    H261406   1.727   2.832   3.650 -1.9084 -1.0267 -2.9436
13331TIP3   OH261407   1.180   3.755  15.529  0.2341  0.2237 -0.2252
13331TIP3    H161408   1.250   3.732  15.468  1.2449 -0.1074  1.0005
13331TIP3    H261409   1.169   3.677  15.583 -0.0790  0.7773  0.5221
13332TIP3   OH261410   6.149   0.538  11.082 -0.2580  0.2932 -0.4666
13332TIP3    H161411   6.084   0.503  11.021 -0.6889  0.3342 -0.0332
13332TIP3    H261412   6.099   0.593  11.142  0.5316  2.6035 -1.7947
13333TIP3   OH261413   4.379   5.560   1.080 -0.9310 -0.6726  0.2639
13333TIP3    H161414   4.468   5.596   1.081 -0.3164 -2.1145  1.5499
13333TIP3    H261415   4.343   5.589   0.996  1.2836 -1.2899 -0.9881
13334TIP3   OH261416   5.705   1.316   0.827  0.1454 -0.2822  0.1454
13334TIP3    H161417   5.611   1.314   0.845  0.2594 -2.4247  0.7917
13334TIP3    H261418   5.724   1.229   0.792  2.0624 -0.2323  0.9571
13335TIP3   OH261419   6.263   1.291  15.002  0.4033  0.4962  0.2813
13335TIP3    H161420   6.257   1.362  15.067 -2.7800  1.3973 -0.7904
13335TIP3    H261421   6.316   1.328  14.932 -0.4069  1.5178  0.1742
13336TIP3   OH261422   3.215   1.945  16.746  0.4998 -0.3495  0.0841
13336TIP3    H161423   3.185   2.030  16.712  1.1138 -0.3040 -0.3501
13336TIP3    H261424   3.290   1.922  16.692  2.3082  0.3080  2.1332
13337TIP3   OH261425   0.681   4.542  13.831 -0.4703  0.4539 -0.2954
13337TIP3    H161426   0.657   4.469  13.774 -0.6456  1.9287 -2.2060
13337TIP3    H261427   0.661   4.620  13.779 -0.2352  1.8726  1.6517
13338TIP3   OH261428   3.093   0.955  13.857  0.2729  0.2854 -0.9142
13338TIP3    H161429   3.042   0.983  13.782 -0.1986  1.0927 -0.3044
13338TIP3    H261430   3.184   0.956  13.826  0.0115 -0.1951 -1.7082
13339TIP3   OH261431   3.503   2.224   1.459  0.0031 -0.0659  0.2188
13339TIP3    H161432   3.462   2.232   1.545 -0.9686  0.4681 -0.2627
13339TIP3    H261433   3.538   2.312   1.441 -3.3203  1.0970 -1.5627
13340TIP3   OH261434   0.701   3.214   3.312 -0.4663 -0.3691  0.2251
13340TIP3    H161435   0.664   3.191   3.227 -0.7358  0.5125  0.0988
13340TIP3    H261436   0.676   3.305   3.326 -2.2406 -1.0901  2.2139
13341TIP3   OH261437   6.613   6.564  17.123 -0.0543 -0.7328  0.1134
13341TIP3    H161438   6.621   6.488  17.065 -0.3001 -0.8978  0.2940
13341TIP3    H261439   6.602   6.639  17.064  1.8048 -0.5959 -0.1318
13342TIP3   OH261440   3.568   3.704   6.515  0.4661 -0.1013  0.1919
13342TIP3    H161441   3.605   3.650   6.585  0.7782  1.0579  0.9583
13342TIP3    H261442   3.478   3.673   6.505  1.1698 -1.9774 -0.6773
13343TIP3   OH261443   4.164   3.156  12.188  0.0700  0.8313  0.4848
13343TIP3    H161444   4.183   3.119  12.274  0.5736 -0.9294 -0.3511
13343TIP3    H261445   4.075   3.125  12.168  0.6990 -0.4599 -0.4513
13344TIP3   OH261446   3.737   3.261  14.324  0.6443  0.2422  0.0634
13344TIP3    H161447   3.758   3.251  14.231 -0.0333  3.7344 -0.6094
13344TIP3    H261448   3.684   3.341  14.329  0.8512  0.3425  3.4863
13345TIP3   OH261449   1.661   5.595  12.589 -0.4835  0.5560 -0.4342
13345TIP3    H161450   1.717   5.534  12.638 -0.3115 -0.4759 -1.8473
13345TIP3    H261451   1.650   5.553  12.503  0.0488  2.7739 -1.6410
13346TIP3   OH261452   1.973   2.276  15.171 -0.0599 -0.3817 -0.6347
13346TIP3    H161453   2.003   2.367  15.172  1.1022 -0.7425 -0.8063
13346TIP3    H261454   1.963   2.252  15.263 -3.9459  0.9843 -0.5208
13347TIP3   OH261455   4.748   1.470  13.512 -0.1666 -0.1907  0.5258
13347TIP3    H161456   4.653   1.460  13.504 -0.0896  0.4428 -1.9340
13347TIP3    H261457   4.782   1.381  13.510 -0.5148 -0.4271 -3.6648
13348TIP3   OH261458   4.553   5.567  12.614 -0.4284  0.2178  0.3210
13348TIP3    H161459   4.513   5.586  12.698 -0.1860  4.1963 -0.2293
13348TIP3    H261460   4.647   5.572  12.630 -0.3071 -1.3027  0.1912
13349TIP3   OH261461   2.380   1.737   4.446 -0.6636  0.1277 -0.5030
13349TIP3    H161462   2.408   1.650   4.475 -0.9579  0.2338  0.1304
13349TIP3    H261463   2.289   1.725   4.419 -1.3691  0.6083  1.4744
13350TIP3   OH261464   2.629   1.203   0.901 -0.2463  0.4661  0.2628
13350TIP3    H161465   2.674   1.160   0.973  0.6388  0.3350 -0.3495
13350TIP3    H261466   2.607   1.131   0.841  0.8098  0.7785 -0.5336
13351TIP3   OH261467   5.409   2.128  12.665 -0.0631 -0.5104  0.0706
13351TIP3    H161468   5.334   2.180  12.691 -0.0688 -0.6081  0.2494
13351TIP3    H261469   5.433   2.162  12.579  0.7188  0.6504  0.7185
13352TIP3   OH261470   2.875   3.557   5.400 -0.9540  0.1908  0.0466
13352TIP3    H161471   2.784   3.573   5.375 -1.1676 -0.7077  0.2342
13352TIP3    H261472   2.927   3.595   5.329 -1.4998 -0.3104 -0.6206
13353TIP3   OH261473   1.988   2.561   2.338 -0.8047  0.7161  0.6000
13353TIP3    H161474   2.029   2.505   2.404 -0.3448 -0.1210 -0.3742
13353TIP3    H261475   1.894   2.546   2.348 -0.6528 -2.1392 -1.2123
13354TIP3   OH261476   0.181   6.117  14.675  0.4305 -0.6001  0.0618
13354TIP3    H161477   0.239   6.074  14.738 -0.7037 -1.9531  0.2109
13354TIP3    H261478   0.158   6.048  14.613 -1.6673 -0.3238  0.4638
13355TIP3   OH261479   6.082   1.806  11.162  0.1058 -0.0943 -0.4841
13355TIP3    H161480   6.018   1.736  11.154  0.4862 -0.6048  0.6774
13355TIP3    H261481   6.167   1.762  11.159  0.3736  0.4371 -0.7880
13356TIP3   OH261482   1.776   0.476  12.678  0.1781 -0.2353  0.1783
13356TIP3    H161483   1.837   0.471  12.751  0.2112  0.4909  0.2151
13356TIP3    H261484   1.829   0.505  12.604 -0.3581  2.0252  0.5837
13357TIP3   OH261485   4.603   6.475  16.384 -0.2314 -0.2848  0.3164
13357TIP3    H161486   4.576   6.455  16.295 -1.1110  1.7809  0.0680
13357TIP3    H261487   4.630   6.390  16.421  1.8628 -0.9590 -2.4189
13358TIP3   OH261488   6.595   2.173  16.578 -0.3054 -0.4828  0.2258
13358TIP3    H161489   6.551   2.197  16.660  0.6356 -0.2070  0.6639
13358TIP3    H261490   6.654   2.246  16.560  1.7263 -1.8502  0.9357
13359TIP3   OH261491   1.030   0.716  12.585 -0.5674 -0.0399  0.1585
13359TIP3    H161492   0.959   0.659  12.556 -0.1354  0.0956 -1.2669
13359TIP3    H261493   1.106   0.658  12.592 -0.8695 -0.2547  2.0360
13360TIP3   OH261494   6.498   0.566  15.719 -0.6295 -0.2717 -0.1153
13360TIP3    H161495   6.508   0.483  15.673  3.6420  0.2668 -0.5449
13360TIP3    H261496   6.502   0.632  15.649 -0.5243  0.3930  0.5111
13361TIP3   OH261497   4.937   4.441   4.797 -0.2734  0.1767 -0.2781
13361TIP3    H161498   4.987   4.449   4.715  0.7404 -1.4308  0.1390
13361TIP3    H261499   4.957   4.521   4.845  0.9439  0.1259 -0.6559
13362TIP3   OH261500   1.179   5.967  12.923 -0.4679 -0.0755 -0.0217
13362TIP3    H161501   1.241   5.955  12.995  0.0430  0.1517 -0.4151
13362TIP3    H261502   1.167   5.879  12.887 -1.6158 -0.3734  1.0557
13363TIP3   OH261503   2.759   0.967   5.896 -0.1778 -0.1160 -0.2910
13363TIP3    H161504   2.690   1.030   5.879  0.7179  0.9835  0.0235
13363TIP3    H261505   2.745   0.898   5.832 -1.3432  0.2562 -0.4617
13364TIP3   OH261506   3.720   0.787  11.986  0.0263  0.0006 -0.1785
13364TIP3    H161507   3.791   0.821  12.041  0.0703  0.8403 -0.7282
13364TIP3    H261508   3.759   0.713  11.940  0.9895  1.2410 -1.4557
13365TIP3   OH261509   5.692   6.527  15.115  0.0143 -0.0148 -0.4875
13365TIP3    H161510   5.754   6.580  15.164  1.3676 -2.1814  0.2816
13365TIP3    H261511   5.610   6.577  15.118  1.2916  2.1629 -0.1759
13366TIP3   OH261512   1.071   4.450   1.373 -0.3741 -0.0348 -0.1916
13366TIP3    H161513   1.095   4.542   1.365  1.0871 -0.2853  0.8559
13366TIP3    H261514   1.125   4.417   1.445 -1.1747 -1.6145 -0.2604
13367TIP3   OH261515   6.436   4.458   4.133  0.5720 -0.2287 -0.2256
13367TIP3    H161516   6.365   4.422   4.080  1.1067  0.9530 -1.8182
13367TIP3    H261517   6.473   4.528   4.079  1.4159  0.7628  1.5546
13368TIP3   OH261518   5.597   6.561  16.602 -0.5876 -0.0981  0.1427
13368TIP3    H161519   5.651   6.548  16.680  2.1314 -0.6541 -1.6941
13368TIP3    H261520   5.516   6.515  16.620 -0.2688  0.2484  2.8156
13369TIP3   OH261521   3.922   0.731   1.041 -0.1979 -0.3155  0.5079
13369TIP3    H161522   4.005   0.695   1.009 -0.1969 -0.7441  0.9842
13369TIP3    H261523   3.940   0.824   1.056  0.1628 -0.3849  0.4993
13370TIP3   OH261524   4.571   6.223  14.941 -0.1624  0.5086  0.2019
13370TIP3    H161525   4.529   6.142  14.971 -2.3929  1.3834 -0.3607
13370TIP3    H261526   4.626   6.249  15.014  1.0941 -1.7855  0.1784
13371TIP3   OH261527   5.128   0.868  11.803  0.4517 -0.1645 -0.2890
13371TIP3    H161528   5.223   0.863  11.803  0.5463  0.3809 -2.6585
13371TIP3    H261529   5.107   0.928  11.731 -1.6612  0.8061  1.0445
13372TIP3   OH261530   4.165   5.123  14.311 -0.1995 -0.9333  0.0783
13372TIP3    H161531   4.139   5.200  14.362 -0.6903 -0.7860 -0.3901
13372TIP3    H261532   4.084   5.074  14.298 -0.0611 -1.0259 -0.4659
13373TIP3   OH261533   5.972   6.416  12.189 -0.1245  0.3486  0.2924
13373TIP3    H161534   5.911   6.341  12.191  1.2019 -0.7957 -0.4107
13373TIP3    H261535   5.994   6.431  12.280 -1.7711  1.0642  0.6030
13374TIP3   OH261536   0.004   4.695  12.784 -0.9148  0.3020  0.1823
13374TIP3    H161537   0.077   4.677  12.724 -1.6647  0.7620 -0.9003
13374TIP3    H261538  -0.006   4.790  12.781 -0.6498  0.3835  1.4435
13375TIP3   OH261539   2.946   5.302   0.064  0.4778  0.1344  0.1206
13375TIP3    H161540   2.893   5.345  -0.003 -1.8365 -0.5156  1.4296
13375TIP3    H261541   2.963   5.370   0.129 -1.6038 -0.3675  1.2781
13376TIP3   OH261542   1.338   3.956   1.127 -0.2714 -0.4179  0.0656
13376TIP3    H161543   1.281   3.929   1.199 -0.8987 -0.4119 -0.4138
13376TIP3    H261544   1.324   3.890   1.059  2.1942 -1.8340  0.8322
13377TIP3   OH261545   2.754   0.133   1.636 -0.2562  0.1470  0.2355
13377TIP3    H161546   2.790   0.181   1.711  0.4247  0.2627 -0.1534
13377TIP3    H261547   2.712   0.056   1.675  0.2871  0.0855  0.7243
13378TIP3   OH261548   2.643   5.665  16.899  0.1372 -0.3944 -0.0667
13378TIP3    H161549   2.560   5.657  16.851 -1.2255 -2.0330  2.3206
13378TIP3    H261550   2.617   5.694  16.987  2.1093 -0.7925  0.6941
13379TIP3   OH261551   4.795   6.662   0.483  0.5063 -0.0762 -0.2782
13379TIP3    H161552   4.722   6.687   0.426  0.8950 -0.2137 -0.8482
13379TIP3    H261553   4.783   6.713   0.563  1.1435  1.7545 -1.3148
13380TIP3   OH261554   0.490   4.420   4.661 -0.1646 -0.3999  0.0701
13380TIP3    H161555   0.450   4.348   4.611  1.2526 -1.5193  0.4929
13380TIP3    H261556   0.564   4.448   4.607 -1.1159  1.2971 -0.4475
13381TIP3   OH261557   1.073   1.035  11.345  0.9770  0.3591  0.4365
13381TIP3    H161558   1.145   1.055  11.404  1.1920  2.5325 -0.4674
13381TIP3    H261559   0.999   1.085  11.380  0.9128  1.0774 -0.6915
13382TIP3   OH261560   2.749   6.387  11.597 -0.1434  0.5197  0.4242
13382TIP3    H161561   2.755   6.358  11.506 -1.5781 -0.9750  0.7559
13382TIP3    H261562   2.710   6.474  11.593 -0.3668  0.3871 -0.3763
13383TIP3   OH261563   1.745   4.229  14.251 -0.0916  0.5171 -0.2539
13383TIP3    H161564   1.728   4.323  14.242 -0.1180  0.4697 -0.7764
13383TIP3    H261565   1.819   4.223  14.311 -0.7543  0.8191  0.6162
13384TIP3   OH261566   2.328   2.674  11.109 -0.1593 -0.0118  0.5141
13384TIP3    H161567   2.418   2.706  11.109  0.2033 -0.9723 -0.5121
13384TIP3    H261568   2.275   2.752  11.093  0.4879  0.5629  1.1303
13385TIP3   OH261569   4.460   4.747  15.252  0.0870  0.0144  0.2370
13385TIP3    H161570   4.510   4.726  15.331  1.3280  0.8003 -0.3156
13385TIP3    H261571   4.386   4.799  15.284  0.0987 -0.3932  0.9625
13386TIP3   OH261572   0.764   2.145  15.819 -0.2020  0.0633 -0.6397
13386TIP3    H161573   0.679   2.110  15.793  1.0697 -3.0834 -1.0770
13386TIP3    H261574   0.809   2.162  15.736  0.3912 -0.6246 -0.4766
13387TIP3   OH261575   4.206   2.546  16.332 -0.0853 -0.0304  0.5293
13387TIP3    H161576   4.172   2.457  16.341 -0.1385  0.0787  1.4938
13387TIP3    H261577   4.144   2.589  16.274  0.7117 -1.0047 -1.1295
13388TIP3   OH261578   4.832   1.602   3.424  0.1693 -0.0908 -0.1587
13388TIP3    H161579   4.896   1.543   3.385  0.5491  0.7540 -0.8363
13388TIP3    H261580   4.883   1.656   3.485 -0.2983 -0.9203  0.9988
13389TIP3   OH261581   6.103   4.195  13.793 -0.4668  0.0364  0.2472
13389TIP3    H161582   6.066   4.277  13.761 -2.2698 -1.3419 -1.4720
13389TIP3    H261583   6.120   4.143  13.713  0.0365 -1.4939  1.2942
13390TIP3   OH261584   2.338   3.693  11.453  0.4464  0.4141 -0.2935
13390TIP3    H161585   2.322   3.701  11.547 -0.7238 -0.6887 -0.3691
13390TIP3    H261586   2.408   3.755  11.435  0.7129  0.6133  1.3130
13391TIP3   OH261587   5.904   4.659   2.567 -0.0123  0.1248 -0.1782
13391TIP3    H161588   5.821   4.691   2.531  0.5164 -0.5010 -2.0844
13391TIP3    H261589   5.965   4.731   2.553 -0.1667  0.5018  1.0229
13392TIP3   OH261590   0.474   4.187  14.444  0.4710  0.6576  0.4508
13392TIP3    H161591   0.465   4.107  14.392 -0.6595  0.4664  0.9202
13392TIP3    H261592   0.538   4.239  14.396  0.4317 -0.0741 -0.4285
13393TIP3   OH261593   3.349   3.586   4.558 -0.0782 -0.0544  0.3149
13393TIP3    H161594   3.325   3.585   4.465  1.3936  1.3539 -0.1232
13393TIP3    H261595   3.303   3.511   4.595 -1.5018 -0.0726 -1.3408
13394TIP3   OH261596   3.708   1.125   2.316  0.4492  0.0734  0.6466
13394TIP3    H161597   3.701   1.220   2.318 -0.1582  0.0534 -0.0319
13394TIP3    H261598   3.631   1.094   2.364  0.9991 -0.0794  1.4544
13395TIP3   OH261599   3.725   5.962   6.533  0.2203 -0.5666  0.6209
13395TIP3    H161600   3.745   5.997   6.446  0.8952  2.5492  1.8632
13395TIP3    H261601   3.629   5.964   6.539  0.2098  0.1475  0.2777
13396TIP3   OH261602   2.552   0.638   5.277  0.0359  0.4964  0.6776
13396TIP3    H161603   2.533   0.564   5.218 -0.7350  1.6985 -0.6427
13396TIP3    H261604   2.589   0.597   5.355 -0.6749 -1.3134  0.1228
13397TIP3   OH261605   6.744   2.394  16.322 -0.0960  0.3008 -0.1099
13397TIP3    H161606   6.665   2.340  16.321 -0.0944  0.3068 -0.6702
13397TIP3    H261607   6.754   2.419  16.414 -0.4208 -0.1720  0.0617
13398TIP3   OH261608   4.583   3.910  12.372  0.4028 -0.5711  0.2483
13398TIP3    H161609   4.581   3.839  12.436  0.0254 -0.7868  0.0026
13398TIP3    H261610   4.518   3.884  12.306 -0.4870  0.4898  0.6772
13399TIP3   OH261611   6.194   6.215   0.268 -1.0749  0.1397 -0.1406
13399TIP3    H161612   6.111   6.243   0.229 -0.4269  0.6136 -1.2441
13399TIP3    H261613   6.220   6.288   0.324 -0.5685  0.7552 -1.1479
13400TIP3   OH261614   0.527   5.727  12.950  0.1507 -0.2662  0.0571
13400TIP3    H161615   0.490   5.743  13.037  0.2739  0.9876 -0.1008
13400TIP3    H261616   0.510   5.807  12.901 -0.1096 -1.0364 -1.1613
13401TIP3   OH261617   0.149   4.504  14.328  0.0114  0.1198  0.1632
13401TIP3    H161618   0.176   4.436  14.389 -0.7633  0.7416  1.2356
13401TIP3    H261619   0.067   4.471  14.290 -1.4469  1.2171  2.1358
13402TIP3   OH261620   4.426   1.981  14.225 -0.2408 -1.1114  0.0812
13402TIP3    H161621   4.479   2.000  14.302  1.0774 -0.0460 -1.0326
13402TIP3    H261622   4.392   2.067  14.198 -0.6312 -1.4551 -0.5461
13403TIP3   OH261623   2.332   2.576  10.534 -0.6280 -0.5800  0.1339
13403TIP3    H161624   2.278   2.648  10.500  0.8840  0.2256 -0.6804
13403TIP3    H261625   2.318   2.578  10.628 -0.5115  0.9319  0.1513
13404TIP3   OH261626   4.462   4.314   4.423  0.0985 -0.0782  0.4064
13404TIP3    H161627   4.438   4.374   4.352  1.1622 -0.1018 -0.0053
13404TIP3    H261628   4.447   4.364   4.503  0.3136  0.4967  0.0936
13405TIP3   OH261629   6.729   2.065   4.537 -0.0063 -0.6754  0.0197
13405TIP3    H161630   6.732   1.979   4.578 -0.9920 -0.7321  0.0052
13405TIP3    H261631   6.762   2.051   4.449 -1.7089 -1.4097 -0.5547
13406TIP3   OH261632   3.611   5.544  16.360  0.4427  0.5050  0.7309
13406TIP3    H161633   3.548   5.612  16.384 -1.0363 -0.3612 -0.5337
13406TIP3    H261634   3.571   5.462  16.389  1.0574 -0.0530  0.0471
13407TIP3   OH261635   2.723   4.273   0.208  0.3031 -0.0372 -0.0335
13407TIP3    H161636   2.802   4.326   0.209 -0.7132  1.5693 -1.0586
13407TIP3    H261637   2.652   4.335   0.227 -0.6641 -1.6046  1.8813
13408TIP3   OH261638   0.755   1.205  10.498  0.5713 -0.7535  0.2666
13408TIP3    H161639   0.714   1.128  10.460  0.1016  0.1158 -1.0624
13408TIP3    H261640   0.847   1.181  10.510  0.3446 -1.6447  0.2649
13409TIP3   OH261641   0.535   0.538  12.362 -0.1092  0.2426 -0.6725
13409TIP3    H161642   0.545   0.444  12.376  0.7552  0.3216 -0.6869
13409TIP3    H261643   0.503   0.545  12.272 -0.6881 -0.0526 -0.4934
13410TIP3   OH261644   0.027   1.504  14.806  0.6207 -0.2674  0.3167
13410TIP3    H161645  -0.013   1.551  14.879  1.3039 -0.6614  0.9695
13410TIP3    H261646  -0.006   1.547  14.728 -3.3512 -2.3178  0.6381
13411TIP3   OH261647   0.570   3.860   4.384  0.0882 -0.0950  0.0160
13411TIP3    H161648   0.558   3.904   4.299 -0.9738 -2.3675 -1.1043
13411TIP3    H261649   0.659   3.824   4.379  0.0882 -0.0857 -0.0540
13412TIP3   OH261650   3.689   1.688  14.796  0.3082 -0.4828 -0.1181
13412TIP3    H161651   3.758   1.636  14.836 -1.5385 -1.6569  1.7458
13412TIP3    H261652   3.698   1.673  14.702  0.4619 -3.4517  0.2870
13413TIP3   OH261653   5.981   5.920  12.372 -0.2561  0.1260  0.2264
13413TIP3    H161654   6.016   6.008  12.384 -0.4956 -0.0323  2.5842
13413TIP3    H261655   5.886   5.931  12.376 -0.2942 -0.4539  3.2776
13414TIP3   OH261656   6.780   5.790  13.536 -0.2718 -0.1677 -0.0873
13414TIP3    H161657   6.856   5.843  13.558 -0.5986  0.5783 -0.7068
13414TIP3    H261658   6.720   5.850  13.492 -1.2292 -0.7393  0.3923
13415TIP3   OH261659   4.003   3.999   0.104 -0.2681  0.1785 -0.3290
13415TIP3    H161660   3.958   4.053   0.039 -2.2285 -1.7376 -0.6890
13415TIP3    H261661   3.937   3.982   0.171  0.8541 -0.2668  0.7059
13416TIP3   OH261662   1.957   0.959   2.666  0.2420 -0.0367 -0.0905
13416TIP3    H161663   1.905   0.973   2.746  1.5496  1.2988  0.5690
13416TIP3    H261664   2.039   0.922   2.698  0.1869 -0.9610 -0.9981
13417TIP3   OH261665   3.916   4.861  14.967 -0.0239  0.1751 -0.1250
13417TIP3    H161666   3.965   4.937  14.934  0.1036  0.4994  0.7737
13417TIP3    H261667   3.933   4.792  14.904 -0.6497  1.0645 -1.3132
13418TIP3   OH261668   5.873   1.815   6.082  0.1355 -0.8692 -0.4796
13418TIP3    H161669   5.833   1.875   6.145  1.6391 -0.5920  0.2612
13418TIP3    H261670   5.917   1.750   6.136 -0.0102 -1.6487 -1.2746
13419TIP3   OH261671   5.102   2.433   3.121 -0.1590  0.0195 -0.0759
13419TIP3    H161672   5.182   2.403   3.164 -0.4705  0.4633  0.8436
13419TIP3    H261673   5.033   2.379   3.160 -0.5059  0.7604  0.3637
13420TIP3   OH261674   3.867   6.793  13.788 -0.1228 -0.0678 -0.3410
13420TIP3    H161675   3.856   6.798  13.694  1.0311  0.8078 -0.4528
13420TIP3    H261676   3.780   6.812  13.824 -0.4340  0.1848 -1.2059
13421TIP3   OH261677   3.322   3.694  14.980  0.1765 -0.4497  0.0363
13421TIP3    H161678   3.306   3.600  14.992  0.1992 -0.4631 -0.0358
13421TIP3    H261679   3.309   3.709  14.887 -0.9638 -0.1593  0.2227
13422TIP3   OH261680   0.298   3.776  15.468 -0.1316  0.0323 -0.4173
13422TIP3    H161681   0.206   3.792  15.485 -0.2652 -1.1959  0.1512
13422TIP3    H261682   0.342   3.856  15.495 -0.6604 -0.6675  3.0620
13423TIP3   OH261683   2.172   6.522   0.483  0.3227  0.1075 -0.1477
13423TIP3    H161684   2.109   6.454   0.508 -1.0418  1.4332  0.1497
13423TIP3    H261685   2.244   6.474   0.442 -1.2260 -1.4079 -1.2417
13424TIP3   OH261686   2.063   5.307   1.130 -0.4059  0.2520  0.6348
13424TIP3    H161687   2.073   5.322   1.224 -1.0502  0.5083  0.6604
13424TIP3    H261688   2.035   5.215   1.124 -1.4896  0.5676  0.7601
13425TIP3   OH261689   4.216   1.133   3.033 -0.0766 -0.3374  0.6449
13425TIP3    H161690   4.155   1.198   2.998  0.4505  0.0128  0.3677
13425TIP3    H261691   4.191   1.126   3.126 -0.3598  0.0101  0.6005
13426TIP3   OH261692   1.752   4.553   5.843 -0.0872  0.2145 -0.9684
13426TIP3    H161693   1.822   4.492   5.822 -0.9427 -1.1248 -0.0753
13426TIP3    H261694   1.748   4.554   5.938 -1.6606 -0.2361 -0.9904
13427TIP3   OH261695   4.072   4.592  14.887 -0.1374  0.1313 -0.0542
13427TIP3    H161696   4.139   4.659  14.875  0.0095  0.1149  0.6211
13427TIP3    H261697   4.113   4.527  14.944 -0.4588 -0.2697 -0.2808
13428TIP3   OH261698   5.711   0.433  14.330 -0.1566  0.0411  0.4938
13428TIP3    H161699   5.745   0.363  14.385 -0.2640 -0.4457 -0.0455
13428TIP3    H261700   5.642   0.474  14.381  0.7948  0.6243  1.3510
13429TIP3   OH261701   4.879   3.213  10.525  0.3593  0.4416 -0.0076
13429TIP3    H161702   4.946   3.274  10.558 -1.0968  1.8275  0.5512
13429TIP3    H261703   4.816   3.206  10.598  0.3389 -1.5535 -0.1676
13430TIP3   OH261704   5.350   4.013  16.866 -0.8448 -0.2385 -0.3277
13430TIP3    H161705   5.416   4.075  16.836 -0.4238 -2.2001 -4.1666
13430TIP3    H261706   5.400   3.934  16.888 -1.6782 -1.3828 -2.2171
13431TIP3   OH261707   5.056   2.738   4.890  0.2072  0.3406  0.3340
13431TIP3    H161708   4.973   2.719   4.934  1.0050 -2.0912  0.8941
13431TIP3    H261709   5.030   2.770   4.803 -1.3371 -1.3979  0.0991
13432TIP3   OH261710   1.858   4.321   3.468  0.0041 -0.3972  0.2148
13432TIP3    H161711   1.822   4.249   3.521  2.8305 -0.8936  1.6523
13432TIP3    H261712   1.815   4.399   3.503  0.6651 -0.8840  2.2825
13433TIP3   OH261713   2.122   4.616  15.664 -0.4014 -0.1150  0.1872
13433TIP3    H161714   2.058   4.661  15.719  1.5295  1.3923  1.3134
13433TIP3    H261715   2.143   4.679  15.595 -1.4641 -1.3173 -1.3046
13434TIP3   OH261716   0.570   6.140   2.189  0.1935 -0.0577 -0.3210
13434TIP3    H161717   0.502   6.153   2.123 -0.9235  0.0453  0.8197
13434TIP3    H261718   0.650   6.128   2.138 -0.6016  0.1880 -1.6879
13435TIP3   OH261719   5.218   3.939  10.340 -0.2726 -0.3715  0.1988
13435TIP3    H161720   5.308   3.926  10.310  0.0377  1.5809  0.1695
13435TIP3    H261721   5.187   3.851  10.363  1.8453 -0.9978  0.8252
13436TIP3   OH261722   0.894   2.213  14.994 -0.1660 -0.8474  0.8005
13436TIP3    H161723   0.938   2.160  15.061  2.1362 -0.1897 -0.0829
13436TIP3    H261724   0.938   2.298  14.999  1.2433 -1.2379 -2.5363
13437TIP3   OH261725   0.985   2.248   2.208  0.2711  0.1136  0.0986
13437TIP3    H161726   1.068   2.278   2.174  0.1351  0.7829  0.3469
13437TIP3    H261727   0.928   2.325   2.205 -0.0851 -0.1169  0.7243
13438TIP3   OH261728   1.686   2.697  12.919  0.2127 -0.0979  0.2813
13438TIP3    H161729   1.672   2.703  12.825 -0.3212 -1.7932  0.2102
13438TIP3    H261730   1.627   2.763  12.957 -1.7146 -1.3003 -0.4599
13439TIP3   OH261731   6.496   2.485   5.718 -0.0312 -0.7316 -0.6036
13439TIP3    H161732   6.479   2.530   5.635 -0.4737 -0.2322 -0.2530
13439TIP3    H261733   6.592   2.485   5.726  0.0154 -0.8554 -1.1506
13440TIP3   OH261734   5.348   1.501   0.415  0.1853 -0.1294 -0.2405
13440TIP3    H161735   5.424   1.486   0.360 -0.3959  0.4994 -1.2331
13440TIP3    H261736   5.350   1.429   0.479  0.4167 -1.3513 -1.5853
13441TIP3   OH261737   2.971   5.859  15.440  0.2184 -0.2433  0.1058
13441TIP3    H161738   3.010   5.879  15.355 -1.0001 -0.3888 -0.5099
13441TIP3    H261739   2.999   5.769  15.459  0.4221 -0.2431 -0.1941
13442TIP3   OH261740   5.757   5.060   2.020  0.1164 -0.3753  0.0395
13442TIP3    H161741   5.685   5.003   1.991  0.7516 -0.0657 -2.2951
13442TIP3    H261742   5.778   5.113   1.944  1.1579  1.3367  1.4554
13443TIP3   OH261743   6.226   6.686  15.354 -0.0116 -0.0240  0.6106
13443TIP3    H161744   6.250   6.771  15.390  0.0446 -0.9814  3.0646
13443TIP3    H261745   6.150   6.659  15.405  0.7716 -1.9911  0.8163
13444TIP3   OH261746   5.918   5.880   5.760  0.8723 -0.3173  0.1772
13444TIP3    H161747   6.001   5.834   5.743  1.6192  1.4889 -1.6332
13444TIP3    H261748   5.857   5.845   5.695  0.3860 -1.2150  1.1088
13445TIP3   OH261749   2.585   0.524  11.709  0.4893  0.5442  0.9532
13445TIP3    H161750   2.559   0.435  11.732 -0.0427  0.7977  1.3337
13445TIP3    H261751   2.681   0.520  11.705  0.4362 -0.8410 -2.2492
13446TIP3   OH261752   1.942   1.735  14.988  0.2313 -0.7454  0.3782
13446TIP3    H161753   1.867   1.769  15.038  1.0845  0.5891  0.8072
13446TIP3    H261754   1.904   1.707  14.905 -0.8476 -0.7482  0.8509
13447TIP3   OH261755   0.206   2.868   1.636  0.4125  0.5161  0.3374
13447TIP3    H161756   0.122   2.828   1.613  0.3953  0.3875  0.6209
13447TIP3    H261757   0.205   2.874   1.731  0.6451  0.6923  0.3309
13448TIP3   OH261758   0.246   0.180   3.610 -0.1130 -0.0935  0.0067
13448TIP3    H161759   0.315   0.198   3.674 -0.0296  1.9304 -0.5740
13448TIP3    H261760   0.165   0.186   3.659  0.0028  0.2436  0.1579
13449TIP3   OH261761   5.726   2.235   3.124  0.4363 -0.3617 -0.1419
13449TIP3    H161762   5.679   2.264   3.203  1.2631  1.1045 -0.1409
13449TIP3    H261763   5.716   2.140   3.124 -0.7655 -0.2725  0.9660
13450TIP3   OH261764   3.936   0.910  16.829  0.1761 -0.2258 -0.1846
13450TIP3    H161765   3.973   0.921  16.917 -0.9074 -0.2044  0.2888
13450TIP3    H261766   4.010   0.921  16.770  0.7411  0.7370  0.6820
13451TIP3   OH261767   3.935   4.814   3.495 -0.1989 -0.1739 -0.3066
13451TIP3    H161768   3.958   4.727   3.463  2.0206  0.4501 -0.5511
13451TIP3    H261769   4.019   4.857   3.511 -1.2156  1.1465  1.9995
13452TIP3   OH261770   4.551   0.223   3.716 -0.0615  0.4505 -0.4469
13452TIP3    H161771   4.578   0.177   3.637 -0.6594 -1.3135  0.3296
13452TIP3    H261772   4.474   0.275   3.689  0.6079  1.0105 -1.3241
13453TIP3   OH261773   0.253   2.411   1.636 -0.0845 -0.4459 -0.5929
13453TIP3    H161774   0.280   2.496   1.671 -1.4274 -1.2323  2.7796
13453TIP3    H261775   0.181   2.432   1.577 -0.4689  0.8224  0.2701
13454TIP3   OH261776   0.456   3.297   5.594  0.3490  0.3872 -1.1372
13454TIP3    H161777   0.382   3.239   5.613  0.4567  0.1657 -1.3800
13454TIP3    H261778   0.470   3.345   5.675  0.6175 -0.3287 -0.7447
13455TIP3   OH261779   6.481   6.282  11.949  0.3759  0.1985 -0.3326
13455TIP3    H161780   6.458   6.340  11.876  0.1875  1.4412  0.6776
13455TIP3    H261781   6.399   6.240  11.973  0.5397 -0.6306 -1.1608
13456TIP3   OH261782   2.804   5.068   4.911 -0.0997 -0.3557 -0.4599
13456TIP3    H161783   2.816   5.004   4.841  0.0082 -0.8017 -0.0394
13456TIP3    H261784   2.733   5.032   4.964  1.7359 -1.5686  1.3489
13457TIP3   OH261785   4.805   3.748  11.519 -0.3288  0.3712 -0.1539
13457TIP3    H161786   4.827   3.840  11.503  1.5789  0.1672  0.9659
13457TIP3    H261787   4.784   3.744  11.612 -0.7755 -0.2736 -0.2758
13458TIP3   OH261788   0.431   1.737  12.920 -0.4692  0.1958 -0.1034
13458TIP3    H161789   0.501   1.671  12.923 -0.1551  0.5008 -0.7559
13458TIP3    H261790   0.402   1.743  13.011 -1.2437 -1.6310 -0.1825
13459TIP3   OH261791   3.540   6.352  12.154 -0.2472  0.1021  0.5583
13459TIP3    H161792   3.532   6.421  12.220 -0.8835  0.2905  0.2857
13459TIP3    H261793   3.451   6.336  12.124 -0.3533 -2.0076  1.7911
13460TIP3   OH261794   0.795   4.076  12.931  0.4659 -0.2299 -0.2301
13460TIP3    H161795   0.879   4.087  12.886  0.3057 -0.8356 -0.6788
13460TIP3    H261796   0.819   4.035  13.015  1.0065  2.7338  1.2186
13461TIP3   OH261797   0.039   5.722   3.345 -0.2236 -0.0762  0.2733
13461TIP3    H161798   0.012   5.672   3.267 -1.7753  0.9978  0.0730
13461TIP3    H261799  -0.037   5.718   3.403 -0.6482  2.4539  0.0104
13462TIP3   OH261800   6.357   0.574  14.848  0.0664 -0.8460 -0.0293
13462TIP3    H161801   6.342   0.609  14.760  2.0863  1.1335  0.3256
13462TIP3    H261802   6.345   0.479  14.838 -0.3789 -0.6161 -2.2791
13463TIP3   OH261803   0.948   0.972   0.047  0.2341 -0.0855 -0.1580
13463TIP3    H161804   0.853   0.960   0.046  0.1477  0.5840 -0.1545
13463TIP3    H261805   0.965   1.036  -0.023  0.7614 -0.7650 -0.6660
13464TIP3   OH261806   2.298   1.351  12.019  0.0697  0.2108 -0.6524
13464TIP3    H161807   2.262   1.307  12.096  0.9266  0.5503 -0.0406
13464TIP3    H261808   2.354   1.286  11.978  1.0575  0.5969  0.0538
13465TIP3   OH261809   6.329   2.952   4.973  0.1828 -0.5986  0.3409
13465TIP3    H161810   6.268   2.929   4.903  0.5341  1.3539 -0.6616
13465TIP3    H261811   6.364   2.868   5.002  2.0456 -1.4187 -3.6194
13466TIP3   OH261812   3.087   1.908  16.296 -0.5709 -0.1261  0.5135
13466TIP3    H161813   3.045   1.926  16.212 -0.2673 -1.6367 -0.0034
13466TIP3    H261814   3.144   1.984  16.311 -0.6474  0.1783 -0.6392
13467TIP3   OH261815   5.264   2.586   0.446  0.8482 -0.0559  0.0137
13467TIP3    H161816   5.337   2.588   0.384  0.9207  1.4640  0.1184
13467TIP3    H261817   5.186   2.581   0.392  0.9131 -5.2579 -0.1491
13468TIP3   OH261818   0.602   5.304   4.278 -0.1499  0.1708  0.8955
13468TIP3    H161819   0.611   5.250   4.200 -0.4137 -0.1102  1.0552
13468TIP3    H261820   0.687   5.347   4.288 -0.7177  1.7522 -0.6658
13469TIP3   OH261821   2.628   2.127  15.762 -0.5267  0.0059  0.6384
13469TIP3    H161822   2.631   2.037  15.795 -0.8759  0.0659  0.8383
13469TIP3    H261823   2.542   2.135  15.721  0.0597 -0.1911 -0.6688
13470TIP3   OH261824   1.384   4.853   5.074  0.4510  0.3156 -0.0987
13470TIP3    H161825   1.318   4.791   5.042  0.1782 -0.5360  1.9390
13470TIP3    H261826   1.414   4.815   5.157  2.5370  1.3800 -0.3039
13471TIP3   OH261827   0.079   0.402  10.943 -0.1700  0.2019 -0.9194
13471TIP3    H161828   0.095   0.448  10.861  1.1467  3.5165  0.9826
13471TIP3    H261829   0.156   0.347  10.956 -1.1010 -1.5911 -2.5441
13472TIP3   OH261830   5.562   2.758  16.086 -0.5266  0.0299 -0.4364
13472TIP3    H161831   5.557   2.801  16.000  1.3188  0.5408 -0.3412
13472TIP3    H261832   5.638   2.701  16.079 -2.3517 -2.5894 -0.2324
13473TIP3   OH261833   0.272   1.681  15.526 -0.3099 -0.8836 -0.0016
13473TIP3    H161834   0.340   1.616  15.546  0.2963  0.4788  2.9081
13473TIP3    H261835   0.275   1.691  15.431  3.4341 -1.0328 -0.0325
13474TIP3   OH261836   3.330   5.372   4.927  0.0484 -0.3626 -0.3933
13474TIP3    H161837   3.361   5.429   4.857  0.2140 -0.5708 -0.4876
13474TIP3    H261838   3.369   5.287   4.908  3.1051  0.3594  1.9330
13475TIP3   OH261839   5.047   1.827   5.065 -0.0854  0.4990 -0.7367
13475TIP3    H161840   5.106   1.755   5.046  0.2749  0.7551 -0.5919
13475TIP3    H261841   4.966   1.804   5.019  0.1064  0.1242 -0.8914
13476TIP3   OH261842   5.544   2.051  12.919  0.3383 -0.1246  0.1989
13476TIP3    H161843   5.496   2.080  12.842 -1.8420  0.6059  1.7342
13476TIP3    H261844   5.550   1.956  12.910 -1.0981 -0.1977 -0.2512
13477TIP3   OH261845   0.511   0.803   1.716 -0.2365 -0.0578  0.0806
13477TIP3    H161846   0.451   0.863   1.759 -0.8538 -0.6124  0.0059
13477TIP3    H261847   0.549   0.752   1.788  0.9571  0.9878  0.2367
13478TIP3   OH261848   3.829   1.679  14.084 -0.2251 -0.0359  0.0315
13478TIP3    H161849   3.833   1.586  14.106 -2.2577  0.1676  1.5289
13478TIP3    H261850   3.781   1.719  14.157 -0.1179  2.0554 -0.9740
13479TIP3   OH261851   6.169   1.902   0.795 -0.3931  0.4367 -0.3966
13479TIP3    H161852   6.125   1.825   0.830  0.1244 -0.4669 -1.6700
13479TIP3    H261853   6.099   1.951   0.751 -0.8612  1.1012  1.0051
13480TIP3   OH261854   3.680   5.057  14.083 -0.1756 -0.1234  0.2222
13480TIP3    H161855   3.684   5.101  14.168 -0.0185  2.7686 -1.1548
13480TIP3    H261856   3.596   5.085  14.046 -0.8232 -2.3543 -0.1215
13481TIP3   OH261857   2.716   1.893  13.204  0.4118 -0.1490 -0.2850
13481TIP3    H161858   2.758   1.979  13.204 -3.3380  1.9499  1.3101
13481TIP3    H261859   2.725   1.862  13.294  0.8949 -1.0333 -0.6194
13482TIP3   OH261860   5.574   2.953  12.909  0.3361  0.2856  0.1191
13482TIP3    H161861   5.517   2.880  12.885  3.3931 -1.4134 -2.9670
13482TIP3    H261862   5.518   3.030  12.903 -2.4745 -1.5218  1.1549
13483TIP3   OH261863   4.838   3.408  11.464 -0.4127 -0.7924  0.5234
13483TIP3    H161864   4.796   3.409  11.550 -0.1682  0.9330  0.6479
13483TIP3    H261865   4.767   3.424  11.402 -0.3195 -0.2928  0.5441
13484TIP3   OH261866   2.358   0.673  16.420 -1.2206 -0.2589  0.6653
13484TIP3    H161867   2.443   0.711  16.441 -0.9940 -0.2397 -0.2599
13484TIP3    H261868   2.296   0.721  16.475 -0.5047 -1.1845  2.3532
13485TIP3   OH261869   2.769   0.477  15.356  0.1473  0.0876 -0.7476
13485TIP3    H161870   2.783   0.393  15.313 -1.2808 -0.4542 -0.2156
13485TIP3    H261871   2.856   0.505  15.384  0.4022 -2.5994  1.6307
13486TIP3   OH261872   3.691   4.713   4.701 -0.3832 -0.5294 -0.0662
13486TIP3    H161873   3.744   4.740   4.627  0.2536 -1.0835  0.1803
13486TIP3    H261874   3.621   4.660   4.662  0.3654 -1.4324 -0.2104
13487TIP3   OH261875   3.853   6.008   6.033 -0.4216 -0.5228 -0.1829
13487TIP3    H161876   3.863   6.089   5.982  1.5768 -0.4848  0.1852
13487TIP3    H261877   3.819   6.037   6.117  1.4574  0.1506  0.3948
13488TIP3   OH261878   0.427   1.947   4.259  0.2394  0.4347  0.4848
13488TIP3    H161879   0.370   1.874   4.233  1.1661  0.5620 -2.2519
13488TIP3    H261880   0.366   2.020   4.275 -0.5454 -0.3011  0.9507
13489TIP3   OH261881   1.967   3.162  11.290 -0.3253  0.2351  0.3195
13489TIP3    H161882   1.877   3.177  11.319 -0.2601  0.0789  0.5999
13489TIP3    H261883   1.992   3.245  11.247 -0.2081  0.6972  1.2516
13490TIP3   OH261884   4.075   4.890   4.974 -0.3697  0.5282  0.2647
13490TIP3    H161885   4.032   4.865   4.892 -1.6561  0.4895  0.9242
13490TIP3    H261886   4.161   4.849   4.969 -1.6404 -2.4243  0.3999
13491TIP3   OH261887   5.105   1.018  11.546 -0.3045 -0.4414  0.0791
13491TIP3    H161888   5.073   0.965  11.473  0.4164  0.9052 -1.2641
13491TIP3    H261889   5.047   1.094  11.547 -0.1089 -0.2976  0.7185
13492TIP3   OH261890   5.955   5.926   4.257  0.2835 -0.0041  0.0639
13492TIP3    H161891   5.879   5.968   4.218 -1.3405 -2.5717  0.2418
13492TIP3    H261892   5.986   5.988   4.323 -1.4995  1.1778 -0.1528
13493TIP3   OH261893   5.195   3.214   2.746 -0.2681  0.1962  0.1420
13493TIP3    H161894   5.160   3.302   2.756 -2.0018 -0.2078 -1.7326
13493TIP3    H261895   5.269   3.225   2.686  1.3221  0.6912  2.0870
13494TIP3   OH261896   0.306   1.653   4.357 -0.1644 -0.2649  0.4076
13494TIP3    H161897   0.277   1.698   4.435  0.2908 -2.5766  2.0232
13494TIP3    H261898   0.375   1.594   4.387  1.5426  0.2669 -2.1304
13495TIP3   OH261899   0.736   5.471   4.573  0.4011  0.0507  0.6665
13495TIP3    H161900   0.823   5.435   4.588 -0.0166 -1.9099 -1.1136
13495TIP3    H261901   0.677   5.396   4.585 -0.9602  1.1400  0.9852
13496TIP3   OH261902   1.151   2.027  16.649  0.5309  0.0080 -0.0127
13496TIP3    H161903   1.100   1.972  16.708 -0.5148  0.3768 -0.5527
13496TIP3    H261904   1.137   1.989  16.562 -1.5444  1.9908 -0.6570
13497TIP3   OH261905   1.727   0.829  16.335  0.1853 -0.5006  0.7542
13497TIP3    H161906   1.710   0.908  16.283  1.2247 -0.3728  0.5745
13497TIP3    H261907   1.653   0.772  16.317 -0.2916  0.2017  0.4266
13498TIP3   OH261908   2.602   5.162  12.244  0.1010  0.0396 -0.0047
13498TIP3    H161909   2.643   5.088  12.198  1.3783  0.2477  0.7856
13498TIP3    H261910   2.537   5.195  12.181  0.6703 -0.7012 -1.0173
13499TIP3   OH261911   5.887   5.507  12.090 -0.2358  0.4433  0.4392
13499TIP3    H161912   5.890   5.554  12.173  0.1747  1.3981 -0.1056
13499TIP3    H261913   5.962   5.539  12.040 -0.4177 -0.1829 -0.2701
13500TIP3   OH261914   0.399   1.034   0.450 -0.2004  0.2402 -0.6469
13500TIP3    H161915   0.466   1.097   0.476 -0.5372  1.0583 -1.6598
13500TIP3    H261916   0.322   1.088   0.433 -1.3213 -0.7316  1.0753
13501TIP3   OH261917   6.718   2.632  13.003 -0.2344  0.1829  0.7614
13501TIP3    H161918   6.680   2.615  13.089 -0.2918  0.5062  0.8038
13501TIP3    H261919   6.671   2.710  12.972 -0.3864 -0.0769  0.3328
13502TIP3   OH261920   1.876   0.705   3.326 -0.0482  0.1994 -0.1804
13502TIP3    H161921   1.883   0.666   3.413  0.0044 -0.7127 -0.5898
13502TIP3    H261922   1.808   0.654   3.282  2.3914 -1.7809 -1.9274
13503TIP3   OH261923   2.260   5.038   5.208 -0.6902  0.4485 -0.2317
13503TIP3    H161924   2.314   4.961   5.228  0.6430  0.9171 -1.8992
13503TIP3    H261925   2.296   5.073   5.127 -1.7437  2.4312  0.1002
13504TIP3   OH261926   1.431   6.144   5.315 -0.4327  0.4237 -0.6386
13504TIP3    H161927   1.344   6.125   5.281 -1.3013  1.1496  1.0292
13504TIP3    H261928   1.432   6.104   5.402  1.0872  0.0284 -0.8147
13505TIP3   OH261929   2.684   2.327  13.422  0.1824  0.8867 -0.3614
13505TIP3    H161930   2.749   2.261  13.399  2.2727  2.2006  1.3612
13505TIP3    H261931   2.673   2.380  13.343 -0.8824 -0.9401 -1.4894
13506TIP3   OH261932   2.656   6.162   2.077 -0.0797 -0.0860 -0.1299
13506TIP3    H161933   2.720   6.100   2.043 -0.8790 -1.3434  0.6133
13506TIP3    H261934   2.595   6.109   2.128 -0.9347  1.2732  0.3147
13507TIP3   OH261935   4.585   3.823  12.785  0.6349  0.4643 -0.1075
13507TIP3    H161936   4.518   3.756  12.800  2.0623 -0.5065  2.5067
13507TIP3    H261937   4.538   3.906  12.791 -0.6713 -0.2201 -0.4874
13508TIP3   OH261938   1.639   6.701  13.690  0.1756 -0.0376  0.0053
13508TIP3    H161939   1.657   6.655  13.772 -1.4771 -1.4306 -0.3600
13508TIP3    H261940   1.691   6.781  13.696  0.9036 -0.5922  1.9417
13509TIP3   OH261941   5.416   5.344   4.540  0.3479 -0.1673 -0.2280
13509TIP3    H161942   5.429   5.438   4.529 -0.8342 -0.1598 -2.0510
13509TIP3    H261943   5.487   5.316   4.597  0.3610  1.9213  0.8835
13510TIP3   OH261944   1.672   2.915   0.030  0.4610  0.1727 -0.1704
13510TIP3    H161945   1.657   2.836   0.082 -0.8527  0.5921  0.1218
13510TIP3    H261946   1.621   2.982   0.074 -0.0605  0.7181 -1.5648
13511TIP3   OH261947   2.295   0.488  11.618 -0.3380 -0.2163 -0.3210
13511TIP3    H161948   2.389   0.471  11.625 -0.1381  0.5811 -0.8692
13511TIP3    H261949   2.262   0.420  11.559 -0.0811 -0.4187 -0.2319
13512TIP3   OH261950   6.792   4.613   5.135 -0.1308  0.0680 -0.0693
13512TIP3    H161951   6.783   4.644   5.225 -0.0893  1.1852 -0.4317
13512TIP3    H261952   6.876   4.566   5.134 -0.2575 -0.1814  0.5306
13513TIP3   OH261953   1.738   3.388   4.800 -0.0440  0.3144  0.2713
13513TIP3    H161954   1.743   3.293   4.790 -1.1166  0.1165  1.3206
13513TIP3    H261955   1.663   3.414   4.746  0.8901  0.7393 -0.8754
13514TIP3   OH261956   4.258   1.671   3.625 -0.1183 -0.5192 -0.1453
13514TIP3    H161957   4.333   1.619   3.595 -1.1437 -1.0042 -2.0457
13514TIP3    H261958   4.230   1.719   3.547 -2.7271 -1.5528  0.0555
13515TIP3   OH261959   6.527   3.196  15.550  0.1876 -0.5422  0.6578
13515TIP3    H161960   6.442   3.170  15.584 -0.1789 -0.0382  0.1545
13515TIP3    H261961   6.545   3.132  15.481 -0.2551 -0.0620  0.0871
13516TIP3   OH261962   2.863   5.872   4.750 -0.4386 -0.1107  0.1614
13516TIP3    H161963   2.826   5.955   4.719  1.3765  0.2301 -1.3237
13516TIP3    H261964   2.898   5.831   4.670 -0.0073 -1.6223  1.0908
13517TIP3   OH261965   3.111   4.065  15.855  0.2075  0.4777 -0.0101
13517TIP3    H161966   3.171   4.027  15.790 -0.7256  0.3548 -0.8104
13517TIP3    H261967   3.155   4.146  15.883  0.3113  0.8793 -1.2927
13518TIP3   OH261968   6.323   5.797   4.837  0.0457 -0.1293  0.2877
13518TIP3    H161969   6.233   5.828   4.844  0.4832  1.0802  0.8068
13518TIP3    H261970   6.348   5.774   4.927  0.7925  1.1977  0.4572
13519TIP3   OH261971   3.764   1.909  16.248 -0.0206  0.1215 -0.0784
13519TIP3    H161972   3.670   1.908  16.229  0.3299  0.0548 -1.9819
13519TIP3    H261973   3.782   1.820  16.279 -0.3652 -0.2584 -0.9423
13520TIP3   OH261974   5.408   4.984   4.625 -0.8073  0.2332  0.0984
13520TIP3    H161975   5.412   4.891   4.603 -1.5526 -0.3439  2.1806
13520TIP3    H261976   5.362   5.024   4.551  1.2959 -0.6508 -1.7948
13521TIP3   OH261977   4.324   0.046   0.351  0.1029  0.6346 -0.2220
13521TIP3    H161978   4.292   0.129   0.315  1.1237  0.7229 -0.9697
13521TIP3    H261979   4.278   0.037   0.434 -1.6469  0.8769 -1.1038
13522TIP3   OH261980   5.984   5.946  16.321  0.3153  0.3618  0.4970
13522TIP3    H161981   6.063   5.902  16.290 -1.6224 -1.9253 -1.5447
13522TIP3    H261982   5.997   6.038  16.296  1.3369 -0.3834 -2.0583
13523TIP3   OH261983   3.867   2.338  12.443 -0.1112 -0.0837  0.2394
13523TIP3    H161984   3.897   2.250  12.463  2.3086  0.5979 -0.0656
13523TIP3    H261985   3.857   2.380  12.529  1.1766  0.0543  0.3453
13524TIP3   OH261986   0.265   0.489  11.644 -0.3487  0.4018 -0.2932
13524TIP3    H161987   0.275   0.521  11.555  1.8636 -0.1934 -0.3191
13524TIP3    H261988   0.202   0.417  11.638 -0.0965  0.2647 -1.4114
13525TIP3   OH261989   0.601   4.213   3.510 -0.0469 -0.2342 -0.6378
13525TIP3    H161990   0.576   4.209   3.603 -0.9317 -0.1263 -0.8585
13525TIP3    H261991   0.693   4.236   3.511  0.3793 -1.8370  0.2494
13526TIP3   OH261992   2.521   0.118   0.695 -0.3389  0.8502 -0.6077
13526TIP3    H161993   2.451   0.175   0.664  1.8618  2.0618 -3.9943
13526TIP3    H261994   2.499   0.031   0.660 -1.1163  0.7834  0.0464
13527TIP3   OH261995   0.854   4.240   1.795  0.0225  0.1592  0.3820
13527TIP3    H161996   0.836   4.262   1.887  0.3413  2.8697 -0.1389
13527TIP3    H261997   0.946   4.212   1.796  0.0339  0.1906  0.8622
13528TIP3   OH261998   5.618   2.780  15.153  0.6426  0.4340  0.0496
13528TIP3    H161999   5.626   2.870  15.121 -0.0836 -0.3199 -2.5759
13528TIP3    H262000   5.699   2.738  15.126  1.2573  0.4153  1.8367
13529TIP3   OH262001   5.826   1.874  15.456  0.2181 -0.3252  0.3824
13529TIP3    H162002   5.899   1.935  15.469 -1.4072  1.5398  1.2641
13529TIP3    H262003   5.864   1.788  15.475  2.3713  0.4614 -0.0119
13530TIP3   OH262004   5.059   6.692   4.556  0.2157  0.8609  0.1810
13530TIP3    H162005   5.066   6.761   4.622 -1.2317  2.1317 -0.9110
13530TIP3    H262006   5.146   6.653   4.553  0.6401  1.5779  1.9677
13531TIP3   OH262007   3.074   0.423   0.335 -0.4379 -0.9177  0.3295
13531TIP3    H162008   3.130   0.351   0.364  0.9477 -0.8574 -1.9722
13531TIP3    H262009   2.986   0.384   0.331 -0.2896 -1.5455  2.1514
13532TIP3   OH262010   3.723   3.341   2.233  0.5142 -0.0280 -0.5035
13532TIP3    H162011   3.812   3.375   2.232  1.2471 -1.7695  0.6412
13532TIP3    H262012   3.681   3.385   2.307  0.9930 -0.4577  0.0390
13533TIP3   OH262013   2.887   1.767   3.868  0.3584  0.0849 -0.0999
13533TIP3    H162014   2.981   1.788   3.866  0.8367 -1.8967 -1.1708
13533TIP3    H262015   2.844   1.852   3.877  2.2452  1.0337  0.7104
13534TIP3   OH262016   4.733   3.247  13.261 -0.1664  0.0352  0.4609
13534TIP3    H162017   4.730   3.312  13.332  0.0431  0.5501  0.0068
13534TIP3    H262018   4.674   3.177  13.290 -0.8948  0.7260  0.6738
13535TIP3   OH262019   2.665   1.843  14.233 -0.1101 -0.0389  0.1526
13535TIP3    H162020   2.703   1.846  14.321  3.5726  1.6144 -1.2622
13535TIP3    H262021   2.699   1.762  14.196 -0.0503  0.2147 -0.3501
13536TIP3   OH262022   4.640   2.990  12.073 -0.3696 -0.0130 -0.3868
13536TIP3    H162023   4.662   2.971  11.982 -1.8072  0.5370 -0.8743
13536TIP3    H262024   4.673   2.915  12.122  0.1986 -0.4365 -1.3898
13537TIP3   OH262025   1.109   5.430   1.132 -0.2106  0.2271 -0.2510
13537TIP3    H162026   1.139   5.381   1.055 -0.1151  0.1262 -0.1485
13537TIP3    H262027   1.147   5.384   1.207 -0.5372  0.1592 -0.1249
13538TIP3   OH262028   0.167   3.064   2.739 -0.5524  0.1679  0.1543
13538TIP3    H162029   0.090   3.013   2.763 -1.0504  0.6499 -0.3949
13538TIP3    H262030   0.171   3.134   2.804  0.9360 -1.3102  1.7735
13539TIP3   OH262031   5.826   2.438  10.983 -0.1778 -0.6850  0.0543
13539TIP3    H162032   5.885   2.459  11.055 -0.7488  1.3814 -0.0140
13539TIP3    H262033   5.876   2.462  10.904 -0.0260 -1.7533 -0.1916
13540TIP3   OH262034   5.022   0.209  13.719 -0.3867 -0.3402  0.4524
13540TIP3    H162035   5.022   0.126  13.767 -0.9469 -0.8380 -0.3864
13540TIP3    H262036   5.028   0.276  13.787  1.8972 -1.0947  1.0623
13541TIP3   OH262037   4.599   4.716   0.381  0.1097  0.2477 -0.5698
13541TIP3    H162038   4.635   4.636   0.344 -1.5575  0.4509 -2.8421
13541TIP3    H262039   4.648   4.787   0.339  1.1700  0.4943  0.9847
13542TIP3   OH262040   1.183   1.384   1.888  0.2824 -0.3407 -0.2658
13542TIP3    H162041   1.263   1.433   1.907 -0.2402  0.9492 -1.2616
13542TIP3    H262042   1.201   1.296   1.920  1.3125  0.4324  1.4518
13543TIP3   OH262043   5.887   0.013   2.373  0.2174 -0.1968  0.0347
13543TIP3    H162044   5.839   0.062   2.307 -0.3824  1.9857  1.9266
13543TIP3    H262045   5.978   0.016   2.344 -0.1692 -0.2185 -1.2121
13544TIP3   OH262046   4.647   6.227  11.370  0.3612 -0.3738  0.1902
13544TIP3    H162047   4.713   6.233  11.301 -0.8446  0.0356 -0.9844
13544TIP3    H262048   4.591   6.303  11.356 -1.4231 -1.6522 -0.0134
13545TIP3   OH262049   3.591   4.503   4.280  0.3085  0.4561  0.6822
13545TIP3    H162050   3.523   4.460   4.229 -1.7013  1.0870  2.6669
13545TIP3    H262051   3.673   4.462   4.250 -0.6076  1.0477 -3.2057
13546TIP3   OH262052   3.148   1.141  14.178  0.9200  0.0558  0.9158
13546TIP3    H162053   3.209   1.175  14.113  3.2089 -2.6913  1.4347
13546TIP3    H262054   3.076   1.104  14.126  1.4154  0.2284  0.0896
13547TIP3   OH262055   0.855   5.946   2.209 -0.3585  0.0484  0.3067
13547TIP3    H162056   0.866   5.990   2.125  1.7484  0.0786  0.5251
13547TIP3    H262057   0.818   5.861   2.187 -1.1071  0.5593 -0.4834
13548TIP3   OH262058   1.565   6.413  16.162  0.0444 -0.2074  0.0574
13548TIP3    H162059   1.487   6.418  16.218  0.0935 -0.2847  0.1341
13548TIP3    H262060   1.590   6.321  16.165  1.2345  0.1348  1.5170
13549TIP3   OH262061   0.344   2.143  17.099  0.3260 -0.4624  0.1836
13549TIP3    H162062   0.411   2.148  17.030  0.4810  1.3104  0.4272
13549TIP3    H262063   0.358   2.220  17.153 -2.9145  0.9305 -0.6995
13550TIP3   OH262064   4.306   0.889  11.966  0.0210  0.1534 -0.2387
13550TIP3    H162065   4.289   0.850  11.880 -2.2840 -1.6515  0.9269
13550TIP3    H262066   4.264   0.975  11.961 -1.0711 -0.3771 -0.5941
13551TIP3   OH262067   2.355   4.241  15.096 -0.2647  0.1358  0.3003
13551TIP3    H162068   2.391   4.221  15.009 -1.1461  0.6663 -0.2013
13551TIP3    H262069   2.291   4.310  15.079 -0.4250  0.2585  1.3873
13552TIP3   OH262070   0.809   0.973   2.534 -0.2961 -0.3215  0.6479
13552TIP3    H162071   0.822   1.064   2.508 -1.0405 -0.5249 -0.5039
13552TIP3    H262072   0.881   0.925   2.492 -1.5818 -0.6717 -1.2693
13553TIP3   OH262073   4.090   5.995  11.912  0.5226  0.1277  0.5168
13553TIP3    H162074   4.138   5.912  11.910 -0.1120 -0.2468 -0.8062
13553TIP3    H262075   4.150   6.058  11.873  0.3732 -0.1023 -0.1064
13554TIP3   OH262076   2.581   2.298   4.813  0.1769  0.3414  0.2418
13554TIP3    H162077   2.605   2.351   4.737  0.2856 -1.5821 -1.1567
13554TIP3    H262078   2.664   2.262   4.844 -0.1136 -0.9249 -0.3752
13555TIP3   OH262079   3.554   2.537  11.146 -0.3030  0.0830  0.4211
13555TIP3    H162080   3.640   2.498  11.130  0.8641  2.8190 -0.7540
13555TIP3    H262081   3.559   2.569  11.236  0.2028  0.7964  0.1530
13556TIP3   OH262082   1.153   0.326   3.711 -0.2537 -0.2327 -0.1367
13556TIP3    H162083   1.098   0.393   3.670 -1.2017 -0.9809 -0.1469
13556TIP3    H262084   1.227   0.374   3.747 -1.2838  0.9221  0.5229
13557TIP3   OH262085   5.720   0.345   3.736 -0.0737 -0.0530  0.2931
13557TIP3    H162086   5.642   0.293   3.716 -0.6268 -0.0794  2.2707
13557TIP3    H262087   5.687   0.433   3.754  0.5275  0.2803 -0.1828
13558TIP3   OH262088   1.806   4.251  15.579 -0.1339  0.2915  0.1112
13558TIP3    H162089   1.895   4.220  15.564  0.6499  1.2079  2.4436
13558TIP3    H262090   1.800   4.333  15.531  0.0914 -0.0465 -0.4953
13559TIP3   OH262091   2.466   2.938   5.182 -0.8612 -0.2943 -0.1903
13559TIP3    H162092   2.511   2.901   5.106 -0.5288  0.4840 -0.3824
13559TIP3    H262093   2.445   3.028   5.156 -0.6766  0.0040  0.6645
13560TIP3   OH262094   1.611   0.112  15.465  0.1187  0.5674  0.2352
13560TIP3    H162095   1.568   0.191  15.498  1.0196  0.8147  0.8375
13560TIP3    H262096   1.639   0.065  15.543 -0.8335 -0.6163 -0.1006
13561TIP3   OH262097   2.367   2.555   2.410  0.0024  0.3916 -0.3984
13561TIP3    H162098   2.455   2.555   2.447 -0.4605 -1.7204  0.8703
13561TIP3    H262099   2.329   2.639   2.437  1.7887  1.6128 -1.5119
13562TIP3   OH262100   6.629   3.641  12.613  0.0846 -0.2956  0.1493
13562TIP3    H162101   6.611   3.581  12.686  0.4067 -2.4136 -1.4196
13562TIP3    H262102   6.546   3.645  12.565  0.3058 -0.1426 -0.2216
13563TIP3   OH262103   1.653   5.001   2.595  0.0055  0.2522 -0.1129
13563TIP3    H162104   1.669   4.963   2.509 -1.2176  1.4233 -0.8981
13563TIP3    H262105   1.739   4.999   2.638  0.2257 -2.2483 -0.5163
13564TIP3   OH262106   5.015   1.232   1.114 -0.4693  0.1786 -0.7437
13564TIP3    H162107   5.088   1.226   1.052 -0.5506  0.1159 -0.8347
13564TIP3    H262108   5.041   1.300   1.175 -0.1874 -0.0710 -0.5811
13565TIP3   OH262109   6.217   2.932   5.662  0.4228  0.4896 -0.1776
13565TIP3    H162110   6.258   2.849   5.684 -0.2006  0.4343  0.8547
13565TIP3    H262111   6.281   2.999   5.686  0.8302  0.3199 -0.7866
13566TIP3   OH262112   0.301   5.969  12.222 -0.0582 -0.2847  0.0155
13566TIP3    H162113   0.282   6.040  12.160  1.5342  1.2829  1.2380
13566TIP3    H262114   0.215   5.943  12.256 -0.7258  0.5554 -0.9727
13567TIP3   OH262115   6.610   0.707   4.530  0.4866 -0.2725 -0.3603
13567TIP3    H162116   6.618   0.780   4.469  0.9605 -0.4402 -0.5045
13567TIP3    H262117   6.659   0.636   4.489 -0.6451 -0.9343 -0.6043
13568TIP3   OH262118   1.737   1.863  16.880  0.7324  0.1305  0.1026
13568TIP3    H162119   1.695   1.839  16.963  0.4482  0.5996  0.0994
13568TIP3    H262120   1.702   1.950  16.860  1.7187  0.5498  0.1122
13569TIP3   OH262121   5.884   0.596  12.051 -0.9489  0.3185 -0.4445
13569TIP3    H162122   5.951   0.645  12.003 -0.7462  1.6045  1.0632
13569TIP3    H262123   5.811   0.658  12.060 -1.6112 -0.4414 -0.4561
13570TIP3   OH262124   4.119   3.123   1.454 -0.4272 -0.0358  0.2241
13570TIP3    H162125   4.054   3.069   1.497  0.0306  0.9761  2.3154
13570TIP3    H262126   4.126   3.087   1.366 -2.6986 -1.0990  0.4105
13571TIP3   OH262127   6.520   3.789   1.224  0.1146  0.3601  0.3429
13571TIP3    H162128   6.533   3.827   1.138 -2.5591 -0.4464 -0.5120
13571TIP3    H262129   6.570   3.708   1.222 -2.1302 -1.1142 -1.6275
13572TIP3   OH262130   1.912   0.813  14.356  0.4292 -0.4356 -0.4154
13572TIP3    H162131   1.839   0.875  14.360  0.9320  0.1093  0.6066
13572TIP3    H262132   1.978   0.849  14.415  1.9753 -0.3561 -2.0727
13573TIP3   OH262133   2.660   1.010  16.808  0.0845  0.1435 -0.4863
13573TIP3    H162134   2.651   0.989  16.901 -1.4992  1.1820 -0.3628
13573TIP3    H262135   2.628   1.100  16.801  0.2392  0.1013 -2.0366
13574TIP3   OH262136   1.530   0.236   6.413  0.6061  0.3134  0.0501
13574TIP3    H162137   1.612   0.241   6.462  1.5967 -2.9421 -0.9614
13574TIP3    H262138   1.483   0.163   6.454 -1.1497  1.2049 -0.3056
13575TIP3   OH262139   4.310   3.037  16.632 -0.3178 -0.0730 -0.2507
13575TIP3    H162140   4.237   2.978  16.617  1.2799 -1.8105 -1.5343
13575TIP3    H262141   4.307   3.099  16.559 -0.3409 -0.3118 -0.4513
13576TIP3   OH262142   3.807   2.524  14.231 -0.0077 -0.0041 -0.2057
13576TIP3    H162143   3.843   2.449  14.185  0.6774 -0.5274  1.1357
13576TIP3    H262144   3.873   2.547  14.296 -1.0174  0.5871  0.6524
13577TIP3   OH262145   1.484   5.713  14.813 -0.2841  0.0242  0.0513
13577TIP3    H162146   1.518   5.771  14.745  1.5268 -1.2516 -0.2129
13577TIP3    H262147   1.561   5.668  14.847 -1.4828 -1.4839  0.9416
13578TIP3   OH262148   5.520   3.021   5.167  0.4837  0.5753  0.7813
13578TIP3    H162149   5.596   3.071   5.199  1.9683 -1.3181  0.3816
13578TIP3    H262150   5.515   2.945   5.224  0.6001 -0.7229 -0.8553
13579TIP3   OH262151   5.792   5.665   4.705 -0.2334  0.2057 -0.3029
13579TIP3    H162152   5.750   5.726   4.644 -0.2997 -0.8840 -1.4047
13579TIP3    H262153   5.848   5.611   4.649 -1.9196 -2.2555  0.2413
13580TIP3   OH262154   0.671   0.946   3.211  0.1324  0.7862  0.5378
13580TIP3    H162155   0.742   0.925   3.150 -1.3435  1.0813 -1.3992
13580TIP3    H262156   0.597   0.893   3.180 -0.6559  0.8971  2.1534
13581TIP3   OH262157   2.649   4.782   2.653  0.2175  0.7778 -0.1009
13581TIP3    H162158   2.652   4.842   2.578  0.1540  0.6426 -0.2111
13581TIP3    H262159   2.667   4.838   2.729 -0.9921  1.1461 -0.0753
13582TIP3   OH262160   6.250   6.358   4.487  0.7816 -0.2717 -0.8769
13582TIP3    H162161   6.230   6.388   4.398 -1.6887 -1.6077 -0.8553
13582TIP3    H262162   6.249   6.439   4.539 -0.8499  0.2354 -1.6006
13583TIP3   OH262163   5.779   1.245  11.399  0.1584 -0.1919  0.2256
13583TIP3    H162164   5.760   1.339  11.395  0.3723 -0.1598 -0.0545
13583TIP3    H262165   5.857   1.239  11.455 -0.7954 -0.3462  1.6049
13584TIP3   OH262166   6.027   0.194   4.715 -0.0046  0.2379 -0.3656
13584TIP3    H162167   5.933   0.208   4.709  0.0610  0.2804 -1.4030
13584TIP3    H262168   6.066   0.275   4.684  0.3827  0.1806 -0.0485
13585TIP3   OH262169   3.559   2.096  16.973 -0.0067 -0.2839 -0.1726
13585TIP3    H162170   3.464   2.102  16.964 -0.3738 -0.7959  2.5381
13585TIP3    H262171   3.593   2.168  16.919 -2.0919  1.7237  1.0483
13586TIP3   OH262172   1.080   4.973   3.723 -0.1103  0.1683  0.1335
13586TIP3    H162173   1.040   5.033   3.660 -1.5503 -0.8338  0.0271
13586TIP3    H262174   1.031   4.988   3.804 -0.3121 -0.6649  0.1728
13587TIP3   OH262175   5.982   3.394  16.413 -0.0817  0.3063 -0.1667
13587TIP3    H162176   5.994   3.351  16.328 -0.0057 -1.8016  0.8324
13587TIP3    H262177   5.925   3.335  16.462  0.2503  1.2335  1.4184
13588TIP3   OH262178   3.533   5.700   3.124 -0.1577 -0.5312  0.0429
13588TIP3    H162179   3.591   5.716   3.050  0.8889 -1.2890  0.6585
13588TIP3    H262180   3.496   5.785   3.144 -0.4261 -0.3065 -1.3124
13589TIP3   OH262181   0.722   0.571  14.348  0.4653 -0.3498 -0.1319
13589TIP3    H162182   0.640   0.522  14.353  0.0857  0.3607  1.0936
13589TIP3    H262183   0.707   0.635  14.279 -0.3106  0.2851  0.6110
13590TIP3   OH262184   6.646   2.520   5.339 -0.0102  0.3499  0.1707
13590TIP3    H162185   6.569   2.555   5.384 -0.0212  1.4799 -0.6699
13590TIP3    H262186   6.610   2.459   5.275 -0.1736  0.5777  0.0446
13591TIP3   OH262187   5.589   2.767  11.661 -0.0408  0.0785  0.2330
13591TIP3    H162188   5.545   2.706  11.601  2.0162  0.1915 -1.5006
13591TIP3    H262189   5.518   2.813  11.705 -1.6346 -1.4694 -0.6107
13592TIP3   OH262190   3.041   0.824   1.940  0.3505  0.3502  0.0543
13592TIP3    H162191   3.109   0.843   2.004  1.0874  0.7219 -0.8208
13592TIP3    H262192   3.050   0.892   1.873 -1.6983  1.1743  0.5257
13593TIP3   OH262193   5.364   4.088  13.954 -0.3397  0.3025  0.0230
13593TIP3    H162194   5.298   4.148  13.920  0.9219  1.3525 -0.6746
13593TIP3    H262195   5.372   4.020  13.887 -0.3345  0.4728 -0.1506
13594TIP3   OH262196   0.264   4.961  14.852  0.0916  0.4317 -0.4050
13594TIP3    H162197   0.258   4.865  14.844  0.6474  0.3024  0.5727
13594TIP3    H262198   0.327   4.987  14.785 -0.4088  0.1789 -0.9914
13595TIP3   OH262199   0.514   2.693   4.759 -0.6252  0.0526 -0.1262
13595TIP3    H162200   0.566   2.708   4.838 -0.4746  1.2723 -0.4329
13595TIP3    H262201   0.579   2.680   4.689 -0.7533 -1.7116  0.0400
13596TIP3   OH262202   5.868   3.540  11.542 -0.5496  0.6756  0.5530
13596TIP3    H162203   5.812   3.466  11.564 -0.4769  1.0518  2.1546
13596TIP3    H262204   5.807   3.614  11.533 -0.5305  0.6168 -0.1086
13597TIP3   OH262205   6.602   2.219   1.693  0.3811  0.0365  0.6172
13597TIP3    H162206   6.658   2.163   1.640  0.7222  1.3094 -0.4173
13597TIP3    H262207   6.654   2.298   1.707 -0.4572  0.4964  1.2160
13598TIP3   OH262208   3.219   1.197   4.403  0.6628  0.2392  0.5417
13598TIP3    H162209   3.312   1.196   4.425  0.7036 -0.7401  0.3503
13598TIP3    H262210   3.175   1.202   4.488  0.8880  3.3105  0.5698
13599TIP3   OH262211   3.474   5.162   1.883 -0.5312 -0.3879  0.1965
13599TIP3    H162212   3.433   5.248   1.885 -0.2960 -0.2888  1.0353
13599TIP3    H262213   3.568   5.181   1.879 -0.5219 -0.6087 -1.8116
13600TIP3   OH262214   3.626   6.649   5.482 -0.4002 -0.3466  0.1440
13600TIP3    H162215   3.601   6.741   5.491  0.7316 -0.0505  0.4880
13600TIP3    H262216   3.698   6.637   5.545 -1.0897 -1.6946  0.7236
13601TIP3   OH262217   6.436   3.900   3.349 -0.6115 -0.0373 -0.4158
13601TIP3    H162218   6.403   3.821   3.392 -1.1262  0.7455  0.6405
13601TIP3    H262219   6.528   3.904   3.373 -0.9168  0.4476  0.7199
13602TIP3   OH262220   3.180   2.842   5.114  0.1314 -0.3809 -0.2470
13602TIP3    H162221   3.191   2.932   5.146  2.3810 -0.8223  0.3253
13602TIP3    H262222   3.217   2.843   5.026  0.5108 -0.8431 -0.0927
13603TIP3   OH262223   1.051   6.691  14.328  0.0922 -0.1257  0.0808
13603TIP3    H162224   1.023   6.689  14.236 -3.1123  2.5300  0.7669
13603TIP3    H262225   1.097   6.775  14.337  0.7681 -0.5684  0.8115
13604TIP3   OH262226   0.934   2.196  12.273  0.2819  0.1673 -0.0761
13604TIP3    H162227   0.867   2.128  12.267 -0.5291  0.5733  2.8009
13604TIP3    H262228   1.016   2.148  12.277 -0.0948 -0.5184 -0.3333
13605TIP3   OH262229   2.887   3.441  16.660  0.2650  0.2163  0.0338
13605TIP3    H162230   2.982   3.447  16.653  0.5795 -1.3130  2.1468
13605TIP3    H262231   2.862   3.372  16.599  0.3072  1.4128 -1.4048
13606TIP3   OH262232   5.130   5.284  12.504  0.0187  0.4170  0.8697
13606TIP3    H162233   5.058   5.315  12.449 -1.3717 -0.9659  1.8143
13606TIP3    H262234   5.206   5.282  12.445 -1.1294  0.1680 -0.6681
13607TIP3   OH262235   3.571   1.249  13.871 -0.5110 -0.2671  0.2455
13607TIP3    H162236   3.534   1.313  13.932  1.1259 -0.5910  1.6749
13607TIP3    H262237   3.666   1.265  13.874 -0.3856 -0.1436 -2.4400
13608TIP3   OH262238   2.405   5.332   0.207  0.0142  0.1713 -0.1081
13608TIP3    H162239   2.370   5.246   0.231  0.1695  0.0128 -0.4345
13608TIP3    H262240   2.392   5.338   0.112 -0.1258  0.5690 -0.0642
13609TIP3   OH262241   6.056   0.413  16.201 -0.2055 -0.4195 -0.3434
13609TIP3    H162242   6.048   0.504  16.173 -0.6029 -0.4131 -0.2103
13609TIP3    H262243   6.001   0.364  16.139 -0.9529 -0.4267  0.3096
13610TIP3   OH262244   3.403   3.515   5.005 -0.3639 -0.0082  1.2709
13610TIP3    H162245   3.426   3.535   4.915 -1.8773 -0.2500  0.8035
13610TIP3    H262246   3.317   3.556   5.018 -1.0885 -1.6246  1.9594
13611TIP3   OH262247   4.508   5.563   2.704  0.1370 -0.2560 -0.3666
13611TIP3    H162248   4.431   5.617   2.721  0.1010 -0.6437  0.8200
13611TIP3    H262249   4.499   5.489   2.764  2.9392  1.1774  2.1435
13612TIP3   OH262250   3.495   5.386  15.385  0.6035  0.2305  0.1195
13612TIP3    H162251   3.428   5.449  15.410  0.5840  0.0138  0.6490
13612TIP3    H262252   3.559   5.391  15.456 -0.6456 -2.1615  1.5650
13613TIP3   OH262253   5.250   3.640   4.855  0.5401  0.1253  0.2074
13613TIP3    H162254   5.269   3.567   4.795  0.7011  0.4101 -0.0945
13613TIP3    H262255   5.214   3.708   4.798 -1.9307 -0.5866  0.8389
13614TIP3   OH262256   0.175   0.187   1.344 -0.0971 -0.3157 -0.3838
13614TIP3    H162257   0.114   0.228   1.284  0.7571 -0.6551 -1.5046
13614TIP3    H262258   0.120   0.156   1.416 -1.0460  0.6593 -0.6676
13615TIP3   OH262259   6.393   3.818  16.714  0.8764 -0.3456 -0.2182
13615TIP3    H162260   6.308   3.777  16.730  0.8867  0.2199  1.5288
13615TIP3    H262261   6.457   3.749  16.730  0.8655  0.1025  2.1038
13616TIP3   OH262262   1.607   1.640   3.462  0.2713  0.3542  0.2937
13616TIP3    H162263   1.572   1.705   3.401  1.9294 -0.2626 -1.4212
13616TIP3    H262264   1.548   1.643   3.538 -1.2425  1.9154 -0.8786
13617TIP3   OH262265   5.949   4.990  16.683 -0.3357  0.3413 -0.5578
13617TIP3    H162266   5.889   5.035  16.742 -2.1986  0.7814 -2.6164
13617TIP3    H262267   6.027   4.973  16.735 -1.0647  2.5127  1.3905
13618TIP3   OH262268   1.089   5.398   6.517 -0.6977  0.3221  0.0996
13618TIP3    H162269   1.062   5.309   6.538 -2.4544  0.0586 -2.7455
13618TIP3    H262270   1.170   5.411   6.566 -0.9262 -2.4623  1.3768
13619TIP3   OH262271   2.059   6.790   2.068 -0.4879 -0.3579  0.1262
13619TIP3    H162272   2.090   6.782   2.158 -2.5657  0.5228  0.9719
13619TIP3    H262273   2.117   6.732   2.018  2.9789  1.7067  1.3906
13620TIP3   OH262274   4.577   3.588   2.874 -0.3753  0.4443  0.4421
13620TIP3    H162275   4.487   3.605   2.848 -0.4197  0.3096  0.5069
13620TIP3    H262276   4.630   3.625   2.803 -0.5347 -1.3519 -0.6778
13621TIP3   OH262277   1.036   3.061  12.463  0.2166  0.4890 -0.2967
13621TIP3    H162278   1.076   3.147  12.469 -1.0068  1.0891 -0.4570
13621TIP3    H262279   0.947   3.078  12.434 -0.5029 -0.6965  1.0749
13622TIP3   OH262280   3.969   3.525  14.327  0.1599  0.2775 -0.0564
13622TIP3    H162281   4.001   3.435  14.337  0.8479  0.5149 -0.0801
13622TIP3    H262282   3.977   3.564  14.414  1.4183  0.8049 -0.3775
13623TIP3   OH262283   6.784   2.979  16.562 -0.4570 -0.0116 -0.2725
13623TIP3    H162284   6.704   3.028  16.543  0.5145  0.7725 -2.7505
13623TIP3    H262285   6.780   2.904  16.503 -0.0713 -0.8006  0.6848
13624TIP3   OH262286   6.263   0.664  15.858 -0.2650  0.1726 -0.4137
13624TIP3    H162287   6.269   0.604  15.932 -1.2123  0.4839 -0.0665
13624TIP3    H262288   6.306   0.617  15.786 -1.1054 -1.0048 -0.1853
13625TIP3   OH262289   1.783   1.654  13.013  0.1670  0.1853  0.1289
13625TIP3    H162290   1.854   1.708  13.048 -0.4114  1.3296 -0.4023
13625TIP3    H262291   1.780   1.676  12.920 -0.1552 -0.7036 -0.0869
13626TIP3   OH262292   1.735   6.099  16.836 -0.2252  0.1110  0.3801
13626TIP3    H162293   1.827   6.074  16.848 -0.5048 -0.3361  1.7951
13626TIP3    H262294   1.714   6.072  16.746  1.1507  0.6847 -0.1381
13627TIP3   OH262295   5.523   3.882  16.619 -0.1063 -0.0103  0.6664
13627TIP3    H162296   5.445   3.937  16.629 -0.3813 -0.6154  2.1398
13627TIP3    H262297   5.497   3.797  16.652  0.7591 -0.6445 -0.2155
13628TIP3   OH262298   1.870   3.214   1.717 -0.1792 -0.6494 -0.7511
13628TIP3    H162299   1.941   3.276   1.708  0.9052 -1.5794  0.8568
13628TIP3    H262300   1.898   3.137   1.667  0.5124 -1.4221  0.7358
13629TIP3   OH262301   3.942   5.121   2.448  0.6547  0.0074  0.2356
13629TIP3    H162302   3.988   5.038   2.456  1.7538  0.4932 -0.6911
13629TIP3    H262303   4.004   5.186   2.483  0.4769  0.6181 -0.5602
13630TIP3   OH262304   2.164   3.797   0.111  0.4989  0.4397  0.0967
13630TIP3    H162305   2.256   3.773   0.118  0.9204  1.8143 -0.3968
13630TIP3    H262306   2.163   3.869   0.048 -0.9304  0.3705  0.0185
13631TIP3   OH262307   2.511   2.190  14.898  0.0524  0.2895  0.4560
13631TIP3    H162308   2.459   2.157  14.971  0.3603  0.6683  0.8506
13631TIP3    H262309   2.571   2.118  14.878 -0.8842 -0.3174 -0.2818
13632TIP3   OH262310   0.265   4.487  14.031 -0.7232  0.0856 -0.2218
13632TIP3    H162311   0.333   4.494  14.097 -0.3935 -1.5289 -0.3495
13632TIP3    H262312   0.215   4.409  14.056 -2.7294  1.3891  0.0306
13633TIP3   OH262313   4.064   5.562  13.248 -0.1359 -0.1323 -0.2923
13633TIP3    H162314   4.078   5.475  13.285 -1.3467 -0.4741 -0.6138
13633TIP3    H262315   4.010   5.608  13.312 -0.2466  0.0821 -0.5355
13634TIP3   OH262316   5.085   1.052   0.695 -0.2927  0.2219  0.3894
13634TIP3    H162317   5.053   0.981   0.751  1.4786  0.3746  1.6778
13634TIP3    H262318   5.157   1.091   0.744  1.1507  0.5714 -1.8696
13635TIP3   OH262319   3.696   2.173   3.044  0.4987 -0.2795 -0.0206
13635TIP3    H162320   3.726   2.247   3.096 -1.3898 -0.2355  1.1026
13635TIP3    H262321   3.746   2.099   3.077 -2.9399 -0.9961  4.6214
13636TIP3   OH262322   4.252   5.142  12.190  0.7290 -0.1749  0.5512
13636TIP3    H162323   4.205   5.060  12.208 -0.0109 -0.0174 -0.5876
13636TIP3    H262324   4.336   5.114  12.152 -0.1855 -0.4199 -1.4055
13637TIP3   OH262325   3.315   1.559   2.821  0.7499 -0.2318 -0.5996
13637TIP3    H162326   3.368   1.536   2.898  0.9116 -0.1656 -0.6907
13637TIP3    H262327   3.367   1.530   2.746  0.1943 -1.1097 -0.6595
13638TIP3   OH262328   1.758   6.757  15.671  0.1674  0.7826  0.0880
13638TIP3    H162329   1.739   6.803  15.753 -0.7308  1.2007 -0.3424
13638TIP3    H262330   1.794   6.673  15.699 -1.3468  0.3838  0.9515
13639TIP3   OH262331   3.140   6.499   1.822  0.5539 -0.6889 -0.4546
13639TIP3    H162332   3.159   6.456   1.739 -2.9816 -0.3111 -1.5948
13639TIP3    H262333   3.092   6.435   1.873  1.8722 -0.5870  1.0045
13640TIP3   OH262334   4.176   1.359   2.065  0.3372  0.2757  0.0063
13640TIP3    H162335   4.253   1.305   2.084 -0.1184 -1.2774 -2.1310
13640TIP3    H262336   4.102   1.297   2.067 -0.4274  1.1219 -0.9154
13641TIP3   OH262337   4.175   3.102  11.277 -0.1116 -0.5736 -0.1434
13641TIP3    H162338   4.147   3.033  11.337 -0.0432 -0.0332  0.5278
13641TIP3    H262339   4.132   3.181  11.311 -1.9463 -0.6233 -2.1518
13642TIP3   OH262340   1.264   5.333   2.384  0.6366 -0.7677 -0.0517
13642TIP3    H162341   1.208   5.273   2.434 -0.7053  0.6375  0.1960
13642TIP3    H262342   1.301   5.392   2.449  0.9353 -0.5264 -0.4364
13643TIP3   OH262343   1.755   0.347  12.148  0.3458 -0.0683 -0.0241
13643TIP3    H162344   1.741   0.380  12.059  0.6655 -0.4824 -0.2306
13643TIP3    H262345   1.849   0.330  12.153  0.6422  1.6381  0.9887
13644TIP3   OH262346   0.038   1.680   5.352  0.0390  0.4332  0.5427
13644TIP3    H162347  -0.002   1.609   5.301 -0.3325  0.2437  1.0821
13644TIP3    H262348   0.131   1.677   5.329 -0.0506  0.0762  0.2097
13645TIP3   OH262349   2.772   5.052  15.229  0.0622 -0.5219 -0.3302
13645TIP3    H162350   2.751   5.046  15.136  3.8077 -1.1073 -1.2945
13645TIP3    H262351   2.791   4.962  15.255  1.2376 -0.0803  0.3866
13646TIP3   OH262352   1.078   5.204  16.517 -0.5361  0.2874 -0.1383
13646TIP3    H162353   0.990   5.167  16.506 -0.2478  0.0082 -1.7939
13646TIP3    H262354   1.111   5.163  16.598 -1.9099  0.4133  0.5186
13647TIP3   OH262355   2.478   6.665  15.120 -0.1539  0.5772  0.1032
13647TIP3    H162356   2.409   6.602  15.143 -1.3340  0.6143 -2.8956
13647TIP3    H262357   2.532   6.671  15.199  0.5912 -4.8259  0.3889
13648TIP3   OH262358   2.950   0.638  14.515 -0.6203 -0.1904 -0.0604
13648TIP3    H162359   2.864   0.642  14.556 -0.8559  1.3778 -0.6540
13648TIP3    H262360   2.932   0.627  14.422 -0.1558 -0.6407 -0.1012
13649TIP3   OH262361   0.032   6.329  16.525  0.1326 -0.0846 -0.5334
13649TIP3    H162362  -0.003   6.307  16.439 -0.7730  2.3186 -0.8745
13649TIP3    H262363  -0.041   6.371  16.571  1.0939  0.3089  0.7167
13650TIP3   OH262364   2.317   4.224  10.959 -0.4230  0.4404  0.3212
13650TIP3    H162365   2.290   4.132  10.965 -1.0122  0.6090  0.2528
13650TIP3    H262366   2.240   4.274  10.985 -0.1021  0.9204  0.3681
13651TIP3   OH262367   0.611   0.569  12.970  0.7201 -0.4569  0.1328
13651TIP3    H162368   0.627   0.645  13.026 -0.2705 -0.1957  0.0918
13651TIP3    H262369   0.697   0.545  12.936  1.1554  0.1545  0.7780
13652TIP3   OH262370   6.453   3.253  14.929 -0.2670 -0.1285  0.6235
13652TIP3    H162371   6.491   3.166  14.936  0.9655  0.4555  1.6949
13652TIP3    H262372   6.421   3.274  15.016 -2.0813 -0.1276  0.0034
13653TIP3   OH262373   2.926   2.783  10.786 -0.1989 -0.1414  1.2345
13653TIP3    H162374   2.879   2.861  10.814  0.3700 -0.3001  2.6812
13653TIP3    H262375   3.012   2.815  10.757 -1.0213  0.1123 -1.1281
13654TIP3   OH262376   5.044   5.726   2.720 -0.1195  0.1257 -0.3689
13654TIP3    H162377   4.992   5.766   2.651 -0.2675  0.5285 -0.0284
13654TIP3    H262378   5.056   5.636   2.692  0.1087  0.3670 -1.0885
13655TIP3   OH262379   1.776   0.057  12.115 -0.2258 -0.1340  0.0899
13655TIP3    H162380   1.833   0.046  12.039  1.0304  0.2457  0.9394
13655TIP3    H262381   1.788   0.149  12.140  0.7956 -0.6769  1.7917
13656TIP3   OH262382   2.561   0.850   2.149  0.2454  0.2044  0.1543
13656TIP3    H162383   2.654   0.870   2.136  0.2746  0.5514  0.8630
13656TIP3    H262384   2.524   0.851   2.061  1.2047 -1.4672 -0.3292
13657TIP3   OH262385   1.112   5.022  12.560  0.5919  0.3216 -0.5199
13657TIP3    H162386   1.133   5.106  12.520  2.4288 -0.2394 -0.8507
13657TIP3    H262387   1.184   5.006  12.621  0.3040 -1.0267 -0.4966
13658TIP3   OH262388   6.709   2.848   1.585 -0.4446 -0.4186 -0.0579
13658TIP3    H162389   6.715   2.922   1.524 -0.1912 -1.0182 -0.7811
13658TIP3    H262390   6.624   2.808   1.565 -1.3908  0.6812  1.5364
13659TIP3   OH262391   1.459   4.318  14.606  0.4030 -0.1657 -0.6147
13659TIP3    H162392   1.533   4.378  14.606 -0.9436  1.5868 -1.7899
13659TIP3    H262393   1.402   4.350  14.676  0.1623 -0.7277 -0.5464
13660TIP3   OH262394   2.089   1.591   5.629  0.2752  0.0740 -0.0872
13660TIP3    H162395   2.139   1.650   5.573  1.8473 -1.7169 -0.6771
13660TIP3    H262396   2.115   1.616   5.718 -0.4676  1.4023 -0.2083
13661TIP3   OH262397   3.422   0.732  13.480 -1.1863  0.1738  0.3171
13661TIP3    H162398   3.387   0.776  13.403  0.3806  0.9729  0.0325
13661TIP3    H262399   3.411   0.638  13.461 -0.5135  0.3414 -1.0458
13662TIP3   OH262400   6.287   1.732  13.091 -0.0402 -0.1801 -0.4201
13662TIP3    H162401   6.229   1.782  13.034 -1.5285 -0.6089  0.6586
13662TIP3    H262402   6.311   1.655  13.039  0.0493  0.2756 -1.0756
13663TIP3   OH262403   4.538   1.313   3.750 -0.2718  0.3836 -0.0452
13663TIP3    H162404   4.593   1.251   3.703  0.7258 -0.7146  2.4150
13663TIP3    H262405   4.559   1.398   3.710  0.2804 -0.4829 -1.7209
13664TIP3   OH262406   5.111   0.112   1.004  0.1252  0.3122 -0.1965
13664TIP3    H162407   5.051   0.086   0.934  1.5541 -1.5039 -0.8384
13664TIP3    H262408   5.198   0.098   0.967  0.9399  1.2809  1.2645
13665TIP3   OH262409   1.351   1.139   1.383 -0.8440  0.1305  0.0644
13665TIP3    H162410   1.353   1.059   1.435 -1.6380 -0.2710 -0.5213
13665TIP3    H262411   1.259   1.151   1.360 -0.7563  1.2925  0.2618
13666TIP3   OH262412   2.288   2.698  16.903  0.4666 -0.2011 -0.2071
13666TIP3    H162413   2.347   2.687  16.977  1.0546 -0.0873 -0.6518
13666TIP3    H262414   2.202   2.713  16.942  0.6450 -0.8366  0.4450
13667TIP3   OH262415   4.455   3.616  10.720 -0.3925 -0.0531  0.0266
13667TIP3    H162416   4.469   3.539  10.665 -2.7524  0.9120 -2.1171
13667TIP3    H262417   4.499   3.688  10.674 -0.8326  0.4459  0.3719
13668TIP3   OH262418   3.165   1.761  14.460 -0.1635 -0.1089  0.3590
13668TIP3    H162419   3.202   1.710  14.388 -0.8826 -0.0965 -0.0292
13668TIP3    H262420   3.139   1.844  14.419 -1.2058 -0.3620  0.4788
13669TIP3   OH262421   0.647   2.546   0.637  0.0136  0.2536  0.7457
13669TIP3    H162422   0.683   2.562   0.549 -1.6152 -1.4031 -0.3038
13669TIP3    H262423   0.627   2.452   0.638  1.6935 -0.1785  3.6011
13670TIP3   OH262424   0.365   4.431   0.943  0.2739 -0.4306  0.2193
13670TIP3    H162425   0.421   4.500   0.977  1.1169 -0.1822 -1.5839
13670TIP3    H262426   0.366   4.443   0.848 -2.2210 -0.9013  0.0615
13671TIP3   OH262427   3.415   0.123   0.691  0.1823 -0.1926  0.2662
13671TIP3    H162428   3.400   0.100   0.783 -0.0002  0.5124  0.4180
13671TIP3    H262429   3.417   0.039   0.645 -0.1593 -0.5244  0.8508
13672TIP3   OH262430   5.686   6.343   3.299  0.1642  0.0559  0.1088
13672TIP3    H162431   5.725   6.428   3.280  2.2255 -0.7275  0.5969
13672TIP3    H262432   5.714   6.286   3.228  0.4581 -0.6964  0.8134
13673TIP3   OH262433   3.471   4.872  11.519 -0.0928 -0.5848  0.2268
13673TIP3    H162434   3.390   4.922  11.507 -0.1978 -0.6176  0.8005
13673TIP3    H262435   3.539   4.928  11.482 -0.0514  0.4982  1.8657
13674TIP3   OH262436   0.523   0.378   0.178 -0.2036  0.0514 -0.0215
13674TIP3    H162437   0.547   0.290   0.204 -1.6085  0.1405  1.7364
13674TIP3    H262438   0.460   0.366   0.106 -0.7431 -0.4096  0.5199
13675TIP3   OH262439   3.567   5.959  11.805 -0.0731  0.3144 -0.1593
13675TIP3    H162440   3.652   5.990  11.775 -0.5393  1.7283 -0.0918
13675TIP3    H262441   3.564   5.868  11.777  0.1197  1.1249 -3.1643
13676TIP3   OH262442   2.715   3.659   3.461 -0.4137  0.8454 -0.3309
13676TIP3    H162443   2.734   3.591   3.396  0.5186  1.9829 -1.2793
13676TIP3    H262444   2.634   3.699   3.429 -0.9325  0.2447  0.1980
13677TIP3   OH262445   0.532   3.486  16.298 -0.1292 -0.2738  0.2895
13677TIP3    H162446   0.618   3.495  16.338  0.2434  1.3714 -0.7509
13677TIP3    H262447   0.488   3.419  16.350  1.6573 -0.9464  1.0280
13678TIP3   OH262448   5.998   5.409   2.248  0.2713  0.2821  0.2547
13678TIP3    H162449   5.991   5.336   2.186 -0.8960  0.2714  0.3752
13678TIP3    H262450   6.088   5.406   2.278  0.3908 -0.7786 -0.1543
13679TIP3   OH262451   3.347   5.660   2.169  0.2319 -0.1632  0.0703
13679TIP3    H162452   3.310   5.608   2.240  0.8511 -1.7732 -0.7302
13679TIP3    H262453   3.439   5.671   2.193  0.6121 -1.3023 -0.7631
13680TIP3   OH262454   0.318   2.760  12.154 -0.5418 -0.1098  0.0806
13680TIP3    H162455   0.380   2.691  12.179  1.3028  1.1419 -0.7947
13680TIP3    H262456   0.364   2.810  12.086 -1.5544  2.3025  1.0468
13681TIP3   OH262457   3.951   5.640  11.840  0.6522 -0.2997  0.0914
13681TIP3    H162458   3.950   5.668  11.932 -1.3879  1.3066 -0.3405
13681TIP3    H262459   3.875   5.582  11.832 -2.0904  3.1459 -1.4486
13682TIP3   OH262460   0.157   3.605   3.004 -0.0320 -0.5102 -0.4053
13682TIP3    H162461   0.086   3.544   3.026 -0.9039  0.4615 -0.4622
13682TIP3    H262462   0.119   3.663   2.937  0.9277 -0.1830 -0.6851
13683TIP3   OH262463   1.034   3.489  13.344 -0.2021 -0.3442 -0.0686
13683TIP3    H162464   1.089   3.532  13.410  1.0148 -1.2574 -0.4602
13683TIP3    H262465   0.945   3.517  13.366  0.0211 -1.4534  2.6526
13684TIP3   OH262466   2.350   5.242   5.017  0.6577  0.2576  0.2104
13684TIP3    H162467   2.346   5.338   5.020 -4.5513  0.2991  2.1932
13684TIP3    H262468   2.289   5.217   4.948  2.3056 -1.7682 -0.6336
13685TIP3   OH262469   4.825   6.552  14.055 -0.1024 -0.3482 -0.1464
13685TIP3    H162470   4.769   6.480  14.027 -1.2985  1.2839 -2.2467
13685TIP3    H262471   4.801   6.625  13.998  2.4783  1.1477  0.5148
13686TIP3   OH262472   4.470   2.835   2.109 -0.3523 -0.3839 -0.5796
13686TIP3    H162473   4.547   2.874   2.151 -0.0602 -0.8152 -0.7121
13686TIP3    H262474   4.406   2.827   2.180 -0.9667  1.6643 -0.8171
13687TIP3   OH262475   6.497   4.313  11.552 -0.0804 -0.5019  0.1938
13687TIP3    H162476   6.404   4.335  11.542 -0.4937 -0.8859  2.6003
13687TIP3    H262477   6.504   4.224  11.518 -0.4762 -0.2808 -0.4765
13688TIP3   OH262478   2.856   2.324   3.928  0.3050  0.3703 -0.2337
13688TIP3    H162479   2.765   2.344   3.907 -0.6943  0.5195  3.4312
13688TIP3    H262480   2.901   2.408   3.920 -0.0711  0.4984 -1.1509
13689TIP3   OH262481   6.245   4.555  11.844 -0.0878 -0.2653  0.1816
13689TIP3    H162482   6.203   4.497  11.780  0.9510 -0.0132 -0.7441
13689TIP3    H262483   6.337   4.532  11.840  0.4506  1.8199 -0.6099
13690TIP3   OH262484   4.710   2.646   1.451 -0.7850 -0.1315  0.1093
13690TIP3    H162485   4.717   2.722   1.393  1.4404  1.2287  1.9530
13690TIP3    H262486   4.775   2.584   1.416 -0.7019 -0.0649  0.1465
13691TIP3   OH262487   1.471   2.315  12.658 -0.0200  0.3309 -0.5852
13691TIP3    H162488   1.487   2.388  12.597  1.8710 -0.3856 -1.0296
13691TIP3    H262489   1.388   2.277  12.629 -1.0649  2.2764 -0.3326
13692TIP3   OH262490   2.362   1.896  14.860 -0.1030  0.0245 -0.1759
13692TIP3    H162491   2.405   1.946  14.929 -2.0819  0.3176  0.9383
13692TIP3    H262492   2.312   1.829  14.907  0.3748 -1.3018 -1.4940
13693TIP3   OH262493   5.477   3.794   0.111 -0.3009 -0.4030  0.4786
13693TIP3    H162494   5.420   3.742   0.169 -0.2312 -0.0306  0.8856
13693TIP3    H262495   5.419   3.861   0.074 -0.4500 -0.9190 -0.2534
13694TIP3   OH262496   0.885   4.295   4.910 -0.1414 -0.2253  0.6284
13694TIP3    H162497   0.962   4.341   4.877 -1.4500  2.3607  0.9497
13694TIP3    H262498   0.915   4.250   4.989  1.2830 -0.2449  0.0937
13695TIP3   OH262499   2.756   5.256  10.909  0.0789  0.7694  0.0331
13695TIP3    H162500   2.671   5.249  10.866  0.1302  0.0666  0.0283
13695TIP3    H262501   2.816   5.281  10.838  0.1544 -0.3277 -0.3096
13696TIP3   OH262502   2.484   5.815   6.586  0.2398  0.1639 -0.8334
13696TIP3    H162503   2.523   5.840   6.502  0.1751  0.3100 -0.8197
13696TIP3    H262504   2.492   5.719   6.588  0.0171  0.1385 -1.1150
13697TIP3   OH262505   5.105   4.446   0.145  0.6870 -0.6043 -0.1580
13697TIP3    H162506   5.120   4.520   0.085 -1.0912  1.3769  1.6394
13697TIP3    H262507   5.191   4.426   0.181  1.4924 -0.6415 -2.0002
13698TIP3   OH262508   3.311   0.457  11.147 -0.2093 -0.0073 -0.1264
13698TIP3    H162509   3.340   0.534  11.097 -1.6804  2.1534  2.1081
13698TIP3    H262510   3.244   0.416  11.093 -1.2557  1.8520 -0.3095
13699TIP3   OH262511   0.562   4.674  16.006  0.0821 -0.7049 -0.2094
13699TIP3    H162512   0.645   4.632  16.030  0.9740  0.6546 -0.7869
13699TIP3    H262513   0.579   4.715  15.921 -1.5731 -1.4128 -0.9332
13700TIP3   OH262514   1.292   1.060   4.471  0.3386 -0.4492  0.5128
13700TIP3    H162515   1.303   1.143   4.518 -1.1803 -0.2581  0.5817
13700TIP3    H262516   1.269   1.085   4.382  0.0997 -0.7985  0.4732
13701TIP3   OH262517   1.410   3.969  14.837  0.1863 -0.4569 -0.7928
13701TIP3    H162518   1.349   3.912  14.885  0.8460 -0.8942 -0.4662
13701TIP3    H262519   1.373   4.057  14.848  0.0723 -0.6071  0.1261
13702TIP3   OH262520   5.494   6.338   1.348 -0.7374 -0.5101 -0.0838
13702TIP3    H162521   5.568   6.355   1.406  0.6595 -1.2481 -1.5704
13702TIP3    H262522   5.506   6.399   1.275 -0.6762 -1.7145 -1.1118
13703TIP3   OH262523   0.044   5.928   6.135  0.5459 -0.7448  0.6199
13703TIP3    H162524  -0.043   5.889   6.137  0.0648  0.2703  0.0223
13703TIP3    H262525   0.099   5.864   6.090 -0.4066 -0.4028 -1.0831
13704TIP3   OH262526   0.909   5.014   0.514 -0.1031 -0.3334 -0.4768
13704TIP3    H162527   0.821   5.040   0.488 -0.9435 -1.6238  0.9901
13704TIP3    H262528   0.940   4.960   0.441 -0.6995 -0.2711 -0.7837
13705TIP3   OH262529   4.786   6.528   5.818 -0.0432  0.0357 -0.4661
13705TIP3    H162530   4.766   6.613   5.779 -0.2218 -0.3721 -1.2699
13705TIP3    H262531   4.875   6.508   5.788 -0.3624 -0.5011 -1.0755
13706TIP3   OH262532   0.008   4.541  12.375  0.1281  0.1956  0.4709
13706TIP3    H162533  -0.009   4.614  12.315 -2.5662 -0.1441  0.7172
13706TIP3    H262534   0.064   4.578  12.443 -1.7052  2.2852  0.9588
13707TIP3   OH262535   2.339   1.147   0.138  0.2044 -0.2507 -0.4356
13707TIP3    H162536   2.248   1.153   0.167  0.8566  0.8725  1.5765
13707TIP3    H262537   2.360   1.054   0.142 -0.5790 -0.4142  0.0493
13708TIP3   OH262538   3.857   4.560  12.468 -0.6295 -0.3881  0.1984
13708TIP3    H162539   3.844   4.651  12.495 -0.3906  0.2311 -1.6043
13708TIP3    H262540   3.789   4.546  12.402 -0.7987 -1.6016  0.6182
13709TIP3   OH262541   4.587   6.618   6.420  0.1070 -0.2069  0.0479
13709TIP3    H162542   4.548   6.537   6.386  0.4525  0.3827 -1.8738
13709TIP3    H262543   4.681   6.600   6.421  0.4069  0.8676 -2.5622
13710TIP3   OH262544   1.570   1.120   5.689  0.3321 -0.1196 -0.4805
13710TIP3    H162545   1.557   1.026   5.677 -0.8716  0.2356 -2.3595
13710TIP3    H262546   1.556   1.134   5.783 -0.1318 -1.7057 -0.2764
13711TIP3   OH262547   2.790   5.544   0.778 -0.0660  0.1092  0.1974
13711TIP3    H162548   2.779   5.458   0.819  0.1814 -0.4662 -0.8922
13711TIP3    H262549   2.824   5.524   0.691 -0.9694  1.2625 -0.4445
13712TIP3   OH262550   0.617   0.705   5.319  0.3865  0.0229  1.0528
13712TIP3    H162551   0.586   0.635   5.263  0.8570 -0.9899  2.0281
13712TIP3    H262552   0.644   0.775   5.258 -0.7652 -0.3325  0.1018
13713TIP3   OH262553   6.550   5.925   6.638 -0.6171  0.2210 -0.6596
13713TIP3    H162554   6.513   5.885   6.718 -1.5509 -0.6675 -1.5026
13713TIP3    H262555   6.600   6.000   6.670 -0.4969 -0.4419  0.8146
13714TIP3   OH262556   2.348   2.451  14.316  0.4377  0.1538 -0.0396
13714TIP3    H162557   2.354   2.480  14.225  0.4628  1.6060  0.4004
13714TIP3    H262558   2.289   2.376  14.313  1.0181 -0.2724 -1.3475
13715TIP3   OH262559   1.789   4.022   0.368 -0.4991  0.0869 -0.2007
13715TIP3    H162560   1.701   4.059   0.373 -0.0847  0.9288  1.1796
13715TIP3    H262561   1.832   4.075   0.300 -1.2656 -0.8615 -1.4841
13716TIP3   OH262562   1.090   1.684   0.836 -0.1961 -0.2889  0.1258
13716TIP3    H162563   1.155   1.754   0.834  0.0268 -0.4102  1.5514
13716TIP3    H262564   1.006   1.729   0.845 -0.1318 -0.1787  0.1719
13717TIP3   OH262565   3.072   6.734  13.510 -0.1117  0.0852  0.6810
13717TIP3    H162566   2.987   6.769  13.537 -1.0601  0.4657 -2.4408
13717TIP3    H262567   3.052   6.652  13.465  1.3610 -0.6334  1.2646
13718TIP3   OH262568   1.528   2.556  11.273  0.1142  0.1772 -0.0334
13718TIP3    H162569   1.438   2.574  11.302  0.0267  0.4972 -0.4716
13718TIP3    H262570   1.537   2.608  11.192  0.3746 -0.5976 -0.5105
13719TIP3   OH262571   1.366   3.064   3.680  0.0391 -0.3040  0.2320
13719TIP3    H162572   1.411   2.986   3.649 -0.3041 -0.1892 -0.5706
13719TIP3    H262573   1.328   3.103   3.602  0.6408  0.9573  0.5393
13720TIP3   OH262574   2.166   1.384  17.075 -0.2526  0.5622  0.1838
13720TIP3    H162575   2.131   1.368  16.988 -0.2727  0.7080  0.1653
13720TIP3    H262576   2.102   1.345  17.135  0.2481 -0.4056  0.1007
13721TIP3   OH262577   2.760   4.725  10.313  0.4441  0.0262 -0.8197
13721TIP3    H162578   2.724   4.795  10.258 -0.1773  0.5794  0.2490
13721TIP3    H262579   2.803   4.771  10.385  0.3152 -0.6864 -0.2750
13722TIP3   OH262580   3.164   0.104   1.395 -0.2738  0.0574  0.5415
13722TIP3    H162581   3.080   0.084   1.356 -0.7369 -1.0034  2.0213
13722TIP3    H262582   3.228   0.056   1.342 -0.8063 -0.7346  0.6065
13723TIP3   OH262583   0.946   0.914  15.702  0.5326 -0.2326  0.0412
13723TIP3    H162584   0.983   1.001  15.717  0.6449 -0.0493 -1.1442
13723TIP3    H262585   0.852   0.929  15.692  0.4681 -0.3409  0.4632
13724TIP3   OH262586   3.001   0.071  11.062  0.1074 -0.3578 -0.1405
13724TIP3    H162587   2.916   0.058  11.102 -0.1351 -1.3696 -0.9604
13724TIP3    H262588   2.986   0.062  10.968  1.2866 -1.6688 -0.2436
13725TIP3   OH262589   5.777   3.167  15.093  0.8242 -0.2932 -0.1742
13725TIP3    H162590   5.756   3.117  15.014  0.4151 -1.2278  0.5188
13725TIP3    H262591   5.821   3.105  15.151 -0.1948 -0.0326  0.9237
13726TIP3   OH262592   0.658   3.803  11.684 -0.6034  0.1734  0.5841
13726TIP3    H162593   0.660   3.743  11.610 -1.5609 -0.0810  0.7511
13726TIP3    H262594   0.733   3.777  11.738 -0.8007 -0.6443  0.4790
13727TIP3   OH262595   6.587   5.307   5.543 -1.0920  0.1351 -0.0463
13727TIP3    H162596   6.642   5.308   5.465  1.0754  0.3569  1.4085
13727TIP3    H262597   6.505   5.348   5.515 -0.1178  0.8414 -2.0266
13728TIP3   OH262598   5.251   2.315  16.712  0.1850 -0.0367 -0.0519
13728TIP3    H162599   5.313   2.256  16.756  0.8250 -0.2984 -1.2457
13728TIP3    H262600   5.275   2.309  16.620 -1.4770  0.0470 -0.5175
13729TIP3   OH262601   2.574   3.339   4.329  0.4003 -0.0281 -0.0260
13729TIP3    H162602   2.593   3.362   4.238 -3.2849 -2.7479 -1.7626
13729TIP3    H262603   2.520   3.411   4.361 -1.8416 -0.8572 -1.6199
13730TIP3   OH262604   6.297   2.149   3.445  0.0420  0.3037  0.8370
13730TIP3    H162605   6.360   2.140   3.517 -0.5287  1.0642  1.4525
13730TIP3    H262606   6.236   2.216   3.475 -0.2303  0.6117 -0.3573
13731TIP3   OH262607   5.195   0.254   2.993 -0.3251 -0.0567  0.0996
13731TIP3    H162608   5.137   0.198   3.045  0.6564  0.8069  2.2795
13731TIP3    H262609   5.139   0.326   2.964 -0.6017  0.2521  1.3219
13732TIP3   OH262610   4.968   1.035  14.085  0.2405 -0.1235 -0.3089
13732TIP3    H162611   5.062   1.054  14.095  0.2843 -0.4666 -0.0513
13732TIP3    H262612   4.931   1.116  14.049  1.0290 -0.7375 -2.7307
13733TIP3   OH262613   5.282   2.999   2.947  0.5002  0.2684  0.0131
13733TIP3    H162614   5.368   3.031   2.972  0.8441  0.5855 -1.4479
13733TIP3    H262615   5.242   3.071   2.899  0.1250 -0.4737 -0.8304
13734TIP3   OH262616   5.737   4.415   4.339 -0.4857 -0.6536 -0.0473
13734TIP3    H162617   5.822   4.415   4.384 -0.2319 -0.6079 -0.5158
13734TIP3    H262618   5.757   4.449   4.251 -1.1758  0.3901  0.1838
13735TIP3   OH262619   3.692   1.215   4.211  0.8125  0.4524  0.3299
13735TIP3    H162620   3.638   1.137   4.210  1.9876 -0.4219  1.4175
13735TIP3    H262621   3.739   1.213   4.127  0.5435  0.2070  0.1837
13736TIP3   OH262622   5.334   2.812  15.330  0.4444  0.2041 -0.2628
13736TIP3    H162623   5.341   2.812  15.234 -2.1942  0.3770 -0.5138
13736TIP3    H262624   5.368   2.898  15.356 -1.7369  1.5012 -1.3958
13737TIP3   OH262625   3.327   6.799   1.185  0.1574  0.8383 -0.6869
13737TIP3    H162626   3.306   6.853   1.109  0.3169  1.4593 -0.3048
13737TIP3    H262627   3.257   6.734   1.188 -0.1307  1.1230 -1.0735
13738TIP3   OH262628   3.825   3.627  13.181 -0.6115 -0.0195 -0.6364
13738TIP3    H162629   3.872   3.706  13.155  0.5682 -0.1412  0.9563
13738TIP3    H262630   3.740   3.633  13.136 -0.1134  1.5613 -1.4373
13739TIP3   OH262631   5.628   2.686  15.655  0.1847  0.5297  0.1494
13739TIP3    H162632   5.540   2.664  15.624 -0.1695  0.2727  1.2935
13739TIP3    H262633   5.615   2.758  15.717  0.7873  0.5523  0.2554
13740TIP3   OH262634   0.022   6.549  12.653  0.2891 -0.0956  0.4613
13740TIP3    H162635   0.065   6.533  12.569 -0.9049 -0.4093 -0.1035
13740TIP3    H262636  -0.007   6.640  12.648  1.2682  0.2665  1.0345
13741TIP3   OH262637   4.501   4.192  14.109  0.2782  0.1277  0.1054
13741TIP3    H162638   4.422   4.185  14.163  0.6407 -1.4390  0.4679
13741TIP3    H262639   4.572   4.198  14.172  0.7124 -1.7646 -0.1506
13742TIP3   OH262640   1.838   1.893   4.830 -0.1977 -0.0442 -0.5332
13742TIP3    H162641   1.755   1.913   4.787 -0.8299 -0.2327  0.5755
13742TIP3    H262642   1.815   1.834   4.902  0.5539  1.6036  1.1480
13743TIP3   OH262643   1.554   3.473  14.521 -0.3249  0.0424  0.0320
13743TIP3    H162644   1.557   3.483  14.426 -0.2735 -2.2505 -0.2750
13743TIP3    H262645   1.521   3.384  14.535  2.1544 -0.6948  2.0759
13744TIP3   OH262646   6.530   0.237   1.254 -0.5004  0.3402  0.0098
13744TIP3    H162647   6.491   0.186   1.326 -0.3737 -0.8654 -0.7449
13744TIP3    H262648   6.465   0.305   1.235 -1.5306 -0.6663 -0.1671
13745TIP3   OH262649   0.917   3.858  10.964 -0.0800  0.1209 -0.4888
13745TIP3    H162650   0.932   3.765  10.947  0.2832  0.3378 -1.4255
13745TIP3    H262651   0.894   3.895  10.878 -1.3670  0.6835  0.0683
13746TIP3   OH262652   1.708   3.720   1.204  0.3661  0.1516  0.0885
13746TIP3    H162653   1.685   3.805   1.167  0.1201 -0.7504 -1.9316
13746TIP3    H262654   1.672   3.656   1.143  1.4330 -1.4172  1.0186
13747TIP3   OH262655   5.880   6.158   1.468 -0.1959 -0.7800 -0.7938
13747TIP3    H162656   5.860   6.236   1.417 -0.9823 -0.6367 -0.2931
13747TIP3    H262657   5.907   6.093   1.403  1.0742  0.0726 -1.1526
13748TIP3   OH262658   1.550   2.292   0.363 -0.2211 -0.4171 -0.2813
13748TIP3    H162659   1.621   2.346   0.397 -0.4114 -0.4527  0.1841
13748TIP3    H262660   1.482   2.297   0.430 -0.0636 -1.6039 -0.0152
13749TIP3   OH262661   5.798   5.068  15.535 -0.0663  0.2055 -0.1858
13749TIP3    H162662   5.877   5.120  15.526  0.6044 -0.5615  0.9884
13749TIP3    H262663   5.816   5.008  15.608 -2.3970  1.2933  1.4554
13750TIP3   OH262664   1.819   1.765   4.539 -0.5717  0.2309  0.9860
13750TIP3    H162665   1.735   1.809   4.530 -1.0709 -0.2896  2.7197
13750TIP3    H262666   1.816   1.694   4.474 -1.2327  0.5431  0.6678
13751TIP3   OH262667   5.031   3.676   0.538  0.5821  0.6133  0.2333
13751TIP3    H162668   4.956   3.617   0.526  0.3431  0.1923  3.1338
13751TIP3    H262669   4.991   3.762   0.550  0.8539  1.1681 -2.2878
13752TIP3   OH262670   1.351   3.681   2.899 -0.2790 -0.4581  0.1531
13752TIP3    H162671   1.277   3.737   2.875  1.2419  1.5272 -0.0674
13752TIP3    H262672   1.423   3.741   2.915  1.7833 -2.4021 -1.2835
13753TIP3   OH262673   5.864   1.634   0.521  0.5102  0.1115  0.3260
13753TIP3    H162674   5.936   1.663   0.465 -0.1104  0.5554 -0.2536
13753TIP3    H262675   5.790   1.689   0.496  0.1613  0.1833  1.4500
13754TIP3   OH262676   3.344   6.060  16.462 -0.2067  0.1449 -0.3844
13754TIP3    H162677   3.325   5.969  16.486  1.8881 -0.2133  0.0755
13754TIP3    H262678   3.264   6.107  16.486 -2.1508 -1.8177 -2.4807
13755TIP3   OH262679   6.121   4.567  15.936 -0.0565 -0.9349  0.1432
13755TIP3    H162680   6.109   4.624  15.860 -0.7936 -0.6610  0.4542
13755TIP3    H262681   6.052   4.501  15.929 -0.0040 -1.0278  0.4670
13756TIP3   OH262682   1.291   1.620   1.448 -0.3235  0.3457  0.3916
13756TIP3    H162683   1.213   1.638   1.500 -0.5448  0.4887  0.0148
13756TIP3    H262684   1.346   1.697   1.460 -0.0181  0.0254  1.0599
13757TIP3   OH262685   0.846   2.966  16.516  0.7437  0.1050 -0.1721
13757TIP3    H162686   0.794   2.931  16.588  2.2865  1.1019  1.5232
13757TIP3    H262687   0.926   2.913  16.517  0.9089  0.3355 -0.9678
13758TIP3   OH262688   5.811   0.174  14.942 -0.3205  0.6196  0.7123
13758TIP3    H162689   5.787   0.107  15.006 -0.2548  1.2259  1.3885
13758TIP3    H262690   5.847   0.126  14.868 -3.6707 -0.3985 -0.4282
13759TIP3   OH262691   4.788   5.317  15.015 -0.0150 -0.2691  0.1057
13759TIP3    H162692   4.772   5.377  15.089 -1.5690 -0.5138 -0.0090
13759TIP3    H262693   4.785   5.230  15.054 -0.3303 -0.3790 -0.1650
13760TIP3   OH262694   0.411   5.243   4.481  0.1032  0.0661 -0.0074
13760TIP3    H162695   0.356   5.320   4.491 -2.5051 -1.5964 -0.5109
13760TIP3    H262696   0.456   5.255   4.398 -1.0077  0.6468 -0.5415
13761TIP3   OH262697   3.015   2.790  17.139 -0.2747  0.1389  0.3267
13761TIP3    H162698   2.936   2.803  17.191  0.2666  0.2802  1.1281
13761TIP3    H262699   3.047   2.878  17.121 -0.4390  0.0887 -0.2235
13762TIP3   OH262700   6.369   2.731   5.217 -0.3978  0.1406 -0.6331
13762TIP3    H162701   6.372   2.681   5.136 -1.6561  1.5632 -1.6031
13762TIP3    H262702   6.448   2.786   5.215  0.0420 -0.4671 -0.4279
13763TIP3   OH262703   5.914   1.480   1.526 -0.2202  0.0154 -0.1016
13763TIP3    H162704   5.858   1.522   1.461  1.2203 -0.1825 -1.5279
13763TIP3    H262705   5.944   1.400   1.484  2.7724  1.1110 -0.2532
13764TIP3   OH262706   4.223   1.411   5.563 -0.1302  0.0948 -0.4307
13764TIP3    H162707   4.265   1.418   5.478  0.3794  0.5475 -0.1461
13764TIP3    H262708   4.286   1.449   5.624 -0.6745  0.1742  0.0881
13765TIP3   OH262709   1.183   4.826   4.352 -0.6381  0.6566 -0.6016
13765TIP3    H162710   1.215   4.889   4.287 -1.6446 -1.2080 -3.0212
13765TIP3    H262711   1.123   4.769   4.304 -0.8185 -1.3429  1.7906
13766TIP3   OH262712   3.739   6.517  15.662 -0.1655 -0.0737  0.1118
13766TIP3    H162713   3.709   6.514  15.753  1.0668  1.7952  0.6244
13766TIP3    H262714   3.757   6.425  15.640 -1.9443 -0.7503  1.2053
13767TIP3   OH262715   0.626   4.990   1.258 -0.1723 -0.3443 -0.3378
13767TIP3    H162716   0.650   4.939   1.336  0.1301  0.9317  0.4308
13767TIP3    H262717   0.700   5.050   1.245  0.1327 -1.0217 -2.0692
13768TIP3   OH262718   1.408   4.683   3.092 -0.0047  0.5250  0.4796
13768TIP3    H162719   1.465   4.714   3.022 -0.4784  0.8879  0.2493
13768TIP3    H262720   1.468   4.655   3.161  0.4650  2.0179  0.7319
13769TIP3   OH262721   3.503   6.470   2.548  0.1245  0.5797 -0.0285
13769TIP3    H162722   3.464   6.463   2.635  1.2985  0.8064  0.5491
13769TIP3    H262723   3.458   6.404   2.495  0.0019 -0.1910  1.0016
13770TIP3   OH262724   4.851   6.347   4.935  0.6240 -0.1541  0.6105
13770TIP3    H162725   4.829   6.293   5.011  0.3872 -1.3422 -0.2573
13770TIP3    H262726   4.850   6.285   4.862 -1.5079  1.3688 -0.7450
13771TIP3   OH262727   2.765   3.134   0.676 -0.1161  0.0210  0.1504
13771TIP3    H162728   2.723   3.220   0.670 -0.1171 -0.0813 -1.7793
13771TIP3    H262729   2.775   3.119   0.770  0.6524  2.4911  0.5236
13772TIP3   OH262730   5.164   6.349  16.658 -0.1084  0.3390 -0.1669
13772TIP3    H162731   5.197   6.263  16.684 -1.6192 -0.1001  0.4541
13772TIP3    H262732   5.171   6.402  16.738  0.0570  0.5373 -0.3142
13773TIP3   OH262733   4.328   6.359   1.952 -0.0193  0.2822 -0.0753
13773TIP3    H162734   4.366   6.285   2.000 -1.7259 -1.2017 -0.8625
13773TIP3    H262735   4.236   6.334   1.940  0.0232  1.1641 -2.9188
13774TIP3   OH262736   3.172   4.451  16.984  0.2922 -0.2548 -0.1378
13774TIP3    H162737   3.256   4.483  17.015  0.1510 -0.0365  0.0195
13774TIP3    H262738   3.173   4.357  17.003  0.2595 -0.1475  0.4088
13775TIP3   OH262739   2.916   5.862   1.714 -0.4392 -0.0987  0.3602
13775TIP3    H162740   2.833   5.837   1.673  0.7164 -0.9080 -1.6088
13775TIP3    H262741   2.949   5.781   1.753 -0.1967  0.0391  0.4433
13776TIP3   OH262742   1.180   4.162  14.373 -0.0969  0.2025  0.4521
13776TIP3    H162743   1.179   4.074  14.336  0.7870  1.2141 -2.1823
13776TIP3    H262744   1.097   4.201  14.345 -0.1717  0.4576  1.0070
13777TIP3   OH262745   4.244   5.560   4.314 -0.2221  0.2572 -0.7501
13777TIP3    H162746   4.148   5.568   4.317 -0.2441 -0.3009  1.4278
13777TIP3    H262747   4.276   5.629   4.372  0.5002 -1.5709  1.1357
13778TIP3   OH262748   6.192   3.368   6.016  0.1267 -0.1621 -0.3820
13778TIP3    H162749   6.136   3.371   6.094  0.4718  0.3135 -0.1494
13778TIP3    H262750   6.200   3.275   5.995  1.1050 -0.3920  0.9228
13779TIP3   OH262751   4.599   1.843  10.798 -0.3179  0.5246  0.3772
13779TIP3    H162752   4.602   1.766  10.854  0.6130  0.2921  0.0350
13779TIP3    H262753   4.586   1.916  10.859  0.0598  0.2162  0.8394
13780TIP3   OH262754   6.126   3.441   2.920  0.1997 -0.4180 -0.0160
13780TIP3    H162755   6.164   3.362   2.958  0.7983  0.1103  0.5262
13780TIP3    H262756   6.198   3.481   2.872  0.4633  0.7633  1.2874
13781TIP3   OH262757   0.749   6.451   2.327  0.4280 -0.2758  0.6620
13781TIP3    H162758   0.768   6.479   2.237 -1.1081 -0.3732  0.2762
13781TIP3    H262759   0.829   6.472   2.376  0.7639  1.1333 -0.4200
13782TIP3   OH262760   6.799   1.472   5.888  0.2652 -0.1122 -0.2227
13782TIP3    H162761   6.714   1.517   5.889  0.7020  0.7342 -0.6375
13782TIP3    H262762   6.824   1.469   5.796  0.1989 -1.3333 -0.2277
13783TIP3   OH262763   5.201   0.779  13.681  0.8598  0.6248 -0.1570
13783TIP3    H162764   5.110   0.770  13.709  0.9457  2.7611  1.0240
13783TIP3    H262765   5.198   0.766  13.586 -0.0973 -2.5992  0.1978
13784TIP3   OH262766   2.572   2.223   2.484  0.2828  0.2509  0.1906
13784TIP3    H162767   2.657   2.236   2.527 -0.1815 -0.4569  1.3562
13784TIP3    H262768   2.508   2.249   2.550 -0.4200  0.8114 -0.6955
13785TIP3   OH262769   2.157   6.414  12.471 -0.4461 -0.9260  0.2462
13785TIP3    H162770   2.237   6.377  12.510  1.6645  1.8459 -1.1182
13785TIP3    H262771   2.180   6.429  12.379 -0.4693  4.6920  0.8225
13786TIP3   OH262772   6.022   6.357  16.017 -0.3574 -0.6700  0.1821
13786TIP3    H162773   5.961   6.389  15.950  0.8836 -0.0269 -0.6753
13786TIP3    H262774   5.971   6.292  16.066 -1.1580 -1.5575 -1.7317
13787TIP3   OH262775   5.534   3.597  12.335  0.2930 -0.3229  0.0591
13787TIP3    H162776   5.537   3.593  12.239  1.1416  0.0933  0.0549
13787TIP3    H262777   5.552   3.689  12.356  1.9333 -0.7345  0.6427
13788TIP3   OH262778   0.862   0.841  11.367  0.3196 -0.4690 -0.0687
13788TIP3    H162779   0.799   0.891  11.315  0.1503 -1.3959 -0.7714
13788TIP3    H262780   0.941   0.895  11.365  0.3071 -0.4598 -1.2652
13789TIP3   OH262781   2.333   4.314  10.473 -0.0720  0.5127  0.9967
13789TIP3    H162782   2.339   4.279  10.384 -1.4630  0.7734  0.7822
13789TIP3    H262783   2.406   4.375  10.480  1.7154 -1.5263  0.9807
13790TIP3   OH262784   5.076   2.559  10.993  0.3682  0.4980 -0.0669
13790TIP3    H162785   5.105   2.489  11.051 -1.7390 -2.3850 -2.2209
13790TIP3    H262786   4.991   2.587  11.029  0.2417  0.4768 -0.3433
13791TIP3   OH262787   1.522   2.477   0.656  0.6761 -0.0888  0.5372
13791TIP3    H162788   1.542   2.423   0.732  0.3297 -0.7374  0.1843
13791TIP3    H262789   1.606   2.493   0.614  0.8587  0.2208  1.0253
13792TIP3   OH262790   1.693   2.820   3.231  0.7562  1.3050  0.6770
13792TIP3    H162791   1.752   2.882   3.188  0.7131  1.7062  1.1802
13792TIP3    H262792   1.750   2.748   3.259  1.1218  1.9469  1.6535
13793TIP3   OH262793   6.204   5.717  15.672 -0.2409 -0.0031  0.3333
13793TIP3    H162794   6.266   5.650  15.702 -1.2134 -0.4645  1.3751
13793TIP3    H262795   6.258   5.778  15.621  0.6717 -1.5557 -0.6425
13794TIP3   OH262796   3.470   2.335   1.716 -0.4064  0.8583 -0.3725
13794TIP3    H162797   3.449   2.425   1.691 -1.3401  0.9024  0.5331
13794TIP3    H262798   3.403   2.311   1.780  0.3060 -0.2091 -0.0005
13795TIP3   OH262799   6.202   3.635  11.989 -0.0537 -0.7779  0.2881
13795TIP3    H162800   6.229   3.667  11.903  0.3594  0.0400  0.7062
13795TIP3    H262801   6.125   3.687  12.011  0.7008  0.0648  1.0321
13796TIP3   OH262802   0.882   4.537  11.313  0.0584  0.5745 -0.1955
13796TIP3    H162803   0.899   4.445  11.298  0.7367  0.4829  1.0290
13796TIP3    H262804   0.940   4.562  11.385 -2.1122  1.2217  1.4662
13797TIP3   OH262805   6.310   3.868   3.832  0.2314  0.2425  0.0613
13797TIP3    H162806   6.346   3.782   3.809  1.0813  0.5416  0.2261
13797TIP3    H262807   6.262   3.853   3.913 -1.3454 -0.4740 -0.9627
13798TIP3   OH262808   6.604   2.845   2.001  0.0279  0.0297  1.1677
13798TIP3    H162809   6.547   2.777   2.038  0.9519 -0.0075  2.5688
13798TIP3    H262810   6.576   2.926   2.044 -1.6483  0.7568 -1.1203
13799TIP3   OH262811   2.366   6.241  13.333  0.3217 -0.3068 -0.1733
13799TIP3    H162812   2.296   6.280  13.281  0.2656 -1.7675 -1.2681
13799TIP3    H262813   2.373   6.297  13.410 -0.1942  1.4336 -1.3320
13800TIP3   OH262814   4.646   0.628  16.295  0.4918 -0.3606  0.5769
13800TIP3    H162815   4.656   0.539  16.330  2.4933 -0.2230  0.4903
13800TIP3    H262816   4.581   0.620  16.226 -0.9852 -1.3128  2.0257
13801TIP3   OH262817   5.107   0.564   5.496 -0.1017  0.0697 -0.3579
13801TIP3    H162818   5.025   0.534   5.535  0.1804  0.0069  0.2019
13801TIP3    H262819   5.157   0.484   5.481 -0.4059  0.0464 -1.3316
13802TIP3   OH262820   4.626   4.260   0.372 -0.5553 -0.4730 -0.2690
13802TIP3    H162821   4.629   4.165   0.358  0.0471 -0.6475  0.9239
13802TIP3    H262822   4.695   4.294   0.316 -0.3407 -0.8132 -0.2188
13803TIP3   OH262823   4.460   6.432  12.861 -0.0139 -0.1348  0.0531
13803TIP3    H162824   4.413   6.439  12.944  1.8168  1.3746  1.0430
13803TIP3    H262825   4.550   6.410  12.886  0.7677  1.1279 -1.4602
13804TIP3   OH262826   2.110   2.534   4.887  0.1946  0.0752  0.3331
13804TIP3    H162827   2.040   2.587   4.924 -1.4313 -1.9082  0.2812
13804TIP3    H262828   2.149   2.589   4.819 -1.9430  0.9501 -0.2643
13805TIP3   OH262829   6.057   5.259  13.736 -0.5666 -0.0234  0.1793
13805TIP3    H162830   6.062   5.350  13.764 -3.9679  0.8525 -1.4330
13805TIP3    H262831   6.063   5.263  13.640 -2.0956 -1.2633 -0.0178
13806TIP3   OH262832   5.580   4.563   2.844  0.1684  0.5656  0.2952
13806TIP3    H162833   5.618   4.496   2.787  2.0406  0.2441  1.8359
13806TIP3    H262834   5.502   4.593   2.796 -0.5355 -2.4005 -0.6425
13807TIP3   OH262835   0.883   2.084  14.757  0.4095 -0.4038 -0.4333
13807TIP3    H162836   0.866   2.133  14.837 -0.6706  1.0920 -1.5132
13807TIP3    H262837   0.839   2.134  14.688  0.4295 -2.1855 -1.8257
13808TIP3   OH262838   4.130   2.758  11.767  0.6032 -0.1192  0.4346
13808TIP3    H162839   4.114   2.849  11.794  0.3047 -0.0912  0.1764
13808TIP3    H262840   4.214   2.736  11.807  1.4821  0.8002 -0.8208
13809TIP3   OH262841   2.449   0.828  14.515 -0.0601  0.1262  0.0687
13809TIP3    H162842   2.526   0.876  14.483 -0.3064  0.4410 -0.0582
13809TIP3    H262843   2.396   0.813  14.437  0.2965 -0.8847  0.0120
13810TIP3   OH262844   4.775   5.802   3.450 -0.3587 -0.5641  0.3794
13810TIP3    H162845   4.848   5.859   3.425 -1.8307  1.2751 -0.0145
13810TIP3    H262846   4.731   5.850   3.521 -0.1395 -2.5267  1.9470
13811TIP3   OH262847   4.750   1.660  10.641  0.1126  0.3206  0.6667
13811TIP3    H162848   4.682   1.605  10.602 -0.5752  0.5830  1.4492
13811TIP3    H262849   4.701   1.731  10.684  0.9976  2.0590 -1.0541
13812TIP3   OH262850   5.088   0.259  11.444 -0.5598 -0.3023 -0.7690
13812TIP3    H162851   5.133   0.219  11.518  0.9637 -1.3080 -2.1585
13812TIP3    H262852   5.158   0.277  11.381 -1.7098  1.1719 -1.6997
13813TIP3   OH262853   2.810   5.492   3.362  0.0102  0.1291 -0.4304
13813TIP3    H162854   2.793   5.557   3.430 -0.0255 -0.7990  0.4637
13813TIP3    H262855   2.873   5.535   3.303 -0.8490  1.3772 -0.4796
13814TIP3   OH262856   2.171   2.585   1.965 -0.1358 -0.6279 -0.1237
13814TIP3    H162857   2.226   2.536   2.025 -0.0048  1.9301  2.0672
13814TIP3    H262858   2.176   2.538   1.882  3.4720 -1.7791  0.5985
13815TIP3   OH262859   4.490   0.641   6.229 -0.1466  0.6327  0.1330
13815TIP3    H162860   4.510   0.734   6.240  0.2707  0.3428  2.3295
13815TIP3    H262861   4.572   0.596   6.249  0.2500 -0.1965 -2.9237
13816TIP3   OH262862   5.726   2.340   3.817  0.2731  0.2786 -0.1426
13816TIP3    H162863   5.812   2.307   3.841 -0.8998 -1.8518  1.4908
13816TIP3    H262864   5.668   2.309   3.886 -1.8857  1.3190 -1.3737
13817TIP3   OH262865   0.234   2.628  13.511  0.6221 -0.4773 -0.2653
13817TIP3    H162866   0.160   2.668  13.463  0.2303  0.8469  1.3431
13817TIP3    H262867   0.299   2.611  13.443 -0.1895  0.6523 -1.3959
13818TIP3   OH262868   6.497   6.372   4.185  0.4993 -0.6498  0.2071
13818TIP3    H162869   6.405   6.396   4.177  0.2580 -1.0333  1.5153
13818TIP3    H262870   6.501   6.281   4.155  0.8924  0.0210 -1.9780
13819TIP3   OH262871   4.152   3.989   5.812 -0.4422 -0.2063 -0.2600
13819TIP3    H162872   4.144   3.977   5.718  2.6929 -1.4130 -0.5026
13819TIP3    H262873   4.180   4.079   5.823 -0.4465 -0.1755 -0.4996
13820TIP3   OH262874   3.392   6.225   2.527 -0.8790 -0.2384  0.8654
13820TIP3    H162875   3.407   6.227   2.433  0.8705  3.0380  1.0482
13820TIP3    H262876   3.432   6.144   2.557 -1.2214 -1.2077 -1.1471
13821TIP3   OH262877   1.103   5.488  13.849  0.4869  0.4139  0.3695
13821TIP3    H162878   1.176   5.449  13.801  0.7700  0.3199  0.8670
13821TIP3    H262879   1.052   5.533  13.782 -0.3292 -1.4951 -0.3575
13822TIP3   OH262880   5.804   6.330   5.932  0.1594 -0.3590  0.0364
13822TIP3    H162881   5.866   6.364   5.997 -0.8424  0.0202  0.8113
13822TIP3    H262882   5.842   6.247   5.905  1.6639  0.4434 -0.4647
13823TIP3   OH262883   5.706   2.183  17.112 -0.2472 -0.4526 -0.1804
13823TIP3    H162884   5.689   2.190  17.205 -0.1551 -1.5946 -0.0627
13823TIP3    H262885   5.770   2.252  17.093 -0.8586  0.2950  0.4329
13824TIP3   OH262886   2.796   0.911   4.285  0.1635 -0.3341  0.0311
13824TIP3    H162887   2.830   0.880   4.368  1.2852  0.6373 -0.0308
13824TIP3    H262888   2.716   0.959   4.308 -0.8621 -2.0849  0.2549
13825TIP3   OH262889   5.816   4.842   2.286 -0.0355 -0.3553  0.3598
13825TIP3    H162890   5.895   4.793   2.264 -0.7636 -1.8065  0.8428
13825TIP3    H262891   5.790   4.883   2.204  2.6630  2.4199  0.7332
13826TIP3   OH262892   2.641   0.623   3.445  0.4294  0.1551  0.7177
13826TIP3    H162893   2.660   0.550   3.386  0.4819  0.2711  0.5880
13826TIP3    H262894   2.591   0.685   3.392 -1.5603 -0.7630  1.4520
13827TIP3   OH262895   0.830   3.126   2.205  0.0604 -0.1726  0.1943
13827TIP3    H162896   0.853   3.145   2.114 -1.8650 -0.3565 -0.3824
13827TIP3    H262897   0.737   3.104   2.202 -0.0907 -0.0245  2.2399
13828TIP3   OH262898   5.867   3.563  13.843  0.6178 -0.7240 -0.7554
13828TIP3    H162899   5.929   3.618  13.795 -0.2246 -0.2195 -1.2956
13828TIP3    H262900   5.888   3.577  13.935 -0.7674  2.0260 -0.7622
13829TIP3   OH262901   0.426   6.470  11.029 -0.2851  0.3979  0.1085
13829TIP3    H162902   0.420   6.402  10.962  0.4114  0.7033 -0.2758
13829TIP3    H262903   0.499   6.525  11.000 -0.0043  0.5554  1.0978
13830TIP3   OH262904   6.147   2.376  11.433  0.4102 -0.1574 -0.2821
13830TIP3    H162905   6.166   2.302  11.491 -1.6945 -1.3204 -0.9646
13830TIP3    H262906   6.112   2.444  11.490 -0.8440 -0.9763 -0.0531
13831TIP3   OH262907   6.009   0.172   4.037  0.4768  0.6655 -0.0442
13831TIP3    H162908   6.041   0.255   4.001 -1.0810  0.5183 -1.9028
13831TIP3    H262909   6.089   0.125   4.062  1.4712  2.0614 -0.4598
13832TIP3   OH262910   5.398   5.281   1.452  0.3431 -0.3068 -0.1939
13832TIP3    H162911   5.388   5.303   1.545  0.5807  0.3640 -0.3217
13832TIP3    H262912   5.492   5.271   1.440  0.2328 -1.7537 -0.0734
13833TIP3   OH262913   4.520   2.519  15.334  0.0379 -0.1163 -0.9889
13833TIP3    H162914   4.566   2.439  15.361  0.3063  0.4171  0.2265
13833TIP3    H262915   4.428   2.503  15.355 -0.0275 -0.3890 -1.4675
13834TIP3   OH262916   5.154   5.539  15.165 -1.1002 -0.0164 -0.0323
13834TIP3    H162917   5.157   5.501  15.077  1.2204 -0.0135 -0.0351
13834TIP3    H262918   5.234   5.591  15.171 -1.0734 -0.1895  2.1553
13835TIP3   OH262919   4.592   4.780  11.089  0.1173  0.4708 -0.0662
13835TIP3    H162920   4.632   4.696  11.113 -0.5382 -0.2491 -1.3840
13835TIP3    H262921   4.605   4.787  10.994 -0.8451  1.3213 -0.1525
13836TIP3   OH262922   3.653   4.454   5.326  0.3982 -0.0684  0.2453
13836TIP3    H162923   3.735   4.438   5.373 -0.0387  0.8281  1.3910
13836TIP3    H262924   3.591   4.480   5.395 -0.5697  0.2541 -0.7143
13837TIP3   OH262925   2.831   5.691  14.549  0.2495 -0.0065 -0.7230
13837TIP3    H162926   2.753   5.652  14.586  0.3504  1.7330  1.5160
13837TIP3    H262927   2.899   5.624  14.560 -0.8129 -1.4959 -2.6120
13838TIP3   OH262928   4.930   5.734   5.690 -0.5369 -0.1654  0.9034
13838TIP3    H162929   4.940   5.704   5.780 -1.5929  2.1942  1.8964
13838TIP3    H262930   4.836   5.726   5.673 -0.3091 -0.8564 -0.1323
13839TIP3   OH262931   2.289   0.532   0.312  0.5199 -0.6783 -0.4551
13839TIP3    H162932   2.201   0.495   0.308  0.4264 -0.4377 -0.6668
13839TIP3    H262933   2.286   0.593   0.386  0.3251 -0.2129 -0.8360
13840TIP3   OH262934   6.320   0.449  16.044  0.3842  0.5175 -0.4063
13840TIP3    H162935   6.317   0.511  16.117  1.8760 -2.4926  2.4526
13840TIP3    H262936   6.251   0.385  16.063  0.3597 -0.0063 -2.0280
13841TIP3   OH262937   3.040   6.519  12.116 -0.1158  0.2919  0.4576
13841TIP3    H162938   3.031   6.431  12.078 -0.4860  1.0212 -1.2291
13841TIP3    H262939   2.951   6.548  12.131 -0.2356  1.7440 -2.4068
13842TIP3   OH262940   6.111   3.119   1.516  0.9254  0.0505 -0.0533
13842TIP3    H162941   6.145   3.207   1.500 -0.2609  1.1258  2.7421
13842TIP3    H262942   6.118   3.108   1.611 -2.1685 -1.4835  0.1019
13843TIP3   OH262943   3.916   5.993   0.197  1.2757 -0.8918  0.9975
13843TIP3    H162944   3.874   6.080   0.194  2.3966 -0.3534 -0.6791
13843TIP3    H262945   3.892   5.953   0.114  1.0085 -2.0952  1.6436
13844TIP3   OH262946   4.804   6.305  11.791 -0.3369 -0.3014 -0.0130
13844TIP3    H162947   4.738   6.370  11.767 -0.7603 -1.2816 -1.6614
13844TIP3    H262948   4.782   6.280  11.880  0.2660  2.2880  0.9713
13845TIP3   OH262949   2.428   6.261  14.659  0.3855 -0.1162  0.0679
13845TIP3    H162950   2.469   6.347  14.671 -1.5741  0.7286  1.1378
13845TIP3    H262951   2.464   6.207  14.730  1.0977  0.0057 -0.1904
13846TIP3   OH262952   1.411   3.037  14.758 -0.6543 -0.1037  0.2356
13846TIP3    H162953   1.497   3.009  14.791  0.5798 -0.4669 -2.9474
13846TIP3    H262954   1.431   3.110  14.699 -2.3574 -1.0673 -1.6296
13847TIP3   OH262955   0.330   5.853   3.128  0.0963 -0.3327 -0.1425
13847TIP3    H162956   0.288   5.847   3.042 -2.9112  3.2434  0.8371
13847TIP3    H262957   0.389   5.927   3.121  2.1344 -1.8292  0.1743
13848TIP3   OH262958   4.575   0.038  14.117 -0.4306  0.3685  0.0835
13848TIP3    H162959   4.499   0.012  14.066  0.6092 -2.7193 -0.1412
13848TIP3    H262960   4.581   0.133  14.106 -4.1501  0.7542  0.0878
13849TIP3   OH262961   3.684   3.379  15.217  0.4392  0.0181  0.0234
13849TIP3    H162962   3.721   3.455  15.173  0.8618  1.0573  2.0393
13849TIP3    H262963   3.734   3.305  15.184 -0.2816  0.4923 -2.3246
13850TIP3   OH262964   3.588   2.484  15.889 -0.7876  0.3841 -0.0699
13850TIP3    H162965   3.618   2.426  15.819 -1.9726  0.0037 -0.2854
13850TIP3    H262966   3.635   2.566  15.874  0.5802 -0.3614 -0.0250
13851TIP3   OH262967   4.484   0.789   0.675  0.2445 -0.0269 -0.3601
13851TIP3    H162968   4.547   0.840   0.726  0.4078 -1.5023  0.9711
13851TIP3    H262969   4.536   0.719   0.634 -0.2827 -0.3115 -0.5589
13852TIP3   OH262970   0.583   0.475   2.669 -0.1834  0.6836  0.1144
13852TIP3    H162971   0.581   0.458   2.575 -1.4179 -1.4645  0.4533
13852TIP3    H262972   0.527   0.552   2.680 -0.5692  0.5577 -0.8423
13853TIP3   OH262973   1.117   1.658  16.184  0.2005 -0.4526  0.1802
13853TIP3    H162974   1.199   1.702  16.165 -0.4281  1.4034  1.4440
13853TIP3    H262975   1.105   1.597  16.112  1.9457  0.2762 -0.7916
13854TIP3   OH262976   0.229   2.581   3.198 -0.4831 -0.6279  0.3036
13854TIP3    H162977   0.256   2.518   3.131  2.5193 -1.1956  1.8905
13854TIP3    H262978   0.217   2.528   3.277 -1.7148  0.3267  0.7873
13855TIP3   OH262979   0.637   2.813  14.758  0.4005 -0.3739 -0.6914
13855TIP3    H162980   0.718   2.834  14.711  0.1968 -0.3913 -1.0582
13855TIP3    H262981   0.635   2.875  14.831 -0.0238  0.6728 -1.5619
13856TIP3   OH262982   0.595   5.414   3.474 -0.0343 -0.3639  0.2635
13856TIP3    H162983   0.529   5.371   3.528  0.9647 -1.6704  0.5201
13856TIP3    H262984   0.669   5.426   3.533  0.5931 -0.5862 -0.4613
13857TIP3   OH262985   3.198   0.329   1.017 -0.9173 -0.0887  0.2014
13857TIP3    H162986   3.293   0.337   1.028 -0.8657  0.5194 -0.5590
13857TIP3    H262987   3.185   0.241   0.981 -0.2523  1.0129 -3.1615
13858TIP3   OH262988   2.457   3.838   3.730  0.7572  0.0846  0.7715
13858TIP3    H162989   2.491   3.768   3.785 -0.3015 -1.2946 -0.2723
13858TIP3    H262990   2.529   3.902   3.727  1.0292 -0.0066  3.2854
13859TIP3   OH262991   4.122   6.697  12.967 -0.1346  0.3113 -0.0755
13859TIP3    H162992   4.072   6.634  13.018 -0.4900  1.2479  0.7855
13859TIP3    H262993   4.058   6.766  12.946  0.4868  0.8879 -0.0881
13860TIP3   OH262994   2.426   0.430   4.259 -0.5138 -0.0628 -0.2445
13860TIP3    H162995   2.515   0.430   4.223 -0.3134 -1.1295  0.2139
13860TIP3    H262996   2.369   0.435   4.183 -0.0671  0.7843 -0.5340
13861TIP3   OH262997   1.063   4.158   1.467  0.3407  0.1137  0.7579
13861TIP3    H162998   1.018   4.223   1.414  0.7010 -0.4268 -0.2380
13861TIP3    H262999   0.998   4.089   1.480  0.6673 -0.3924 -0.1786
13862TIP3   OH263000   5.669   4.172  16.126  0.0400 -0.1921 -0.8046
13862TIP3    H163001   5.711   4.089  16.148 -0.2714 -1.1520 -3.4793
13862TIP3    H263002   5.624   4.155  16.043 -0.1916  2.5930 -1.3383
13863TIP3   OH263003   4.595   3.043  11.199 -0.6297 -0.3984 -0.1717
13863TIP3    H163004   4.648   3.036  11.278 -0.4042  1.0828 -0.1683
13863TIP3    H263005   4.617   2.965  11.149 -0.3728 -1.0867  0.9754
13864TIP3   OH263006   1.096   0.282  15.722 -0.0271  0.5639 -0.3691
13864TIP3    H163007   1.040   0.318  15.653 -0.8834  1.8197  0.9129
13864TIP3    H263008   1.158   0.353  15.741  1.3605 -0.4285 -1.0419
13865TIP3   OH263009   0.984   5.689   1.365 -0.2581 -0.5363  0.6924
13865TIP3    H163010   0.936   5.664   1.286  0.1101  0.2964  0.1852
13865TIP3    H263011   1.068   5.644   1.358  0.7972  1.4646 -0.7125
13866TIP3   OH263012   2.590   3.991  10.450  0.2630 -0.3168  0.2385
13866TIP3    H163013   2.685   4.000  10.450  0.1723  1.7685 -1.9931
13866TIP3    H263014   2.571   3.939  10.372 -0.4886  1.6751 -0.9744
13867TIP3   OH263015   1.650   0.427  11.176 -0.5504  0.7917 -0.4351
13867TIP3    H163016   1.703   0.349  11.160 -0.7853  0.6594 -0.5560
13867TIP3    H263017   1.587   0.430  11.104 -1.9399 -0.0819  0.6998
13868TIP3   OH263018   0.033   5.953  12.135 -0.4072 -0.6228  0.5697
13868TIP3    H163019   0.063   6.005  12.060 -0.4416 -0.5434  0.6113
13868TIP3    H263020   0.004   5.870  12.096 -2.1483  0.0790  0.2614
13869TIP3   OH263021   1.371   6.042  13.581 -0.3634 -0.1577  0.6681
13869TIP3    H163022   1.452   6.091  13.564 -0.7496 -0.1185 -1.3895
13869TIP3    H263023   1.334   6.083  13.658  1.0533  0.5244  1.0234
13870TIP3   OH263024   1.767   6.092   4.719  0.3673 -0.4574  0.0059
13870TIP3    H163025   1.758   6.109   4.626 -0.7016 -0.9689  0.0067
13870TIP3    H263026   1.855   6.053   4.727  1.4086  1.6831 -0.4434
13871TIP3   OH263027   1.069   2.595  12.481 -0.1014  0.8275 -0.0229
13871TIP3    H163028   1.071   2.600  12.385  0.3356 -1.8073 -0.2346
13871TIP3    H263029   1.116   2.673  12.510  0.3507  1.3376 -1.9787
13872TIP3   OH263030   0.619   0.839  13.056 -0.6425  0.2350  0.7347
13872TIP3    H163031   0.615   0.835  12.961  0.1176  1.8366  0.6110
13872TIP3    H263032   0.574   0.920  13.080  0.1186  0.4179  1.6436
13873TIP3   OH263033   4.765   5.738  12.936  0.0555 -0.1841  0.0550
13873TIP3    H163034   4.860   5.743  12.944  0.0845 -0.1515 -0.2691
13873TIP3    H263035   4.751   5.679  12.861 -0.1460  0.8661 -0.7630
13874TIP3   OH263036   2.596   5.361   5.582 -0.1674 -0.1886 -0.0159
13874TIP3    H163037   2.686   5.377   5.556  0.0961 -1.9747 -0.3255
13874TIP3    H263038   2.596   5.271   5.616 -1.5790  0.2150  1.1851
13875TIP3   OH263039   5.761   2.641   2.888  0.5749  0.7206 -0.6630
13875TIP3    H163040   5.791   2.714   2.835  0.4567  0.5024 -1.0326
13875TIP3    H263041   5.831   2.576   2.883  0.6184  0.7492 -0.4501
13876TIP3   OH263042   4.931   6.714   0.199 -0.3536  0.0539  0.3010
13876TIP3    H163043   4.860   6.779   0.193 -1.1704 -0.9246 -1.5414
13876TIP3    H263044   4.947   6.705   0.293 -0.2309  2.8453  0.6508
13877TIP3   OH263045   3.510   0.995   4.197  0.7788  0.1292 -0.1141
13877TIP3    H163046   3.509   0.998   4.292  1.0063 -0.6742 -0.0844
13877TIP3    H263047   3.495   0.903   4.175 -0.8412  0.5291 -0.8812
13878TIP3   OH263048   3.821   5.510  13.107  0.0827 -0.3208  0.7183
13878TIP3    H163049   3.894   5.545  13.159  1.5122 -3.1940  0.8532
13878TIP3    H263050   3.861   5.485  13.024 -1.4584  0.9163 -0.4610
13879TIP3   OH263051   4.910   0.736   4.148 -0.1886 -0.4164 -0.4585
13879TIP3    H163052   4.852   0.786   4.206 -0.6332 -1.7571  0.2711
13879TIP3    H263053   4.903   0.782   4.064 -2.0194 -0.3056 -0.2837
13880TIP3   OH263054   2.936   0.949  12.597 -0.1219  0.5583  0.2198
13880TIP3    H163055   3.031   0.954  12.608  0.0466  2.3434 -1.5109
13880TIP3    H263056   2.905   1.039  12.609 -1.5540  0.0625  0.4463
13881TIP3   OH263057   1.772   0.868   5.556 -0.9581 -0.6703 -0.1535
13881TIP3    H163058   1.710   0.850   5.627 -0.9848  1.8044  0.5303
13881TIP3    H263059   1.787   0.962   5.561  2.8244 -1.1333 -0.3468
13882TIP3   OH263060   4.982   4.544   1.096  0.5690 -0.0001 -0.4364
13882TIP3    H163061   4.953   4.625   1.055  0.6512  0.8620  1.1119
13882TIP3    H263062   4.908   4.485   1.086  0.1861  0.5345 -0.8619
13883TIP3   OH263063   2.595   3.202   2.778 -0.5530 -0.6420 -0.2286
13883TIP3    H163064   2.553   3.260   2.842 -2.4624 -1.9326 -0.2433
13883TIP3    H263065   2.640   3.137   2.831 -1.2236 -1.0761 -0.1793
13884TIP3   OH263066   4.083   1.277  16.490 -0.2583 -0.0971  0.5036
13884TIP3    H163067   4.172   1.243  16.499 -0.1769 -0.1944 -0.5566
13884TIP3    H263068   4.031   1.227  16.552  0.0893 -1.3026 -0.1589
13885TIP3   OH263069   4.407   4.550  10.744  0.0518 -0.0692 -0.0871
13885TIP3    H163070   4.372   4.613  10.680 -0.1092 -2.5844 -2.7078
13885TIP3    H263071   4.488   4.590  10.775 -0.0276  1.4414 -1.6474
13886TIP3   OH263072   1.218   0.131  11.773  0.1630  0.1786  0.2965
13886TIP3    H163073   1.218   0.164  11.863 -0.1873 -2.2026  1.2403
13886TIP3    H263074   1.289   0.067  11.772 -0.0429 -0.0394 -1.0477
13887TIP3   OH263075   0.654   5.892   1.284 -0.0782  0.0371 -0.0037
13887TIP3    H163076   0.559   5.903   1.290 -0.3856 -0.2516 -2.8195
13887TIP3    H263077   0.688   5.981   1.279 -0.0618  0.1738  1.9621
13888TIP3   OH263078   4.370   3.434  16.695 -0.8253  0.1704 -0.3673
13888TIP3    H163079   4.439   3.451  16.758 -1.8891 -0.1095  0.9065
13888TIP3    H263080   4.289   3.450  16.743 -1.6680 -0.2014 -1.6150
13889TIP3   OH263081   4.626   4.901   4.796 -0.5307 -0.2650  0.7325
13889TIP3    H163082   4.554   4.952   4.833 -1.0087 -0.9995  0.8350
13889TIP3    H263083   4.598   4.810   4.805 -0.0128 -0.5155 -0.1225
13890TIP3   OH263084   6.159   0.783  14.725 -0.7661  0.3776  0.0150
13890TIP3    H163085   6.087   0.793  14.663 -0.9138  1.7787  0.4000
13890TIP3    H263086   6.124   0.728  14.795 -0.7124 -0.9054 -0.9356
13891TIP3   OH263087   1.566   5.029   0.065 -0.3655  0.6050 -0.3967
13891TIP3    H163088   1.602   4.996  -0.018  1.7593  1.1359  0.2538
13891TIP3    H263089   1.519   4.954   0.102 -1.1451  0.2935 -1.9408
13892TIP3   OH263090   0.210   6.279  13.854 -0.3240 -0.4617 -0.0169
13892TIP3    H163091   0.267   6.249  13.925 -0.7789 -0.9926  0.1321
13892TIP3    H263092   0.141   6.330  13.898 -0.2414 -0.2332 -0.1474
13893TIP3   OH263093   1.609   0.935   5.023 -0.4759 -0.0820  0.1463
13893TIP3    H163094   1.674   0.865   5.021  0.9130  1.1475  0.3504
13893TIP3    H263095   1.595   0.952   5.116 -1.5281 -0.7166  0.1120
13894TIP3   OH263096   5.749   4.002   5.740 -0.2158  0.1850  0.5259
13894TIP3    H163097   5.692   3.992   5.664  0.7780 -0.2900 -0.1917
13894TIP3    H263098   5.752   3.915   5.780 -0.3416  0.3146  0.8210
13895TIP3   OH263099   1.144   0.313   2.131  0.3947 -0.1795  0.2835
13895TIP3    H163100   1.236   0.287   2.131  1.3468  2.7646  1.3341
13895TIP3    H263101   1.106   0.264   2.203  0.2715 -3.7161 -1.9757
13896TIP3   OH263102   0.979   2.149   3.662  0.2556 -0.6283 -0.6913
13896TIP3    H163103   0.985   2.224   3.604 -0.6488  2.2271  2.5881
13896TIP3    H263104   0.903   2.100   3.630  2.0614 -1.5138 -4.1255
13897TIP3   OH263105   2.418   0.644  11.235  0.0079 -0.4840  0.5650
13897TIP3    H163106   2.483   0.700  11.277 -1.0398  0.2111  1.3367
13897TIP3    H263107   2.373   0.702  11.174 -0.0844 -0.8697  0.2685
13898TIP3   OH263108   3.278   0.109   4.537  0.0379 -0.1523 -0.7745
13898TIP3    H163109   3.338   0.104   4.611  0.4051 -1.3300 -1.1141
13898TIP3    H263110   3.313   0.180   4.483  0.4473 -0.0559 -0.3899
13899TIP3   OH263111   2.157   1.742   2.053  0.5258  0.2928 -0.5091
13899TIP3    H163112   2.132   1.799   2.127 -2.2614 -0.2578 -0.9237
13899TIP3    H263113   2.146   1.797   1.976  3.4036  0.8543 -0.5916
13900TIP3   OH263114   3.368   3.624  12.846  1.1814 -0.3567 -0.5525
13900TIP3    H163115   3.370   3.557  12.914  1.7342 -0.5235 -0.7353
13900TIP3    H263116   3.457   3.626  12.811  1.0149  0.0518 -0.9576
13901TIP3   OH263117   3.372   3.272   0.780  0.5441 -0.7375  0.3476
13901TIP3    H163118   3.411   3.221   0.709  1.2041  1.2441 -0.7976
13901TIP3    H263119   3.282   3.239   0.788  1.1359 -2.4704  0.1081
13902TIP3   OH263120   1.601   0.440  11.445  0.1337 -0.0345  0.0307
13902TIP3    H163121   1.606   0.451  11.350 -1.0404 -0.1202 -0.0635
13902TIP3    H263122   1.676   0.489  11.479  0.3650  0.2960 -0.9231
13903TIP3   OH263123   2.357   2.441   4.557  0.2878 -0.1670 -0.5211
13903TIP3    H163124   2.334   2.446   4.650  2.3368 -3.1428  0.2899
13903TIP3    H263125   2.374   2.532   4.532 -1.3852  0.8537  1.6472
13904TIP3   OH263126   6.480   0.369   0.164  0.5846 -0.3321  0.1571
13904TIP3    H163127   6.406   0.384   0.222 -0.8171 -0.6380 -1.4739
13904TIP3    H263128   6.520   0.455   0.153 -0.2055  0.0454  0.1835
13905TIP3   OH263129   3.446   5.093   2.213 -0.0192  0.1494 -0.7622
13905TIP3    H163130   3.456   5.074   2.306 -0.6208  0.0814 -0.7029
13905TIP3    H263131   3.480   5.181   2.202  0.6691 -0.0878 -0.6045
13906TIP3   OH263132   6.778   3.963  15.036  0.7367  0.6125 -0.7777
13906TIP3    H163133   6.813   4.002  15.116 -1.3672  0.7891  0.1312
13906TIP3    H263134   6.738   4.037  14.989  0.0398  0.1747 -0.8960
13907TIP3   OH263135   1.144   0.556   4.841  0.0359  0.1804  0.2553
13907TIP3    H163136   1.094   0.484   4.879 -2.5335  1.8545  0.3109
13907TIP3    H263137   1.084   0.596   4.779  1.7437  1.6823 -0.5106
13908TIP3   OH263138   6.799   0.332   1.204  0.1846  0.0978  0.0982
13908TIP3    H163139   6.710   0.300   1.216  0.0125  0.0224 -1.1944
13908TIP3    H263140   6.808   0.402   1.268 -0.5020 -0.4654  0.8320
13909TIP3   OH263141   1.751   2.534   6.250 -0.3961  0.1378  0.3442
13909TIP3    H163142   1.777   2.613   6.202  1.3570  0.0887  1.1541
13909TIP3    H263143   1.728   2.566   6.337  0.4277 -0.2569  0.7094
13910TIP3   OH263144   0.979   2.614   5.474  0.2296 -0.1914  0.1979
13910TIP3    H163145   0.966   2.709   5.469  1.1916 -0.0794 -3.4099
13910TIP3    H263146   1.074   2.604   5.484 -0.1149 -0.9441  4.7474
13911TIP3   OH263147   4.192   1.478  13.078  0.4262  0.3120  0.4266
13911TIP3    H163148   4.108   1.473  13.124  0.2342  0.9860  0.1699
13911TIP3    H263149   4.254   1.433  13.136 -0.2819 -0.9786  0.2000
13912TIP3   OH263150   4.240   4.010   4.517  0.2769  0.3286 -0.0121
13912TIP3    H163151   4.197   4.014   4.432  0.2930 -1.9471 -0.2038
13912TIP3    H263152   4.219   4.093   4.560 -3.7649 -0.3176 -0.3367
13913TIP3   OH263153   3.425   0.499   2.603 -0.2886  0.6219  0.5809
13913TIP3    H163154   3.420   0.486   2.508 -0.7670 -0.6908  0.7587
13913TIP3    H263155   3.333   0.504   2.630 -0.1718  3.0605  0.7634
13914TIP3   OH263156   5.940   2.151   2.833 -0.0022  0.0527  0.0083
13914TIP3    H163157   5.945   2.243   2.856  1.1345  0.0120  0.0122
13914TIP3    H263158   6.030   2.119   2.843 -0.2958 -0.9539 -0.4019
13915TIP3   OH263159   4.713   0.121   5.541 -0.6814  0.2754 -0.6664
13915TIP3    H163160   4.693   0.072   5.461 -2.2480  0.2468 -0.3002
13915TIP3    H263161   4.635   0.175   5.555 -0.2947  0.5134  0.6683
13916TIP3   OH263162   6.445   2.191  12.281  0.2133  0.1018 -0.1741
13916TIP3    H163163   6.519   2.183  12.340 -0.7362 -0.6984  0.9599
13916TIP3    H263164   6.420   2.283  12.286 -0.7446 -0.2169  1.8503
13917TIP3   OH263165   1.346   0.454   3.001 -0.0076 -0.5195 -0.4735
13917TIP3    H163166   1.348   0.360   2.982  1.3272 -0.7779  0.7821
13917TIP3    H263167   1.435   0.484   2.981 -0.5592  0.6069 -1.3607
13918TIP3   OH263168   1.629   6.062  16.561  0.0246 -0.4223  0.5258
13918TIP3    H163169   1.538   6.090  16.572  0.4707  0.6507  1.7123
13918TIP3    H263170   1.648   6.080  16.469 -0.5698  0.5947  0.5802
13919TIP3   OH263171   1.736   6.306   5.363  0.1755  0.3650  0.6223
13919TIP3    H163172   1.660   6.363   5.345  1.3901  1.3533 -1.9122
13919TIP3    H263173   1.731   6.239   5.295  2.8639  1.9091 -1.2811
13920TIP3   OH263174   3.733   2.861   0.067  0.0756  0.0785 -1.1140
13920TIP3    H163175   3.698   2.942   0.031  0.7486  2.0724  2.1928
13920TIP3    H263176   3.664   2.829   0.125  1.6600  1.3801  1.7109
13921TIP3   OH263177   3.831   4.584   2.687  0.3912 -0.1679 -1.0384
13921TIP3    H163178   3.901   4.561   2.625 -0.0594  2.9589 -2.9466
13921TIP3    H263179   3.755   4.601   2.632 -0.4262  1.4720  0.4964
13922TIP3   OH263180   5.320   0.933   2.379  0.6789  0.3093 -0.8506
13922TIP3    H163181   5.255   0.992   2.341  0.6907  1.1914  0.4568
13922TIP3    H263182   5.401   0.953   2.332  0.5596  0.9346 -0.7938
13923TIP3   OH263183   0.042   5.912  14.859 -0.6783  0.0103  0.0656
13923TIP3    H163184  -0.053   5.926  14.860 -0.6264  0.3943  0.5933
13923TIP3    H263185   0.059   5.863  14.779 -1.4036 -0.6529  0.3049
13924TIP3   OH263186   1.858   3.021   5.552  0.5429 -0.1144 -0.2654
13924TIP3    H163187   1.926   3.073   5.509 -1.6381  0.6092 -3.1509
13924TIP3    H263188   1.782   3.078   5.555 -0.6176 -1.6333  0.8236
13925TIP3   OH263189   2.818   3.929   2.768 -0.4204 -0.1392  0.0453
13925TIP3    H163190   2.738   3.978   2.749 -1.4020 -0.5643  2.6629
13925TIP3    H263191   2.857   3.975   2.843  0.1731 -1.6822  0.7247
13926TIP3   OH263192   3.975   3.854  15.877  0.0860  0.2951  0.4606
13926TIP3    H163193   3.947   3.944  15.889  1.4672  0.8840 -0.4192
13926TIP3    H263194   4.059   3.849  15.924  1.4441  0.3361 -1.8058
13927TIP3   OH263195   5.830   0.318   4.982 -0.5515 -0.0913 -0.3691
13927TIP3    H163196   5.903   0.361   4.939 -0.0768 -0.7264 -0.2176
13927TIP3    H263197   5.759   0.381   4.978  0.3319  1.0143  0.5104
13928TIP3   OH263198   0.294   4.928   6.056  0.5297  0.2164 -0.7081
13928TIP3    H163199   0.373   4.891   6.016  2.0903  0.2326  2.1620
13928TIP3    H263200   0.310   5.023   6.056 -0.0927  0.3320 -1.2191
13929TIP3   OH263201   3.292   4.580   2.120  0.5752 -0.0363 -0.2111
13929TIP3    H163202   3.340   4.589   2.037 -0.9807  1.1094 -1.0512
13929TIP3    H263203   3.274   4.670   2.147 -0.4712 -0.4198  0.4323
13930TIP3   OH263204   6.679   1.533   1.671 -0.4157 -0.2545 -0.0368
13930TIP3    H163205   6.729   1.519   1.751 -1.7784 -0.2452  0.8550
13930TIP3    H263206   6.689   1.450   1.623 -2.4286 -1.6882  1.8091
13931TIP3   OH263207   0.540   0.259   2.855 -0.5428  0.4918 -0.4114
13931TIP3    H163208   0.572   0.311   2.781  0.9583 -0.4834 -0.4897
13931TIP3    H263209   0.450   0.235   2.830  0.6326 -1.7739 -3.0922
13932TIP3   OH263210   3.684   2.380   0.927 -0.8830 -0.1064  0.1186
13932TIP3    H163211   3.633   2.359   0.849 -0.0069 -4.7197  0.4874
13932TIP3    H263212   3.770   2.407   0.894 -1.4900  1.1734 -0.4591
13933TIP3   OH263213   2.149   1.218   5.436  0.2745 -0.6000 -0.2175
13933TIP3    H163214   2.147   1.289   5.500  0.4544 -1.0772  0.3262
13933TIP3    H263215   2.093   1.248   5.364 -2.9594 -1.5100  1.7055
13934TIP3   OH263216   3.539   0.638   2.789 -0.2722  0.4221 -0.1406
13934TIP3    H163217   3.586   0.687   2.721 -2.1079  1.9360 -0.3845
13934TIP3    H263218   3.521   0.553   2.748  2.4169 -0.3384  0.0652
13935TIP3   OH263219   5.608   0.560   4.974 -0.0158 -0.1273  0.0021
13935TIP3    H163220   5.525   0.606   4.982  0.1102  0.3722 -1.3240
13935TIP3    H263221   5.664   0.599   5.041 -0.2755  0.8523 -0.3339
13936TIP3   OH263222   4.480   3.785   5.433 -0.3237 -0.7279 -0.0670
13936TIP3    H163223   4.560   3.733   5.423  0.2671  0.2560 -0.5420
13936TIP3    H263224   4.486   3.822   5.521  0.5888  0.7036 -0.7008
13937TIP3   OH263225   5.877   0.602   0.715 -0.2003  0.5692 -0.0817
13937TIP3    H163226   5.962   0.645   0.715 -0.4660  1.0999  0.0279
13937TIP3    H263227   5.819   0.664   0.670 -0.1052 -0.6385 -2.0239
13938TIP3   OH263228   6.445   5.708   5.055  0.1223  0.0409 -0.4430
13938TIP3    H163229   6.517   5.673   5.002  0.2528  0.5088 -0.5796
13938TIP3    H263230   6.487   5.744   5.133 -0.2192 -2.3534  0.9514
13939TIP3   OH263231   3.937   6.137  16.149 -0.3599  0.1141  0.1263
13939TIP3    H163232   3.884   6.120  16.072  1.0301 -1.4184 -0.5396
13939TIP3    H263233   3.960   6.230  16.143  0.0591 -0.0733 -1.5312
13940TIP3   OH263234   6.402   1.843  11.097 -0.1102 -0.0484  0.3906
13940TIP3    H163235   6.454   1.899  11.039  0.9685  0.5270  1.8461
13940TIP3    H263236   6.466   1.787  11.141 -1.0269 -1.3591  0.1311
13941TIP3   OH263237   5.022   2.102   0.769  0.4856 -0.2898 -0.3632
13941TIP3    H163238   4.942   2.079   0.723 -0.8804  1.3495  1.0505
13941TIP3    H263239   5.082   2.130   0.700 -1.5758  2.3752 -1.2371
13942TIP3   OH263240   3.507   6.022  12.470  0.0566  0.4988 -0.1701
13942TIP3    H163241   3.413   6.034  12.460  0.1480  2.6560  0.8474
13942TIP3    H263242   3.543   6.035  12.383 -0.5998 -0.6345 -0.6187
13943TIP3   OH263243   1.487   3.318  11.790 -0.2394 -0.1814 -0.0281
13943TIP3    H163244   1.467   3.225  11.776 -0.5383  0.1469 -2.0391
13943TIP3    H263245   1.403   3.358  11.812  0.0270 -0.4766  1.7513
13944TIP3   OH263246   6.764   5.189  15.499  0.3895 -0.3511 -0.5259
13944TIP3    H163247   6.741   5.244  15.574  1.2519 -1.5552  0.6790
13944TIP3    H263248   6.686   5.190  15.444  0.2633  1.7840 -0.3953
13945TIP3   OH263249   6.378   4.538  13.567 -0.3709 -0.0926  0.1643
13945TIP3    H163250   6.367   4.445  13.586  0.5590 -0.5819 -1.4859
13945TIP3    H263251   6.302   4.560  13.512  0.2572 -0.3185 -0.8188
13946TIP3   OH263252   2.446   0.373   2.446 -0.3853 -0.1698  0.3013
13946TIP3    H163253   2.527   0.326   2.424  0.2293  1.6667 -1.7744
13946TIP3    H263254   2.475   0.462   2.466 -1.9287  0.8763 -1.7328
13947TIP3   OH263255   0.768   2.579  16.832 -0.7283  0.1919 -0.2740
13947TIP3    H163256   0.704   2.628  16.883  0.1432 -0.0269  1.0690
13947TIP3    H263257   0.832   2.645  16.804 -0.1683  0.0161  0.5694
13948TIP3   OH263258   2.143   5.004  12.650 -0.3779 -0.0608 -0.8275
13948TIP3    H163259   2.112   5.066  12.716  0.2098 -1.1773  0.5493
13948TIP3    H263260   2.070   4.943  12.637  0.0164 -0.7077 -0.0887
13949TIP3   OH263261   2.538   4.570   2.338  0.7161  0.4273  0.3879
13949TIP3    H163262   2.552   4.603   2.250 -3.0787  0.7947 -0.2421
13949TIP3    H263263   2.584   4.487   2.340  0.4832  0.1546 -2.1639
13950TIP3   OH263264   5.387   1.822  16.967 -0.3702  0.3569 -0.5421
13950TIP3    H163265   5.476   1.840  16.998 -1.5667  0.4299  3.4385
13950TIP3    H263266   5.368   1.894  16.907  1.9662  0.7410 -0.9344
13951TIP3   OH263267   0.376   3.468  13.677  0.5296 -0.4207 -0.1700
13951TIP3    H163268   0.284   3.493  13.688  0.3764 -1.9161  2.9998
13951TIP3    H263269   0.373   3.383  13.634  0.5645  0.3134 -1.6749
13952TIP3   OH263270   6.025   0.812  13.004 -0.8972 -0.5271  0.8148
13952TIP3    H163271   6.083   0.739  12.981 -0.0568  0.6839 -1.1854
13952TIP3    H263272   6.023   0.812  13.100  0.8707 -1.7848  0.9067
13953TIP3   OH263273   5.072   5.665   3.791 -0.4379 -0.3926  0.4674
13953TIP3    H163274   5.108   5.660   3.879 -0.4000 -1.5885  0.3965
13953TIP3    H263275   5.070   5.759   3.771 -0.2618 -0.1240  1.6543
13954TIP3   OH263276   2.908   1.493   1.416  0.5343 -0.1262 -0.1459
13954TIP3    H163277   2.878   1.495   1.325  1.9309 -0.3959 -0.6368
13954TIP3    H263278   2.907   1.400   1.440  0.9473 -0.1372 -0.1642
13955TIP3   OH263279   6.709   5.697  14.434 -0.0357  0.7126  0.1407
13955TIP3    H163280   6.626   5.734  14.405 -0.6074  1.6598  2.6802
13955TIP3    H263281   6.692   5.603  14.439 -1.7635  1.0510  2.6367
13956TIP3   OH263282   1.349   4.845  12.917 -0.4992 -0.0633 -0.0534
13956TIP3    H163283   1.430   4.872  12.959 -1.0171  0.1675  0.8091
13956TIP3    H263284   1.280   4.889  12.966 -1.0729  1.3699 -2.0196
13957TIP3   OH263285   2.117   3.737  16.561 -0.4738  0.3534  0.3231
13957TIP3    H163286   2.076   3.652  16.579 -1.0425  0.7620  1.0003
13957TIP3    H263287   2.074   3.767  16.481 -0.3385  0.0555  0.1327
13958TIP3   OH263288   5.500   4.704  11.749  0.4473 -0.2851  0.3540
13958TIP3    H163289   5.565   4.653  11.797  0.3138  0.2401  1.1265
13958TIP3    H263290   5.547   4.784  11.723  0.1641  0.0217  0.7723
13959TIP3   OH263291   1.489   5.735   1.827  0.3494 -0.0649  0.1769
13959TIP3    H163292   1.572   5.783   1.821 -0.3222  0.9830 -1.4543
13959TIP3    H263293   1.444   5.774   1.902  0.0775  1.4884 -0.7528
13960TIP3   OH263294   6.782   6.405   5.150  0.7640  0.3112 -0.4581
13960TIP3    H163295   6.730   6.483   5.129  0.0170  0.4708  1.8059
13960TIP3    H263296   6.717   6.339   5.173  1.4905 -0.0998  0.4440
13961TIP3   OH263297   2.182   2.928   3.030 -0.0795  0.0804  0.2302
13961TIP3    H163298   2.258   2.976   2.997 -0.6581  2.2094  1.8350
13961TIP3    H263299   2.206   2.836   3.020  1.6257  0.6618 -1.7052
13962TIP3   OH263300   1.791   6.564  13.252  0.3515  0.3797  0.0369
13962TIP3    H163301   1.830   6.564  13.165  0.9401  1.5862  0.2709
13962TIP3    H263302   1.814   6.650  13.288 -1.5090  0.6682  0.6512
13963TIP3   OH263303   3.580   5.477  17.035  0.0258 -0.0363 -0.6802
13963TIP3    H163304   3.638   5.422  17.088  1.0612  0.7657 -0.9453
13963TIP3    H263305   3.639   5.524  16.976 -0.7742  1.8030 -0.0599
13964TIP3   OH263306   2.437   2.786   5.403  0.3974 -0.4851 -0.0845
13964TIP3    H163307   2.448   2.826   5.317  2.2169 -0.7122  0.0004
13964TIP3    H263308   2.392   2.852   5.455 -1.1901 -0.5427 -1.3317
13965TIP3   OH263309   3.646   5.881  15.733  0.5748  1.1089  0.1953
13965TIP3    H163310   3.678   5.850  15.648 -0.2235  1.2963 -0.1790
13965TIP3    H263311   3.719   5.932  15.768  0.2174  2.7530 -1.2953
13966TIP3   OH263312   6.716   1.584   5.613 -0.6054 -0.6307 -0.6375
13966TIP3    H163313   6.744   1.645   5.545 -1.3705  1.3961  0.7881
13966TIP3    H263314   6.629   1.555   5.584 -1.2579  0.8081 -0.2242
13967TIP3   OH263315   3.783   0.731  13.968  0.0426 -0.1198  0.2977
13967TIP3    H163316   3.688   0.744  13.961 -0.1358 -1.7599 -0.8092
13967TIP3    H263317   3.804   0.759  14.058 -1.2908  1.1981  0.2485
13968TIP3   OH263318   5.445   1.089  16.778  0.7226 -0.2207 -0.1956
13968TIP3    H163319   5.446   1.162  16.717  0.8295 -0.8810 -1.0007
13968TIP3    H263320   5.421   1.128  16.862  1.3487  0.8232 -0.4877
13969TIP3   OH263321   6.508   4.492  15.185 -0.0639 -0.3494  0.5461
13969TIP3    H163322   6.413   4.479  15.190  0.0237 -0.7512  1.2585
13969TIP3    H263323   6.544   4.430  15.247  0.7779 -1.2779 -0.8293
13970TIP3   OH263324   0.765   5.394   3.700  0.0492 -0.7442  0.2658
13970TIP3    H163325   0.725   5.336   3.765 -0.8210  0.0787  0.4807
13970TIP3    H263326   0.849   5.352   3.679  0.5982 -0.7800  2.2879
13971TIP3   OH263327   5.128   4.206   2.351  0.1758  0.6281 -0.4885
13971TIP3    H163328   5.151   4.260   2.275  3.4652 -0.6664 -0.5988
13971TIP3    H263329   5.091   4.126   2.315 -0.7422  1.0851 -0.5665
13972TIP3   OH263330   2.829   3.742  14.194 -0.1559 -0.9627 -0.2613
13972TIP3    H163331   2.861   3.722  14.282  2.0452  1.8373 -0.2467
13972TIP3    H263332   2.879   3.684  14.137  0.7092 -0.6778  0.1785
13973TIP3   OH263333   0.268   3.563   5.727 -0.1201  0.1228  0.1555
13973TIP3    H163334   0.301   3.503   5.794 -2.3407 -1.6679 -0.2494
13973TIP3    H263335   0.189   3.601   5.765  0.5598  1.9330 -0.1005
13974TIP3   OH263336   5.815   1.535   1.777  0.3275 -0.7122 -0.3305
13974TIP3    H163337   5.862   1.508   1.698  0.8646 -0.4357 -0.1084
13974TIP3    H263338   5.863   1.493   1.849  0.6880  0.1688 -0.0405
13975TIP3   OH263339   0.233   4.555   6.510 -0.4067  0.3145  0.0954
13975TIP3    H163340   0.189   4.638   6.491 -2.3202 -0.7914 -0.6212
13975TIP3    H263341   0.281   4.572   6.591  0.3077  2.4623 -0.6977
13976TIP3   OH263342   1.062   0.795   0.882 -0.5270 -0.7790 -0.2493
13976TIP3    H163343   1.156   0.784   0.869 -0.3972 -0.7458  0.5935
13976TIP3    H263344   1.041   0.878   0.840  0.3165  0.5131  1.7389
13977TIP3   OH263345   3.287   4.297   4.974 -0.1378  0.1447  0.2771
13977TIP3    H163346   3.371   4.296   4.928 -0.3496 -1.7023 -0.1541
13977TIP3    H263347   3.239   4.370   4.936 -0.1275 -1.0293 -2.1213
13978TIP3   OH263348   1.133   3.850   1.509  0.3681  0.7666 -0.5158
13978TIP3    H163349   1.121   3.847   1.414  0.5057  1.0961 -0.5484
13978TIP3    H263350   1.055   3.894   1.542  0.4850  0.9741 -0.5131
13979TIP3   OH263351   5.865   5.811   3.277  0.2033  0.4143  0.4944
13979TIP3    H163352   5.856   5.731   3.328 -0.2876 -2.3476 -3.4275
13979TIP3    H263353   5.774   5.838   3.258  0.3600  0.7176  0.1586
13980TIP3   OH263354   0.732   5.322   0.531  0.1202 -0.5500 -0.4122
13980TIP3    H163355   0.669   5.268   0.580 -0.0723  0.5980  0.6678
13980TIP3    H263356   0.708   5.309   0.440 -2.2564  0.4433 -0.0094
13981TIP3   OH263357   1.627   6.686   6.968  0.0355  0.0104  0.2831
13981TIP3    H163358   1.571   6.735   6.908 -0.9073 -0.6371  0.6181
13981TIP3    H263359   1.685   6.752   7.007  0.5185  0.4750 -1.1559
13982TIP3   OH263360   0.393   4.302  16.741 -0.1117 -0.2904  0.2970
13982TIP3    H163361   0.354   4.358  16.674 -0.2465 -0.2101  0.4428
13982TIP3    H263362   0.441   4.363  16.798 -0.9468 -0.2220  0.9413
13983TIP3   OH263363   2.666   4.234  15.468  0.0693  0.1265 -0.2626
13983TIP3    H163364   2.590   4.267  15.516  0.2007  1.1754 -0.7582
13983TIP3    H263365   2.637   4.231  15.376  0.4711  0.0605 -0.3912
13984TIP3   OH263366   5.736   6.189  15.603 -0.2793  0.0719 -0.3170
13984TIP3    H163367   5.749   6.099  15.573  1.7149  0.5439 -1.0138
13984TIP3    H263368   5.811   6.206  15.660 -1.4141  0.8415  1.0092
13985TIP3   OH263369   2.400   1.226  16.017 -0.1527 -0.2772  0.2247
13985TIP3    H163370   2.493   1.223  16.042 -0.1286  1.0442  0.3857
13985TIP3    H263371   2.402   1.240  15.922 -0.2020 -1.2061  0.0842
13986TIP3   OH263372   6.707   4.459  14.195  0.3667 -0.5133  0.4579
13986TIP3    H163373   6.645   4.417  14.255 -0.6925  1.3419  0.7119
13986TIP3    H263374   6.653   4.494  14.125  1.2544  0.2080  0.1188
13987TIP3   OH263375   4.385   1.593  14.835 -0.1603  0.1264 -0.7515
13987TIP3    H163376   4.352   1.671  14.879  0.7969  0.5748 -0.7837
13987TIP3    H263377   4.386   1.525  14.902 -2.7624 -0.4344 -1.1599
13988TIP3   OH263378   4.849   5.195  15.524  0.8321  0.7104  0.1001
13988TIP3    H163379   4.801   5.265  15.569  1.1553 -0.1585  1.9014
13988TIP3    H263380   4.902   5.241  15.458 -1.2512  1.8231 -0.8940
13989TIP3   OH263381   6.007   6.250   3.654  0.2618  0.3752 -0.0290
13989TIP3    H163382   6.007   6.188   3.727  0.7276  0.5485  0.1212
13989TIP3    H263383   6.043   6.331   3.691  2.0853 -0.0109 -0.8295
13990TIP3   OH263384   6.495   3.557  16.233  0.1537  0.0485  0.0099
13990TIP3    H163385   6.588   3.535  16.225 -0.0758 -0.7121 -0.7249
13990TIP3    H263386   6.478   3.556  16.327  0.2315 -2.7812  0.0803
13991TIP3   OH263387   2.136   4.365  16.519 -0.5190  0.1988  0.2773
13991TIP3    H163388   2.122   4.376  16.613  0.5482  1.6860  0.2952
13991TIP3    H263389   2.103   4.446  16.480  0.6959  0.3822 -0.4261
13992TIP3   OH263390   4.923   6.781   1.785 -0.9094 -0.4646  0.2091
13992TIP3    H163391   4.900   6.727   1.710 -1.6773 -0.0945  0.1631
13992TIP3    H263392   5.017   6.796   1.776 -1.2837  1.2579 -1.8411
13993TIP3   OH263393   4.829   2.147  14.666  0.2551  0.0929 -0.1059
13993TIP3    H163394   4.899   2.092  14.632  1.3775  0.3778  1.6057
13993TIP3    H263395   4.851   2.235  14.636 -1.5910 -0.2732 -2.9247
13994TIP3   OH263396   2.456   1.903   1.325  0.4414 -0.3162  0.5230
13994TIP3    H163397   2.474   1.859   1.243  0.6262 -0.4426  0.6307
13994TIP3    H263398   2.536   1.951   1.345  0.9869 -1.5760  1.4447
13995TIP3   OH263399   4.038   0.690   0.022  0.5823  0.0740  0.0513
13995TIP3    H163400   4.103   0.619   0.028 -0.5555 -0.9943  0.0501
13995TIP3    H263401   3.985   0.667  -0.054  1.4387  2.0453 -1.2259
13996TIP3   OH263402   2.078   3.894   5.924  0.2273  0.6578  0.0995
13996TIP3    H163403   2.068   3.973   5.977  0.5769  1.2950 -0.7658
13996TIP3    H263404   2.157   3.852   5.957  0.4305  1.0410  0.1071
13997TIP3   OH263405   3.996   4.062  14.804  0.3722 -0.7112 -0.0736
13997TIP3    H163406   3.937   4.125  14.846  0.1239 -0.1813 -1.1574
13997TIP3    H263407   4.006   3.991  14.867 -1.4686 -0.8356  0.1369
13998TIP3   OH263408   4.620   3.580  11.404 -0.0848 -0.1657 -0.6908
13998TIP3    H163409   4.549   3.615  11.457 -0.9904 -1.4257 -1.0356
13998TIP3    H263410   4.694   3.638  11.422 -0.4854 -0.2627  1.5980
13999TIP3   OH263411   3.034   4.945  12.958 -0.0736  0.2778  0.2526
13999TIP3    H163412   3.007   4.914  12.872 -0.3984  0.6998  0.2013
13999TIP3    H263413   2.983   4.893  13.020 -1.3055  1.3187  0.1530
14000TIP3   OH263414   3.122   1.066  16.023 -0.3217 -0.3953  0.7835
14000TIP3    H163415   3.207   1.045  16.061  0.4997  1.3049 -0.0073
14000TIP3    H263416   3.124   1.161  16.011 -0.8748 -0.6732 -2.5551
14001TIP3   OH263417   3.016   1.849   4.424  0.2303  0.1380 -0.2319
14001TIP3    H163418   2.935   1.810   4.457  0.0527  1.9662  1.7749
14001TIP3    H263419   2.992   1.886   4.339 -0.6676 -0.5157 -0.2801
14002TIP3   OH263420   1.392   0.242   0.897 -1.0102 -0.1470  0.0189
14002TIP3    H163421   1.427   0.306   0.958 -0.7165  1.2127 -1.4936
14002TIP3    H263422   1.338   0.185   0.950 -1.8226  1.7588  1.3484
14003TIP3   OH263423   3.081   1.781   0.476 -0.2639  0.3236 -0.3821
14003TIP3    H163424   3.061   1.694   0.442 -1.0634  0.3340  0.0482
14003TIP3    H263425   2.999   1.829   0.468 -0.2934  0.5320  0.9121
14004TIP3   OH263426   0.914   0.601   6.332  0.4362 -0.2921  0.3368
14004TIP3    H163427   0.986   0.542   6.353 -0.3263 -1.4448 -0.2035
14004TIP3    H263428   0.872   0.618   6.416 -0.3398 -1.8734  0.2957
14005TIP3   OH263429   0.722   6.605  12.792 -0.1206  0.6104 -0.2827
14005TIP3    H163430   0.645   6.569  12.835 -0.6731  0.8251 -1.0675
14005TIP3    H263431   0.761   6.663  12.857 -1.3756  1.5313 -0.3096
14006TIP3   OH263432   2.814   4.199  10.505  0.5563  0.1676  0.4158
14006TIP3    H163433   2.740   4.178  10.561 -0.2977  0.2781 -0.6412
14006TIP3    H263434   2.781   4.265  10.444  1.4946  0.1596 -0.1302
14007TIP3   OH263435   4.510   2.234  10.196 -0.3051 -0.1738 -0.1873
14007TIP3    H163436   4.574   2.268  10.132 -1.7370  1.3035 -0.9182
14007TIP3    H263437   4.425   2.254  10.157 -1.2313 -1.0296  1.3114
14008TIP3   OH263438   5.069   3.090  16.464 -0.4003  0.2209 -0.4916
14008TIP3    H163439   5.106   3.056  16.545 -0.4492  1.0969 -0.0844
14008TIP3    H263440   5.143   3.129  16.418 -0.5953  0.9395 -0.2176
14009TIP3   OH263441   0.091   4.969  15.823  0.1105 -0.4543  0.2939
14009TIP3    H163442   0.008   4.979  15.778  0.3829  0.1784 -0.0786
14009TIP3    H263443   0.073   4.908  15.895 -0.2958 -1.6098 -0.7536
14010TIP3   OH263444   5.667   5.600  11.967 -0.2865 -0.6491 -0.4874
14010TIP3    H163445   5.733   5.553  12.018  0.8594  1.9912  0.6704
14010TIP3    H263446   5.587   5.591  12.018  0.0488 -0.8855  0.0051
14011TIP3   OH263447   5.489   4.904   2.422 -0.7089  0.1222  0.2956
14011TIP3    H163448   5.505   4.945   2.336  1.6174 -0.3148  0.4722
14011TIP3    H263449   5.478   4.978   2.482  0.8189  0.4927  0.1476
14012TIP3   OH263450   0.297   3.172   3.517  0.5848  0.0031  0.2380
14012TIP3    H163451   0.213   3.135   3.489  0.8698  0.7717 -1.8346
14012TIP3    H263452   0.361   3.103   3.499  0.5973 -0.0051  0.3146
14013TIP3   OH263453   4.663   1.212   3.263  0.0083  0.3555 -0.3776
14013TIP3    H163454   4.631   1.165   3.340 -0.1623 -0.9817 -1.2249
14013TIP3    H263455   4.640   1.304   3.279  3.3262  0.8423  2.9042
14014TIP3   OH263456   5.327   6.284   3.686  0.1779 -0.0433  0.4379
14014TIP3    H163457   5.365   6.208   3.730  0.3805 -0.4219 -0.3639
14014TIP3    H263458   5.384   6.298   3.610  0.8939  1.6962  1.2323
14015TIP3   OH263459   3.599   0.557   2.348 -0.4783 -0.1780  0.9041
14015TIP3    H163460   3.531   0.499   2.313 -1.0703  0.4270  1.0278
14015TIP3    H263461   3.551   0.621   2.401 -0.0792  1.6739 -0.8512
14016TIP3   OH263462   0.858   1.682  11.747 -0.1427 -0.2048 -0.1789
14016TIP3    H163463   0.799   1.733  11.693 -1.9366  0.9707  2.6601
14016TIP3    H263464   0.804   1.612  11.783  0.8771 -0.7470  0.3382
14017TIP3   OH263465   0.327   5.182   3.074 -0.2424 -0.0889  0.1574
14017TIP3    H163466   0.362   5.220   3.155 -0.7986  0.5356  0.1089
14017TIP3    H263467   0.321   5.088   3.093 -0.7360  0.1008  0.9850
14018TIP3   OH263468   4.512   6.374   4.056  0.0807 -0.4430  0.2378
14018TIP3    H163469   4.504   6.280   4.074  1.2345 -0.1790  2.5381
14018TIP3    H263470   4.451   6.415   4.118  0.2016  0.3764 -0.1760
14019TIP3   OH263471   1.787   6.108   2.770 -0.3235 -0.7181  0.6120
14019TIP3    H163472   1.712   6.048   2.767  0.0904 -1.1958 -0.9019
14019TIP3    H263473   1.828   6.101   2.684 -0.8460  2.5038 -0.0542
14020TIP3   OH263474   3.568   0.123  16.934  0.1326 -0.0917  0.2432
14020TIP3    H163475   3.662   0.121  16.915  0.4258  0.7071  1.4779
14020TIP3    H263476   3.527   0.090  16.854  1.4660 -0.6252 -0.2558
14021TIP3   OH263477   4.220   2.068   4.366  0.7416 -0.1821  0.6721
14021TIP3    H163478   4.283   2.034   4.302  1.1029 -0.0893  0.9750
14021TIP3    H263479   4.137   2.072   4.318  0.7147 -1.3822  0.6009
14022TIP3   OH263480   6.654   4.500  12.646  0.4542 -0.2133 -0.1657
14022TIP3    H163481   6.675   4.482  12.555  0.9600  1.6092 -0.4560
14022TIP3    H263482   6.721   4.562  12.674  0.2122 -0.6030  1.4132
14023TIP3   OH263483   2.725   5.668   1.656 -0.4724 -0.3358 -0.0887
14023TIP3    H163484   2.642   5.672   1.609 -1.2198 -1.5111  1.0478
14023TIP3    H263485   2.703   5.624   1.738  0.7543  1.7029  1.4075
14024TIP3   OH263486   3.231   2.159  14.761  0.4392 -0.1507 -0.0297
14024TIP3    H163487   3.196   2.072  14.777 -0.4942  0.4320  1.2608
14024TIP3    H263488   3.279   2.181  14.841  0.5949  0.5546 -0.3085
14025TIP3   OH263489   4.189   0.371   5.571  0.1546 -0.1942  0.8620
14025TIP3    H163490   4.179   0.413   5.656 -0.0411 -0.8124  1.1505
14025TIP3    H263491   4.238   0.290   5.590 -2.3137 -1.7946  0.8544
14026TIP3   OH263492   5.134   0.358   1.182  0.0331  0.0380 -0.5085
14026TIP3    H163493   5.197   0.286   1.186  0.8619  0.6143 -2.2029
14026TIP3    H263494   5.170   0.426   1.239 -0.3588 -0.5554  0.4807
14027TIP3   OH263495   1.141   4.538   5.636 -0.1130  0.5577  0.1630
14027TIP3    H163496   1.154   4.542   5.731 -0.2928  1.5338  0.1507
14027TIP3    H263497   1.071   4.600   5.619 -1.5684 -1.1760 -0.3636
14028TIP3   OH263498   6.755   0.820   3.387  0.4813 -0.3445  0.5076
14028TIP3    H163499   6.758   0.914   3.407 -0.1283 -0.5700  1.7434
14028TIP3    H263500   6.755   0.816   3.291 -2.5725  1.0706  0.3356
14029TIP3   OH263501   4.700   1.238   1.810  0.4292  0.0730 -0.0405
14029TIP3    H163502   4.748   1.313   1.846  0.7832 -0.3187  0.3177
14029TIP3    H263503   4.631   1.220   1.875  0.2468  0.1904 -0.2032
14030TIP3   OH263504   3.990   4.852   3.905  0.3961 -0.2283 -1.0786
14030TIP3    H163505   3.935   4.921   3.941 -0.7421 -1.2455 -0.8071
14030TIP3    H263506   4.052   4.897   3.848  1.5631  1.3212  1.2749
14031TIP3   OH263507   4.317   0.772  12.520  0.1232  0.5223  0.3622
14031TIP3    H163508   4.408   0.793  12.542 -0.1418  1.4231  0.6298
14031TIP3    H263509   4.300   0.820  12.439 -0.2996  0.8546  0.6441
14032TIP3   OH263510   5.852   2.460  15.511  0.7765  0.5019 -0.0390
14032TIP3    H163511   5.849   2.369  15.540  1.5616  0.6455  0.5109
14032TIP3    H263512   5.847   2.454  15.415  0.4299 -0.0961  0.0088
14033TIP3   OH263513   3.800   4.415   3.533  0.4506  0.2314 -0.4552
14033TIP3    H163514   3.807   4.325   3.502 -0.3864 -0.1368  0.3998
14033TIP3    H263515   3.801   4.408   3.628 -0.9849  1.0072 -0.3663
14034TIP3   OH263516   4.809   2.546  13.745 -0.0453 -0.1962 -0.2877
14034TIP3    H163517   4.858   2.471  13.709  1.7063  1.5465 -1.7596
14034TIP3    H263518   4.740   2.562  13.681 -0.9175 -0.9925  0.4268
14035TIP3   OH263519   6.330   1.844   0.352  0.8365  0.8975 -0.4454
14035TIP3    H163520   6.338   1.937   0.329  0.2273  0.7419 -1.3221
14035TIP3    H263521   6.378   1.836   0.434 -0.3651  2.2925  0.4454
14036TIP3   OH263522   3.389   1.691   4.699  0.1705 -0.3224  0.6013
14036TIP3    H163523   3.390   1.596   4.706  1.1632 -0.2384  2.0714
14036TIP3    H263524   3.315   1.719   4.752  0.5130 -0.2306  1.0339
14037TIP3   OH263525   3.014   1.492  13.846 -0.0767  0.3531  0.0498
14037TIP3    H163526   3.107   1.486  13.822 -0.3061  2.2066 -1.5577
14037TIP3    H263527   2.968   1.494  13.762 -1.4740  0.6742  0.8014
14038TIP3   OH263528   6.780   3.658   4.046 -0.5119 -0.7773 -0.7378
14038TIP3    H163529   6.785   3.570   4.009  0.1578 -2.0066  2.0126
14038TIP3    H263530   6.838   3.655   4.122 -2.4791  1.2305  0.9832
14039TIP3   OH263531   4.686   0.226  14.472 -0.6779 -0.4235 -0.4970
14039TIP3    H163532   4.666   0.165  14.543 -0.9361 -0.7136 -0.8160
14039TIP3    H263533   4.616   0.290  14.474 -1.2399 -1.0090 -1.1324
14040TIP3   OH263534   3.059   5.950   0.812  0.0919  0.0061  0.1050
14040TIP3    H163535   3.105   6.016   0.865  0.1124 -1.8697  2.5659
14040TIP3    H263536   3.109   5.947   0.731  3.1274 -0.3785  1.8250
14041TIP3   OH263537   3.244   5.434  13.395 -0.2987 -0.0177  0.0179
14041TIP3    H163538   3.186   5.509  13.386  0.8877  1.0810  1.1523
14041TIP3    H263539   3.295   5.433  13.314 -1.3535 -0.5624 -0.6693
14042TIP3   OH263540   2.747   4.259   3.343 -0.5676  0.1516  0.1877
14042TIP3    H163541   2.803   4.188   3.372 -1.4842  0.0504  1.9003
14042TIP3    H263542   2.666   4.216   3.314 -0.4905  0.3998 -0.4075
14043TIP3   OH263543   3.443   4.200   2.810  0.1323 -0.5017 -0.0666
14043TIP3    H163544   3.349   4.182   2.803  0.0732  0.0131 -0.6249
14043TIP3    H263545   3.449   4.295   2.816  0.7811 -0.2426 -3.2707
14044TIP3   OH263546   3.429   2.930   0.859  0.2591  0.0950  0.1868
14044TIP3    H163547   3.359   2.995   0.855 -0.3247 -0.2842  2.6481
14044TIP3    H263548   3.469   2.932   0.772 -1.1345  2.1720 -0.4746
14045TIP3   OH263549   4.214   4.997   0.285  0.0099  0.2775 -0.5405
14045TIP3    H163550   4.159   5.004   0.364  0.2123 -0.2130 -0.3474
14045TIP3    H263551   4.252   5.084   0.274  1.9571 -0.2243  1.3718
14046TIP3   OH263552   4.023   6.243  15.683  0.2840  0.0580  0.0593
14046TIP3    H163553   3.932   6.228  15.660  0.3168 -0.1297  0.0510
14046TIP3    H263554   4.024   6.329  15.725  0.4699  1.2328 -2.2060
14047TIP3   OH263555   5.581   6.072  11.352  0.2439  0.7956  0.2962
14047TIP3    H163556   5.608   5.981  11.359 -0.1212  0.7018  0.4876
14047TIP3    H263557   5.653   6.121  11.392  2.3090  0.9173 -3.1069
14048TIP3   OH263558   2.281   2.398  13.424  0.2151 -0.1590  0.0009
14048TIP3    H163559   2.309   2.472  13.477 -0.3720  0.5923 -0.7077
14048TIP3    H263560   2.262   2.436  13.338 -0.4674 -1.0640 -0.2636
14049TIP3   OH263561   3.853   5.910   3.307  0.1375  0.4985 -0.1001
14049TIP3    H163562   3.790   5.905   3.379 -0.0101 -0.7863 -0.2783
14049TIP3    H263563   3.920   5.846   3.330  0.1784  0.2012 -1.0085
14050TIP3   OH263564   6.160   4.100   2.923  0.2491 -0.5513  0.0369
14050TIP3    H163565   6.160   4.080   2.830 -1.1983 -0.2421 -0.0618
14050TIP3    H263566   6.195   4.021   2.965  1.8999 -0.2962 -0.8112
14051TIP3   OH263567   1.573   0.380   0.641  0.0500  0.4621 -0.2220
14051TIP3    H163568   1.562   0.439   0.567  0.3223  0.1914 -0.4815
14051TIP3    H263569   1.507   0.311   0.626 -1.3938  1.5258  0.9273
14052TIP3   OH263570   4.041   5.964   5.048 -0.3356 -0.3124 -0.1582
14052TIP3    H163571   3.990   5.896   5.090 -1.4089  0.5013 -0.0998
14052TIP3    H263572   4.046   6.034   5.113 -1.4280  0.6777 -1.1083
14053TIP3   OH263573   4.348   2.873   5.489 -0.0670 -0.6565  0.0967
14053TIP3    H163574   4.285   2.887   5.560 -2.5247  0.3502 -2.0928
14053TIP3    H263575   4.401   2.953   5.488 -0.7272 -0.2108  0.1641
14054TIP3   OH263576   5.975   3.094  11.707 -0.5957  0.3713  0.0221
14054TIP3    H163577   5.989   3.050  11.791 -0.1922  0.1439 -0.1592
14054TIP3    H263578   6.014   3.181  11.718 -0.6622  0.3887  0.1161
14055TIP3   OH263579   6.318   5.948   3.052  0.1072  0.2849 -0.4041
14055TIP3    H163580   6.273   5.981   2.974 -1.4944  3.0267  1.5109
14055TIP3    H263581   6.252   5.894   3.097  0.9158 -1.0239 -0.7420
14056TIP3   OH263582   0.042   5.973   2.082  0.2630 -0.0359 -0.3333
14056TIP3    H163583   0.046   6.044   2.146 -0.4231  0.3173 -0.6750
14056TIP3    H263584  -0.036   5.924   2.105  0.1376 -0.0399 -0.7579
14057TIP3   OH263585   0.361   5.624   3.809  0.3886  0.2572 -0.3293
14057TIP3    H163586   0.321   5.705   3.839  2.2679  0.7629  1.0012
14057TIP3    H263587   0.380   5.640   3.716 -2.1570  0.0614 -0.9599
14058TIP3   OH263588   1.574   3.057   0.270 -0.0769 -0.1192 -0.0737
14058TIP3    H163589   1.601   3.124   0.208  0.3782 -0.3151 -0.0862
14058TIP3    H263590   1.506   3.099   0.323  1.0391  0.7247  0.7023
14059TIP3   OH263591   2.308   0.091   4.157  0.1749 -0.4278  0.3246
14059TIP3    H163592   2.242   0.147   4.198  0.3535  0.2356 -0.2791
14059TIP3    H263593   2.258   0.022   4.114 -0.0860 -0.2979  0.4206
14060TIP3   OH263594   0.954   2.550  16.416 -0.2534  0.7695  0.4190
14060TIP3    H163595   1.002   2.509  16.344  1.0128  1.7438  0.6769
14060TIP3    H263596   0.972   2.494  16.491  1.8365  1.9554  0.8690
14061TIP3   OH263597   2.667   2.497   2.935 -0.1925  0.0638  0.0180
14061TIP3    H163598   2.604   2.503   3.006 -1.3048 -1.6382 -0.7408
14061TIP3    H263599   2.749   2.471   2.977  0.1875  2.7090  1.0654
14062TIP3   OH263600   0.102   1.043  14.694  0.6754 -0.5771 -0.1234
14062TIP3    H163601   0.055   1.115  14.737 -0.2180 -1.9539  1.3082
14062TIP3    H263602   0.037   1.004  14.635  1.2883  0.0348 -1.2291
14063TIP3   OH263603   3.532   6.081   4.614 -0.5223  0.0061  0.3821
14063TIP3    H163604   3.608   6.140   4.616  1.7667 -2.5951 -1.7870
14063TIP3    H263605   3.502   6.078   4.705  1.8304  1.3577  1.3103
14064TIP3   OH263606   2.138   6.692   5.800  0.0406 -0.3377 -0.1257
14064TIP3    H163607   2.206   6.632   5.832  0.0649  0.0057  0.4748
14064TIP3    H263608   2.113   6.656   5.715  1.8068  0.1901 -0.9015
14065TIP3   OH263609   0.498   1.875  16.889  0.6136 -0.7941  0.4739
14065TIP3    H163610   0.569   1.829  16.935  2.0244  1.4750  0.7517
14065TIP3    H263611   0.541   1.918  16.815 -0.3008  1.1074  0.9650
14066TIP3   OH263612   2.598   6.275  13.805  0.0197  0.6511 -0.2773
14066TIP3    H163613   2.682   6.314  13.830 -0.1009  0.2162  0.8768
14066TIP3    H263614   2.537   6.308  13.871  0.1463 -2.4484  1.5776
14067TIP3   OH263615   6.790   4.569   4.000  0.0322  0.0651 -0.1891
14067TIP3    H163616   6.704   4.613   3.997 -0.4868 -0.8871  0.2812
14067TIP3    H263617   6.770   4.481   4.031  1.1683 -0.2360 -0.2960
14068TIP3   OH263618   0.315   3.076  15.793  0.4275 -0.4595  0.2689
14068TIP3    H163619   0.259   3.130  15.850  1.2527  0.5454  0.1635
14068TIP3    H263620   0.382   3.042  15.852  0.4392 -0.6128  0.1648
14069TIP3   OH263621   0.725   6.641  13.201 -0.5988 -0.0962 -0.6597
14069TIP3    H163622   0.797   6.671  13.146 -1.4475  0.6624 -1.3702
14069TIP3    H263623   0.756   6.557  13.237  1.0849  0.7501 -0.0296
14070TIP3   OH263624   3.791   3.085   2.148  0.1970 -0.1833 -0.4333
14070TIP3    H163625   3.839   3.033   2.213 -0.4017 -1.1739 -0.7748
14070TIP3    H263626   3.761   3.161   2.197  0.5517 -0.4520  0.2251
14071TIP3   OH263627   5.670   0.843  16.376 -0.0699  0.2107  0.3778
14071TIP3    H163628   5.715   0.885  16.303 -0.8440  1.5897  0.6603
14071TIP3    H263629   5.729   0.772  16.402  2.0920  2.0266  0.8487
14072TIP3   OH263630   3.816   4.556   6.432  0.2589 -0.5541 -0.3325
14072TIP3    H163631   3.768   4.485   6.390  0.6420 -1.5465  0.8692
14072TIP3    H263632   3.833   4.525   6.521  0.0350  1.2165  0.3741
14073TIP3   OH263633   1.146   0.226   1.688  0.0074 -0.3566  0.5188
14073TIP3    H163634   1.130   0.154   1.626 -0.6498 -0.5360  0.8906
14073TIP3    H263635   1.238   0.248   1.675 -0.9966  2.6646 -3.8654
14074TIP3   OH263636   5.101   2.196  11.418 -0.6140  0.4837 -0.4344
14074TIP3    H163637   5.149   2.231  11.342  1.1318  0.8209  0.7552
14074TIP3    H263638   5.059   2.272  11.457 -2.2188  0.1837 -1.4923
14075TIP3   OH263639   5.574   0.299  15.095  0.7903  0.2259 -0.0372
14075TIP3    H163640   5.595   0.306  15.002 -0.1221  0.8682 -0.2094
14075TIP3    H263641   5.479   0.313  15.100  0.3302 -2.5210  0.6977
14076TIP3   OH263642   3.148   0.774   4.859  0.2583  0.7063 -0.7212
14076TIP3    H163643   3.090   0.830   4.910 -0.2469  1.1004 -1.6861
14076TIP3    H263644   3.132   0.686   4.892  0.4754  1.0322  0.2759
14077TIP3   OH263645   6.135   6.172   4.029 -0.0512  0.0276  0.0772
14077TIP3    H163646   6.074   6.100   4.012  0.2634 -0.3889  0.6659
14077TIP3    H263647   6.124   6.231   3.955 -0.9977 -0.1567  0.0624
14078TIP3   OH263648   2.858   6.685  12.336 -0.5677  0.0335  0.6217
14078TIP3    H163649   2.815   6.629  12.272  1.5231 -1.2803  0.2444
14078TIP3    H263650   2.800   6.685  12.412 -1.3368 -1.4524  0.0747
14079TIP3   OH263651   6.669   1.018   2.575  0.4900 -0.1016 -0.0933
14079TIP3    H163652   6.631   0.974   2.651 -0.1716 -0.3527 -0.5571
14079TIP3    H263653   6.759   0.986   2.571  0.6486  0.2138  0.8068
14080TIP3   OH263654   6.204   4.036  12.698  0.2082 -0.2184 -0.6252
14080TIP3    H163655   6.126   4.079  12.733  1.5663  1.6100  0.3332
14080TIP3    H263656   6.271   4.104  12.699  1.6526 -1.5364 -2.0965
14081TIP3   OH263657   2.527   4.591  12.548  0.4088 -0.1332 -0.2797
14081TIP3    H163658   2.462   4.558  12.487  2.0459 -0.9844 -1.6558
14081TIP3    H263659   2.557   4.673  12.509  0.2043  0.2402  0.3300
14082TIP3   OH263660   3.989   2.940   0.548  0.1470 -0.1688  0.3088
14082TIP3    H163661   3.967   3.023   0.505  1.2894  0.4870  0.9340
14082TIP3    H263662   3.963   2.953   0.639  2.9847  0.6846  1.1129
14083TIP3   OH263663   5.875   2.970  12.806  0.2351  0.0986 -0.2394
14083TIP3    H163664   5.829   3.016  12.735  0.9003  0.8670 -0.1928
14083TIP3    H263665   5.954   2.934  12.764  0.0411 -0.4564 -0.1351
14084TIP3   OH263666   6.409   2.821  15.960 -0.4254 -0.3452  0.1815
14084TIP3    H163667   6.325   2.791  15.926 -0.3679 -1.7617  1.2247
14084TIP3    H263668   6.392   2.911  15.988 -1.4053 -0.3813 -0.2586
14085TIP3   OH263669   5.683   6.434  12.541 -0.0970 -0.3930 -0.1999
14085TIP3    H163670   5.621   6.424  12.613 -1.4776 -1.6621 -1.5057
14085TIP3    H263671   5.743   6.361  12.551  0.1243 -0.1812  0.0396
14086TIP3   OH263672   6.698   2.491   1.714 -0.5227 -0.2517  0.0974
14086TIP3    H163673   6.617   2.542   1.705 -0.5449 -0.4335 -0.8285
14086TIP3    H263674   6.754   2.545   1.769 -1.1404  0.0381  0.4613
14087TIP3   OH263675   6.369   4.008   6.083  0.5281  0.5531 -0.2318
14087TIP3    H163676   6.406   4.076   6.139  1.9288  0.1485 -0.6229
14087TIP3    H263677   6.423   4.009   6.005  0.9397 -1.3599 -0.0314
14088TIP3   OH263678   5.058   2.225   5.906  0.0451 -0.0492  0.1076
14088TIP3    H163679   5.045   2.132   5.924 -1.8439 -0.0793 -1.1770
14088TIP3    H263680   5.124   2.226   5.836 -1.7791 -0.6321 -1.7163
14089TIP3   OH263681   5.258   5.383   1.106 -0.3993 -0.1284  0.5164
14089TIP3    H163682   5.220   5.370   1.019  0.7494 -1.8404  0.2208
14089TIP3    H263683   5.200   5.334   1.165  0.0530 -0.8429  0.3809
14090TIP3   OH263684   5.569   6.150  15.077 -0.2124  0.6551 -0.4495
14090TIP3    H163685   5.529   6.220  15.026 -1.4182  0.5703  0.3546
14090TIP3    H263686   5.629   6.195  15.137  0.9880  0.7764 -1.6750
14091TIP3   OH263687   1.732   0.250  13.020 -0.3457 -0.4739  0.6859
14091TIP3    H163688   1.709   0.171  12.972  0.3239  0.7444 -1.8486
14091TIP3    H263689   1.811   0.227  13.069 -0.5471 -1.5582  0.5129
14092TIP3   OH263690   0.775   6.681  15.684 -0.0726  0.2093 -0.2451
14092TIP3    H163691   0.810   6.598  15.717 -0.9585 -0.0236  0.1583
14092TIP3    H263692   0.709   6.655  15.619  0.0242  0.6113 -0.5070
14093TIP3   OH263693   3.521   6.648  15.559  0.0912 -0.5890 -0.1245
14093TIP3    H163694   3.602   6.613  15.596 -0.0648 -1.3428 -0.4690
14093TIP3    H263695   3.474   6.684  15.634  1.2752  0.9694 -0.0832
14094TIP3   OH263696   2.228   4.033  14.466  0.2037  0.3520  0.1692
14094TIP3    H163697   2.240   4.106  14.527 -2.6935 -1.1114  2.7551
14094TIP3    H263698   2.248   3.955  14.517  1.0941 -0.8294 -1.8719
14095TIP3   OH263699   3.723   1.785   1.215  0.4360 -0.4814  0.0014
14095TIP3    H163700   3.689   1.802   1.127  0.5568  0.3937  0.1142
14095TIP3    H263701   3.669   1.840   1.272  1.1153 -0.1571  0.3406
14096TIP3   OH263702   3.737   4.149  15.420 -0.4410 -0.1251 -0.4903
14096TIP3    H163703   3.783   4.231  15.439 -0.5682 -0.0749 -0.3883
14096TIP3    H263704   3.769   4.087  15.485 -0.8513  0.0376 -0.1244
14097TIP3   OH263705   2.105   6.110   3.464  0.1399 -0.2962 -0.2078
14097TIP3    H163706   2.187   6.090   3.419  1.2969  1.0995  1.1750
14097TIP3    H263707   2.129   6.116   3.556 -1.4500  0.5087  0.1884
14098TIP3   OH263708   1.796   2.965  14.008  0.1788 -0.1527  0.1466
14098TIP3    H163709   1.817   2.910  14.083  0.8261 -3.7991 -2.4093
14098TIP3    H263710   1.705   2.990  14.020  0.2807 -0.5959  2.1060
14099TIP3   OH263711   3.721   4.459  14.122 -0.5528 -0.1697  0.2186
14099TIP3    H163712   3.775   4.402  14.176  1.1833  0.1037 -1.1260
14099TIP3    H263713   3.671   4.511  14.184  1.5726  0.3520  1.5984
14100TIP3   OH263714   1.829   2.005   2.260 -0.5660  0.8752 -0.0547
14100TIP3    H163715   1.789   2.025   2.344 -0.8853 -1.7738  0.5161
14100TIP3    H263716   1.756   1.979   2.204 -0.0776 -0.3779 -0.1505
14101TIP3   OH263717   1.126   4.710   1.360 -0.3829 -0.0027  0.0983
14101TIP3    H163718   1.110   4.770   1.287  2.0045  1.2764  0.4891
14101TIP3    H263719   1.101   4.760   1.438  2.5351  1.0485  0.5086
14102TIP3   OH263720   2.534   0.402   5.151 -0.5666 -0.1754 -0.6413
14102TIP3    H163721   2.580   0.337   5.203 -1.1529  0.8340  1.2301
14102TIP3    H263722   2.497   0.353   5.077 -0.0578 -1.7419  0.1110
14103TIP3   OH263723   1.671   3.412   6.217 -0.3679  0.0051  0.3355
14103TIP3    H163724   1.665   3.335   6.160  1.2393  0.3950 -0.4226
14103TIP3    H263725   1.644   3.380   6.303 -1.0312 -1.0608 -0.2421
14104TIP3   OH263726   2.179   4.303   1.550  0.1535 -0.0591 -0.5944
14104TIP3    H163727   2.161   4.352   1.471  0.9696  1.5989  0.1871
14104TIP3    H263728   2.247   4.240   1.525  0.7214  0.7499 -1.1223
14105TIP3   OH263729   2.051   5.147   4.503 -0.4300  0.1406  0.3620
14105TIP3    H163730   2.062   5.123   4.412 -0.4921  0.5257  0.2496
14105TIP3    H263731   2.026   5.240   4.501  0.9524  0.5454  0.8248
14106TIP3   OH263732   4.880   4.860  17.001 -0.2288 -0.1632 -0.2037
14106TIP3    H163733   4.784   4.859  16.992 -0.2031 -1.5295 -0.4726
14106TIP3    H263734   4.912   4.851  16.911  0.2011  2.1389 -0.3339
14107TIP3   OH263735   5.791   6.785   4.450  0.7605 -0.2305 -0.0736
14107TIP3    H163736   5.821   6.839   4.377  1.3322  0.6463  0.7962
14107TIP3    H263737   5.859   6.719   4.460  1.5975  0.7558  0.8322
14108TIP3   OH263738   0.796   0.402  16.899 -0.0385 -0.0740 -0.2978
14108TIP3    H163739   0.741   0.480  16.894  1.9215  1.3136 -1.6784
14108TIP3    H263740   0.862   0.423  16.966 -0.2566 -1.0998  0.2639
14109TIP3   OH263741   0.325   5.076  16.871  0.2637 -0.6419 -0.2344
14109TIP3    H163742   0.416   5.103  16.861  0.2061 -0.6406 -0.7851
14109TIP3    H263743   0.299   5.110  16.957  0.5615 -0.0241 -0.3821
14110TIP3   OH263744   4.876   3.448   5.227 -0.0901  0.0913 -0.2987
14110TIP3    H163745   4.886   3.541   5.208 -0.1212  0.2181  0.2773
14110TIP3    H263746   4.784   3.439   5.255  0.0211 -0.0344  0.0414
14111TIP3   OH263747   6.267   3.732   6.071 -0.8651 -0.0756 -0.0468
14111TIP3    H163748   6.288   3.825   6.079  1.1527 -0.4655 -0.2404
14111TIP3    H263749   6.215   3.712   6.149  1.1733  0.6104  1.5797
14112TIP3   OH263750   2.042   3.693  14.479  0.0949  0.3572  0.4462
14112TIP3    H163751   2.049   3.705  14.384  1.7238 -0.9225  0.3461
14112TIP3    H263752   1.952   3.663  14.493 -0.2584  0.8594 -0.6557
14113TIP3   OH263753   4.062   0.948  12.750  0.5996  0.5610 -0.0974
14113TIP3    H163754   4.033   1.023  12.697 -0.4791 -0.7082 -1.3900
14113TIP3    H263755   4.155   0.940  12.730  0.6826  1.4160 -0.1151
14114TIP3   OH263756   1.689   0.309  14.002  0.1012 -0.1009  0.4640
14114TIP3    H163757   1.783   0.318  14.014  0.3204 -2.1583  0.5596
14114TIP3    H263758   1.657   0.271  14.084 -0.4875 -1.2431 -0.2554
14115TIP3   OH263759   1.451   1.646   4.405  0.1968 -0.1762 -0.2697
14115TIP3    H163760   1.367   1.661   4.447 -0.2229 -0.8697 -0.8437
14115TIP3    H263761   1.497   1.729   4.413 -0.4741  0.1586  0.1942
14116TIP3   OH263762   1.357   2.790  15.050 -0.2294  0.1733 -0.4596
14116TIP3    H163763   1.387   2.798  15.141  2.0443 -2.3446 -0.8481
14116TIP3    H263764   1.412   2.852  15.002  0.8659 -0.8019 -0.4987
14117TIP3   OH263765   5.716   0.353  14.769  0.0522  0.3212 -0.1437
14117TIP3    H163766   5.766   0.313  14.841 -0.3457 -1.5003 -0.8201
14117TIP3    H263767   5.633   0.306  14.770 -1.2910  2.5795  0.2815
14118TIP3   OH263768   2.271   2.677  13.570  0.1163 -0.0560  0.6395
14118TIP3    H163769   2.237   2.766  13.584  1.4516  0.7890 -1.1068
14118TIP3    H263770   2.305   2.651  13.656 -1.0891  0.7427  1.3951
14119TIP3   OH263771   1.575   2.099  15.618 -0.5343  0.5453 -0.5561
14119TIP3    H163772   1.623   2.061  15.692  1.0285 -0.9776 -2.2484
14119TIP3    H263773   1.618   2.183  15.602 -0.5244  0.6317 -0.0948
14120TIP3   OH263774   2.966   5.778  11.426  0.3672 -0.1239 -0.2808
14120TIP3    H163775   2.902   5.825  11.372 -2.4489 -0.0930  2.7846
14120TIP3    H263776   2.996   5.707  11.370 -2.2620 -0.0549 -1.9759
14121TIP3   OH263777   5.820   3.363   1.985  0.4878  0.4929  0.3120
14121TIP3    H163778   5.756   3.378   1.916 -0.1257 -0.2944  0.6904
14121TIP3    H263779   5.881   3.437   1.978  0.5331  0.3512 -1.1538
14122TIP3   OH263780   3.014   6.174   3.020 -0.2650  0.3559 -0.1711
14122TIP3    H163781   2.997   6.251   2.964 -0.5890 -0.0017 -0.5696
14122TIP3    H263782   3.109   6.167   3.021 -0.2628 -0.6736 -2.1462
14123TIP3   OH263783   3.898   4.960   5.684 -0.5067 -0.2002 -0.0264
14123TIP3    H163784   3.879   4.876   5.726 -1.0437  0.0812  0.3171
14123TIP3    H263785   3.881   5.025   5.753 -0.9255  0.2427 -0.5417
14124TIP3   OH263786   2.934   2.050   6.334 -0.0673  0.2651  0.0892
14124TIP3    H163787   2.992   2.126   6.347  1.3260 -0.5729 -0.9390
14124TIP3    H263788   2.847   2.089   6.320  0.4470  1.6233  0.4465
14125TIP3   OH263789   5.025   6.085   0.045 -0.0991 -0.3667 -0.5529
14125TIP3    H163790   5.063   6.164   0.084  0.5827 -1.3536  0.8829
14125TIP3    H263791   4.931   6.098   0.052 -0.0196 -0.6568  1.8880
14126TIP3   OH263792   2.059   0.249   6.887 -0.6657  0.1571 -0.9188
14126TIP3    H163793   2.077   0.329   6.839  0.6815 -1.3349 -3.1242
14126TIP3    H263794   2.018   0.191   6.822 -1.7467 -0.9005  0.6286
14127TIP3   OH263795   1.223   3.947  17.119  0.2669  0.1911  0.4309
14127TIP3    H163796   1.239   3.969  17.027  0.8087  0.6240  0.6271
14127TIP3    H263797   1.140   3.989  17.140 -0.4441 -0.8535 -0.1756
14128TIP3   OH263798   1.039   0.208   3.937 -0.3492 -0.3443  0.6138
14128TIP3    H163799   0.992   0.127   3.916 -0.8367 -0.4127  1.8936
14128TIP3    H263800   1.073   0.238   3.853 -1.2384 -1.2017 -0.0814
14129TIP3   OH263801   0.679   4.189   0.921  0.9806  0.3456  0.1278
14129TIP3    H163802   0.750   4.179   0.857 -1.1142 -0.6451 -2.1777
14129TIP3    H263803   0.677   4.283   0.938  1.7643  0.6219 -1.1047
14130TIP3   OH263804   4.564   4.418  16.132  0.8125  0.1808  0.0204
14130TIP3    H163805   4.490   4.467  16.168  0.3672 -0.0745 -0.5360
14130TIP3    H263806   4.639   4.477  16.141  0.6652  0.2175  1.1350
14131TIP3   OH263807   5.630   4.554  13.137 -0.8991  0.1857 -0.2638
14131TIP3    H163808   5.652   4.526  13.226 -0.0122  3.7598  0.7990
14131TIP3    H263809   5.542   4.518  13.122 -0.7901 -1.0734  1.7847
14132TIP3   OH263810   3.083   3.664  15.636 -0.2017 -0.0714  0.2311
14132TIP3    H163811   3.033   3.703  15.708  0.2504  1.5892 -0.2985
14132TIP3    H263812   3.028   3.678  15.559  0.8873  1.5270 -0.3113
14133TIP3   OH263813   0.978   6.772   6.059  0.2977  0.0447 -0.2379
14133TIP3    H163814   0.939   6.815   6.135 -0.2531  0.0015 -0.4897
14133TIP3    H263815   0.944   6.821   5.984  2.5792  1.5362 -0.3983
14134TIP3   OH263816   0.625   2.352   2.160 -0.0673  0.0459  0.0402
14134TIP3    H163817   0.545   2.390   2.123 -1.1496 -1.5456  0.6274
14134TIP3    H263818   0.599   2.321   2.246  1.4504  0.3205  0.6252
14135TIP3   OH263819   0.316   1.958  11.206  0.1623 -0.3472 -0.3061
14135TIP3    H163820   0.275   2.045  11.202 -2.2731 -1.0602  3.5856
14135TIP3    H263821   0.249   1.899  11.170 -0.6459 -1.0768  2.1930
14136TIP3   OH263822   2.337   2.825   1.984  0.1954  0.0827 -0.2404
14136TIP3    H163823   2.358   2.756   1.920 -1.0516  0.8290 -1.5016
14136TIP3    H263824   2.242   2.825   1.988  0.2069  1.3195  0.2132
14137TIP3   OH263825   0.102   4.439   6.137 -0.4513  0.0282 -0.0804
14137TIP3    H163826   0.047   4.361   6.143  0.2533 -0.3809  2.2607
14137TIP3    H263827   0.042   4.512   6.154 -0.5141 -0.3230  1.3138
14138TIP3   OH263828   6.729   2.718   2.278 -0.1165 -0.3581 -0.1654
14138TIP3    H163829   6.779   2.759   2.208  0.0490 -0.2696  0.0048
14138TIP3    H263830   6.711   2.789   2.340  0.5999 -0.6388  0.3787
14139TIP3   OH263831   0.830   0.090  16.332 -0.1910 -0.0791  0.8906
14139TIP3    H163832   0.766   0.127  16.393  0.4627 -0.6417  1.9425
14139TIP3    H263833   0.911   0.138  16.351 -0.7878  2.5762 -2.2513
14140TIP3   OH263834   0.089   1.009  13.293  0.0141 -0.1731  0.1343
14140TIP3    H163835   0.087   0.918  13.320 -0.6170  0.1991  1.4088
14140TIP3    H263836  -0.002   1.029  13.269  0.2890 -0.0809 -0.8727
14141TIP3   OH263837   2.802   6.058   5.568  0.0831 -0.1556  0.0484
14141TIP3    H163838   2.729   5.997   5.555 -0.5709  0.4689  0.6906
14141TIP3    H263839   2.774   6.138   5.525  0.5669 -0.0274 -0.0354
14142TIP3   OH263840   4.290   0.590   2.541 -0.2410  0.6624 -0.2203
14142TIP3    H163841   4.356   0.635   2.594 -0.5384  0.7056  0.1187
14142TIP3    H263842   4.328   0.504   2.522  0.2541  0.9803 -0.7156
14143TIP3   OH263843   4.878   6.284   4.572 -0.3617 -0.0059 -0.0508
14143TIP3    H163844   4.848   6.231   4.646 -3.1712  1.6499  0.1432
14143TIP3    H263845   4.843   6.239   4.495 -1.9916  0.9902  0.0576
14144TIP3   OH263846   1.455   5.416   5.097  0.0921 -0.1521  0.1792
14144TIP3    H163847   1.515   5.342   5.102  1.3834  0.8608  0.1613
14144TIP3    H263848   1.372   5.378   5.066  1.1764 -1.3311 -1.4346
14145TIP3   OH263849   5.488   4.064  13.210  0.5291  0.0010 -0.1384
14145TIP3    H163850   5.465   3.977  13.242 -0.2269  0.8646  1.8305
14145TIP3    H263851   5.450   4.069  13.122 -0.4415 -1.2183  0.1969
14146TIP3   OH263852   6.220   3.033   5.376 -0.1950  0.3341 -0.0023
14146TIP3    H163853   6.312   3.058   5.385  0.1503 -0.5436 -0.9294
14146TIP3    H263854   6.197   2.995   5.461  0.7453 -0.8070 -0.2366
14147TIP3   OH263855   4.854   1.839  11.062 -0.0914 -0.2667  0.2362
14147TIP3    H163856   4.930   1.885  11.026  0.5138 -0.5821  1.0797
14147TIP3    H263857   4.866   1.748  11.036 -1.1423 -0.0408 -1.1872
14148TIP3   OH263858   1.490   6.769   4.953 -0.2704  0.4796  0.1036
14148TIP3    H163859   1.548   6.722   5.014  1.8782  2.9815  0.1896
14148TIP3    H263860   1.460   6.845   5.003  0.5161  1.9031 -1.4849
14149TIP3   OH263861   1.776   2.619  14.320 -0.2213 -0.4313 -0.3902
14149TIP3    H163862   1.689   2.625  14.359  0.1173  0.5519  0.2605
14149TIP3    H263863   1.788   2.526  14.303 -1.2957 -0.6123 -0.2571
14150TIP3   OH263864   3.859   4.181  14.128 -0.0487 -0.0795 -0.2235
14150TIP3    H163865   3.907   4.206  14.049  0.9801 -1.2615 -0.0039
14150TIP3    H263866   3.922   4.192  14.199 -0.5547 -0.2898  0.2646
14151TIP3   OH263867   5.694   1.633   2.267 -0.5774 -0.9252  0.2586
14151TIP3    H163868   5.770   1.616   2.323 -0.1722 -0.7717 -0.2345
14151TIP3    H263869   5.618   1.620   2.324 -0.1855 -1.2565  0.7110
14152TIP3   OH263870   2.498   3.042  11.309  0.0756 -0.8097 -0.1247
14152TIP3    H163871   2.466   2.996  11.387  1.3399  1.6595  2.0386
14152TIP3    H263872   2.448   3.124  11.307 -0.6154 -1.2213 -2.5704
14153TIP3   OH263873   3.678   5.033   5.219  0.5947 -0.0972  0.4796
14153TIP3    H163874   3.746   4.973   5.189 -0.1387  0.0495 -1.6808
14153TIP3    H263875   3.708   5.064   5.304  2.1312 -1.7110  0.5718
14154TIP3   OH263876   2.186   3.579  12.874 -0.4349  0.3431 -0.1828
14154TIP3    H163877   2.196   3.664  12.832  0.1717 -0.1802 -1.1282
14154TIP3    H263878   2.112   3.590  12.934 -0.5738  1.4313 -0.5365
14155TIP3   OH263879   0.654   3.222   3.953  0.3321  0.2924  0.2101
14155TIP3    H163880   0.563   3.249   3.963  0.3840  0.1119  1.2707
14155TIP3    H263881   0.661   3.194   3.862 -0.7862 -0.1417  0.2459
14156TIP3   OH263882   4.788   4.162  16.839  0.0329  0.3310 -0.2616
14156TIP3    H163883   4.849   4.120  16.779 -0.8260 -0.0723 -0.8673
14156TIP3    H263884   4.807   4.256  16.830  0.0051  0.2672 -1.0732
14157TIP3   OH263885   0.662   4.437  11.120 -0.0947  0.1530 -0.1903
14157TIP3    H163886   0.693   4.348  11.136 -0.5981 -0.1204 -0.6963
14157TIP3    H263887   0.644   4.472  11.207  1.8405  0.4099  0.1403
14158TIP3   OH263888   3.579   1.416  14.353  0.5788  0.0669  0.2013
14158TIP3    H163889   3.495   1.377  14.379  0.9134 -1.0547 -0.3571
14158TIP3    H263890   3.595   1.483  14.420 -0.2729 -0.3829  0.8880
14159TIP3   OH263891   0.506   2.982   3.798 -0.0338 -0.3149 -0.2737
14159TIP3    H163892   0.572   2.963   3.865 -0.8850  1.9611  1.3249
14159TIP3    H263893   0.545   3.049   3.744  0.4779 -1.8429 -1.8958
14160TIP3   OH263894   6.125   4.926  16.033 -0.4954 -0.1844 -0.4852
14160TIP3    H163895   6.111   4.844  16.080  1.6014 -0.9802 -1.1069
14160TIP3    H263896   6.037   4.958  16.013 -1.3762 -2.0485  0.1762
14161TIP3   OH263897   6.608   4.714  16.681  0.4381  0.5583  0.3383
14161TIP3    H163898   6.654   4.667  16.612 -1.0980  0.2733 -0.5610
14161TIP3    H263899   6.516   4.689  16.668 -0.0414  1.5573  1.6605
14162TIP3   OH263900   6.758   2.017  14.146  0.6645 -0.1746 -0.4258
14162TIP3    H163901   6.726   2.102  14.114 -0.5837 -0.7221 -0.6683
14162TIP3    H263902   6.749   2.023  14.242  3.1341  0.9510 -0.1824
14163TIP3   OH263903   1.369   6.117  11.513 -0.1915  0.0942 -0.0739
14163TIP3    H163904   1.369   6.204  11.551  0.5043  0.9618 -1.9337
14163TIP3    H263905   1.391   6.131  11.421  1.4792 -2.1656 -0.1093
14164TIP3   OH263906   3.674   3.644  13.840  0.3877 -0.3361 -0.4425
14164TIP3    H163907   3.672   3.549  13.828  0.4514 -0.2120 -1.5422
14164TIP3    H263908   3.612   3.677  13.775  0.1776  0.3661  0.1033
14165TIP3   OH263909   6.771   6.025   4.801 -0.3310 -1.3471 -0.0923
14165TIP3    H163910   6.693   6.070   4.771  0.0824  0.0668  0.8213
14165TIP3    H263911   6.844   6.076   4.765  0.1919 -2.5790 -0.8493
14166TIP3   OH263912   2.637   0.281  14.461  0.8240  0.4198 -0.2046
14166TIP3    H163913   2.714   0.270  14.517  1.0112  0.8476 -0.3726
14166TIP3    H263914   2.650   0.366  14.419  0.0682  0.6709  0.0609
14167TIP3   OH263915   5.886   5.000  13.540  0.5197 -0.1760 -0.1988
14167TIP3    H163916   5.918   4.985  13.629  1.2495  2.7138  0.1211
14167TIP3    H263917   5.956   4.965  13.484  0.2673 -1.5888  0.3275
14168TIP3   OH263918   3.214   3.825  14.309  0.4525  0.0469  0.5700
14168TIP3    H163919   3.306   3.798  14.308 -0.1586 -2.2230  0.4476
14168TIP3    H263920   3.180   3.795  14.225 -0.4729  0.6376  0.7270
14169TIP3   OH263921   1.481   1.462  16.268  0.2473  0.1706  0.0566
14169TIP3    H163922   1.418   1.394  16.246 -0.7882  0.7736  1.0403
14169TIP3    H263923   1.487   1.516  16.189 -1.1725  0.6239  0.2379
14170TIP3   OH263924   6.384   2.450  12.224  0.0104 -0.1243 -0.2196
14170TIP3    H163925   6.394   2.545  12.222  0.6018 -0.1907 -1.4919
14170TIP3    H263926   6.297   2.436  12.262  0.0810  0.9002  0.3522
14171TIP3   OH263927   0.770   6.207   1.388 -0.3787 -0.1829  0.1950
14171TIP3    H163928   0.822   6.162   1.322 -2.3168 -2.4353  0.0695
14171TIP3    H263929   0.832   6.229   1.457  0.9051 -1.9370 -0.3337
14172TIP3   OH263930   1.540   2.913  14.401 -0.4505  0.2564 -0.3915
14172TIP3    H163931   1.620   2.950  14.440 -0.5841  1.1547 -0.9246
14172TIP3    H263932   1.488   2.883  14.476  1.3593 -2.5065 -0.1125
14173TIP3   OH263933   4.251   1.363  11.739  0.0019 -0.7690 -0.0962
14173TIP3    H163934   4.273   1.451  11.710 -2.3539 -0.6735 -1.8689
14173TIP3    H263935   4.171   1.374  11.790 -0.2782 -1.8660 -0.2733
14174TIP3   OH263936   4.460   4.730  15.579 -0.3349 -0.2240  0.0381
14174TIP3    H163937   4.392   4.662  15.574  0.3801 -1.0629  1.1456
14174TIP3    H263938   4.453   4.764  15.668 -0.2198  0.6887 -0.2875
14175TIP3   OH263939   0.237   1.129  14.044  0.0418 -0.2238 -0.6733
14175TIP3    H163940   0.167   1.079  14.001 -0.7709  0.0886  0.2325
14175TIP3    H263941   0.252   1.083  14.127 -0.6627  0.9562  0.1355
14176TIP3   OH263942   3.097   6.698   6.900  0.1784 -0.5352  0.6628
14176TIP3    H163943   3.177   6.649   6.881 -0.0224  0.0184 -2.0211
14176TIP3    H263944   3.049   6.699   6.817 -1.8910  0.4692  1.7950
14177TIP3   OH263945   5.301   5.176   3.884  0.2130 -0.3071  0.1956
14177TIP3    H163946   5.321   5.088   3.852  0.1593 -0.0235 -0.6366
14177TIP3    H263947   5.210   5.190   3.860  1.1232  1.2697 -2.8203
14178TIP3   OH263948   2.798   4.225   0.732  0.0948  0.2821  0.8664
14178TIP3    H163949   2.738   4.223   0.658 -0.1695 -0.6648  1.0877
14178TIP3    H263950   2.753   4.275   0.800 -0.6084 -0.7024  1.1505
14179TIP3   OH263951   5.164   0.664   5.824 -0.1081 -0.6752  0.5504
14179TIP3    H163952   5.105   0.725   5.869 -0.2376 -1.6160  1.6792
14179TIP3    H263953   5.145   0.579   5.863  2.5661 -0.8990  1.5345
14180TIP3   OH263954   0.792   4.831   2.369 -0.4271  0.1602  0.2713
14180TIP3    H163955   0.726   4.762   2.369 -0.9897  0.6804 -0.2925
14180TIP3    H263956   0.868   4.792   2.414 -1.4165 -0.1417  1.7375
14181TIP3   OH263957   0.891   6.135   5.357 -0.2204  0.0709  0.0914
14181TIP3    H163958   0.886   6.097   5.269  1.4461 -2.0523  0.8247
14181TIP3    H263959   0.900   6.060   5.415  2.4489  1.4982  1.7280
14182TIP3   OH263960   2.629   4.148  16.231 -0.1459 -0.3992  0.4020
14182TIP3    H163961   2.721   4.143  16.204  0.0613  1.0717  0.7859
14182TIP3    H263962   2.611   4.062  16.268  1.4014 -0.3574  1.3314
14183TIP3   OH263963   1.217   6.396   6.133 -0.1678  0.2516  0.1155
14183TIP3    H163964   1.302   6.388   6.089 -0.0589 -0.8514  0.4952
14183TIP3    H263965   1.234   6.367   6.222 -0.6969  1.1494  0.5212
14184TIP3   OH263966   5.896   6.672   2.621 -0.2581 -0.8701 -0.2338
14184TIP3    H163967   5.900   6.748   2.679  0.8281 -0.8925 -0.2520
14184TIP3    H263968   5.842   6.701   2.548 -2.4502 -1.1540  1.1885
14185TIP3   OH263969   0.139   1.315  16.192  0.2307 -0.2540  0.1725
14185TIP3    H163970   0.213   1.268  16.152 -0.2047 -0.9445  0.1641
14185TIP3    H263971   0.091   1.352  16.118 -0.5410 -1.4804  0.0428
14186TIP3   OH263972   3.475   3.495  11.078 -0.1491  0.5975 -0.3719
14186TIP3    H163973   3.480   3.559  11.007  2.1457  1.5338  0.5264
14186TIP3    H263974   3.441   3.416  11.037 -0.4812  1.5879 -2.1203
14187TIP3   OH263975   6.627   0.266   6.607  0.2907  0.2644  0.0648
14187TIP3    H163976   6.697   0.301   6.552  0.9140 -1.1334 -0.0782
14187TIP3    H263977   6.552   0.323   6.589  1.1976  1.3871 -0.2811
14188TIP3   OH263978   1.320   6.202  11.961 -0.1680  0.5422  0.4115
14188TIP3    H163979   1.290   6.135  11.900  1.2919 -0.0642  0.3178
14188TIP3    H263980   1.352   6.273  11.905  0.2445  0.4103  0.4748
14189TIP3   OH263981   2.626   2.254  14.606  0.1852 -0.2574  0.3713
14189TIP3    H163982   2.599   2.202  14.681  0.8220 -0.3450  0.5445
14189TIP3    H263983   2.720   2.237  14.597  1.0373  2.7172  1.9745
14190TIP3   OH263984   0.603   2.137   2.818  0.2243  0.8454  0.2563
14190TIP3    H163985   0.526   2.154   2.873  0.7289 -0.7778  1.5452
14190TIP3    H263986   0.566   2.106   2.735 -0.5280  2.4653 -0.0599
14191TIP3   OH263987   4.822   0.954  13.414 -0.2699  0.8165  0.5652
14191TIP3    H163988   4.745   0.945  13.471 -1.1840  3.8354 -0.0403
14191TIP3    H263989   4.805   0.895  13.341 -2.2379  1.7209  0.2468
14192TIP3   OH263990   5.971   4.317   5.770 -0.0440  0.6497 -0.0674
14192TIP3    H163991   6.053   4.282   5.806 -1.2971 -0.0111  2.3639
14192TIP3    H263992   5.984   4.412   5.772  1.5465  0.5522 -2.1219
14193TIP3   OH263993   0.001   3.877   0.051  0.4366  0.0280  0.2877
14193TIP3    H163994  -0.044   3.956   0.022 -2.6804 -1.1792  1.3812
14193TIP3    H263995   0.026   3.833  -0.030 -0.9393  0.5097 -0.4448
14194TIP3   OH263996   1.663   2.200  14.001  0.9712 -0.2722  0.1287
14194TIP3    H163997   1.620   2.250  14.071 -0.2591 -0.8370 -0.1981
14194TIP3    H263998   1.692   2.120  14.043 -0.6897 -1.0836 -0.1733
14195TIP3   OH263999   4.440   0.865  14.472 -0.0864  0.1479 -0.0054
14195TIP3    H164000   4.380   0.821  14.533  0.3425 -0.7491 -0.2089
14195TIP3    H264001   4.402   0.952  14.459 -1.6941 -0.6020 -0.6069
14196TIP3   OH264002   0.036   0.351   2.271 -0.4263 -0.5087  0.0255
14196TIP3    H164003  -0.039   0.340   2.213  0.6492 -1.6134 -1.2225
14196TIP3    H264004  -0.000   0.339   2.359 -1.5876 -1.9428 -0.5949
14197TIP3   OH264005   5.432   4.791  12.960  0.2042  0.1156 -0.1810
14197TIP3    H164006   5.386   4.733  13.021  0.9078  0.9904  1.2417
14197TIP3    H264007   5.520   4.798  12.996 -0.0312  2.5800  0.0883
14198TIP3   OH264008   5.401   4.880  16.134  0.2619  0.2973 -0.2299
14198TIP3    H164009   5.459   4.910  16.204  0.9027 -0.3912 -0.4430
14198TIP3    H264010   5.390   4.786  16.151  1.0104 -0.0451 -1.4331
14199TIP3   OH264011   5.268   6.111  14.708 -0.1828 -0.0779  0.0575
14199TIP3    H164012   5.290   6.034  14.655 -1.1288  0.1192 -0.6585
14199TIP3    H264013   5.345   6.167  14.703  0.0379 -0.4210 -0.4619
14200TIP3   OH264014   0.958   4.739   5.712 -0.1223 -0.7957 -0.3136
14200TIP3    H164015   0.919   4.691   5.785  2.4568  1.0864  2.5553
14200TIP3    H264016   0.916   4.824   5.714  0.9321 -0.2572 -0.0439
14201TIP3   OH264017   1.589   0.111  14.928  0.2660 -0.8515 -0.3174
14201TIP3    H164018   1.619   0.196  14.897  0.5445 -1.4749 -1.8408
14201TIP3    H264019   1.508   0.130  14.976  0.0109  0.2055 -1.1287
14202TIP3   OH264020   4.719   0.576  14.858 -0.0323  0.3358 -0.9220
14202TIP3    H164021   4.712   0.588  14.953 -1.7336 -0.5179 -0.8942
14202TIP3    H264022   4.802   0.530  14.846 -0.4026 -0.7193  0.2990
14203TIP3   OH264023   4.616   5.331   1.463  0.4959  0.2046  0.6780
14203TIP3    H164024   4.599   5.239   1.482  1.0518  0.3013  1.6695
14203TIP3    H264025   4.541   5.359   1.410  0.4005 -0.8509  0.2381
14204TIP3   OH264026   5.732   0.903  13.570 -0.3311 -1.0639  0.4962
14204TIP3    H164027   5.692   0.828  13.613  0.7107 -3.0586 -1.7833
14204TIP3    H264028   5.826   0.890  13.579 -0.1136  0.6275  1.0498
14205TIP3   OH264029   2.539   2.683  16.105  0.2513 -0.0753  0.9152
14205TIP3    H164030   2.614   2.717  16.055 -1.1212  0.5888 -0.7811
14205TIP3    H264031   2.547   2.588  16.096  0.2917  0.0167 -0.2146
14206TIP3   OH264032   1.545   1.725   0.533 -0.6229  0.1869  0.3191
14206TIP3    H164033   1.589   1.767   0.607 -0.9733  0.2856  0.4698
14206TIP3    H264034   1.565   1.632   0.544  3.6604  0.5144 -2.2390
14207TIP3   OH264035   3.398   2.637  16.967  0.0109  0.2873 -0.0163
14207TIP3    H164036   3.391   2.622  16.873 -0.4827 -0.2309  0.0950
14207TIP3    H264037   3.430   2.726  16.975  0.3255  0.2431 -0.6787
14208TIP3   OH264038   4.727   1.364   2.889 -0.2857 -0.2881  0.7910
14208TIP3    H164039   4.657   1.299   2.900 -1.1573  0.1307 -1.6801
14208TIP3    H264040   4.758   1.381   2.978 -3.7678 -0.0509  2.1405
14209TIP3   OH264041   1.401   2.732   0.702 -0.5132 -0.2195  0.0492
14209TIP3    H164042   1.443   2.784   0.771  1.7954  0.2739 -1.6422
14209TIP3    H264043   1.406   2.642   0.734 -0.8288  0.1393  1.1665
14210TIP3   OH264044   2.597   1.063   4.403  0.2275 -0.3071  0.3457
14210TIP3    H164045   2.503   1.074   4.392  0.2624 -0.3141  0.0218
14210TIP3    H264046   2.607   1.019   4.487  0.1158  2.6708  2.0520
14211TIP3   OH264047   4.163   0.589  15.195 -0.1493  0.1129  0.2448
14211TIP3    H164048   4.111   0.649  15.248  0.0873 -0.3565  1.0288
14211TIP3    H264049   4.254   0.615  15.212 -0.0625 -0.2228  0.3113
14212TIP3   OH264050   5.999   3.555  14.742 -0.2678 -0.3634  0.1788
14212TIP3    H164051   6.088   3.587  14.756 -0.5234 -0.2738  1.6847
14212TIP3    H264052   5.943   3.622  14.780 -0.9176 -1.2617  0.8380
14213TIP3   OH264053   0.043   1.516  15.439  0.1007  0.4284 -0.5392
14213TIP3    H164054  -0.011   1.560  15.373  2.0716  2.2676 -1.0134
14213TIP3    H264055   0.132   1.521  15.406  0.8471 -0.9205  1.0756
14214TIP3   OH264056   6.164   4.581   0.881  0.6618  0.0296  0.2249
14214TIP3    H164057   6.126   4.572   0.794 -0.9097 -0.1887  0.9086
14214TIP3    H264058   6.259   4.576   0.866  0.5904  2.6657 -1.7784
14215TIP3   OH264059   2.409   4.475   0.849  0.1559  0.5445 -0.1401
14215TIP3    H164060   2.322   4.493   0.884  0.5784  2.2741  0.1048
14215TIP3    H264061   2.420   4.540   0.779  0.7607 -0.4940 -1.0393
14216TIP3   OH264062   1.119   5.946   3.205 -0.5766  0.5217  0.0228
14216TIP3    H164063   1.038   5.946   3.257  0.7153 -1.4258  2.2600
14216TIP3    H264064   1.163   6.027   3.229 -0.9818  0.6540  0.3429
14217TIP3   OH264065   5.032   5.196   2.572  0.0479 -0.5508  0.5895
14217TIP3    H164066   5.085   5.183   2.493  0.3384 -0.7065  0.8046
14217TIP3    H264067   4.945   5.164   2.548 -0.5054  1.5735 -0.4222
14218TIP3   OH264068   6.732   6.666  16.301 -0.0653 -0.3792  0.0980
14218TIP3    H164069   6.778   6.648  16.219  2.4149  0.3137  1.2566
14218TIP3    H264070   6.664   6.598  16.305 -0.4427 -0.2691 -2.6047
14219TIP3   OH264071   0.670   0.206  14.334 -0.1504  0.3788  0.1059
14219TIP3    H164072   0.736   0.258  14.287 -0.7912  0.6768 -0.4831
14219TIP3    H264073   0.587   0.234  14.296 -0.5197 -1.0863 -0.2233
14220TIP3   OH264074   0.323   4.392  16.305 -0.2976  0.3531 -0.5388
14220TIP3    H164075   0.262   4.385  16.378 -0.3125  0.8378 -0.5012
14220TIP3    H264076   0.282   4.341  16.234 -0.0054 -0.6005 -0.0358
14221TIP3   OH264077   5.314   2.105  15.846  0.5408  0.1514  0.5146
14221TIP3    H164078   5.368   2.078  15.771 -0.1742 -0.3092  0.1484
14221TIP3    H264079   5.242   2.041  15.847  0.1420  0.6070  1.1363
14222TIP3   OH264080   6.572   2.183   2.745 -0.7075 -0.2419 -0.8000
14222TIP3    H164081   6.524   2.246   2.799 -0.5341 -0.1940 -0.6986
14222TIP3    H264082   6.607   2.120   2.808 -0.0680  0.1045 -0.7943
14223TIP3   OH264083   4.518   0.461  12.457 -0.0473  0.5071  0.0068
14223TIP3    H164084   4.590   0.513  12.420 -0.1231  0.2104 -0.5745
14223TIP3    H264085   4.514   0.383  12.402 -1.1260  0.7384 -0.2703
14224TIP3   OH264086   0.809   3.106   1.219 -0.3571 -0.1425 -0.2638
14224TIP3    H164087   0.821   3.015   1.191  1.3539  0.6343 -2.3492
14224TIP3    H264088   0.785   3.100   1.311  1.7715 -2.6554  0.2525
14225TIP3   OH264089   0.494   1.422  15.746  0.2564 -0.3938 -0.6076
14225TIP3    H164090   0.410   1.427  15.699 -0.2053 -0.3592  0.2114
14225TIP3    H264091   0.491   1.336  15.789 -0.5119  0.6456  1.5419
14226TIP3   OH264092   0.165   6.436  13.492  0.7408 -0.5304  0.1835
14226TIP3    H164093   0.187   6.488  13.569  0.6822 -0.7199  0.3277
14226TIP3    H264094   0.183   6.346  13.517  0.4444 -0.6218  0.0757
14227TIP3   OH264095   2.209   5.414  11.330 -0.6666 -0.0019  0.1426
14227TIP3    H164096   2.121   5.435  11.361 -0.2828 -0.1464  1.3828
14227TIP3    H264097   2.251   5.370  11.404  0.3248 -0.2854 -0.5615
14228TIP3   OH264098   3.239   2.970  15.579 -0.0418  0.3579 -0.0404
14228TIP3    H164099   3.155   3.004  15.548  0.3915  1.4693 -0.0418
14228TIP3    H264100   3.276   3.041  15.632  0.3971 -0.5438  0.8900
14229TIP3   OH264101   5.180   6.232   1.255 -0.1846  0.0985 -0.4059
14229TIP3    H164102   5.145   6.243   1.344 -0.4085  0.2745 -0.5152
14229TIP3    H264103   5.263   6.281   1.257  0.5649 -1.1451  0.1461
14230TIP3   OH264104   0.726   6.801   4.657 -0.0013  0.1359  0.7529
14230TIP3    H164105   0.663   6.813   4.728 -1.4526  3.0084 -0.8546
14230TIP3    H264106   0.771   6.720   4.679 -1.3649  0.1306  4.1661
14231TIP3   OH264107   4.257   6.538   6.486 -0.2333  0.2897 -0.4563
14231TIP3    H164108   4.306   6.464   6.451  0.3275  0.7068 -0.5533
14231TIP3    H264109   4.226   6.508   6.571  1.6264  0.6125  0.3772
14232TIP3   OH264110   4.772   6.568   2.856  0.0923 -0.0422 -0.2287
14232TIP3    H164111   4.855   6.541   2.896 -1.6086 -0.4262  3.4630
14232TIP3    H264112   4.731   6.486   2.829 -0.1986 -0.1302  0.4528
14233TIP3   OH264113   2.119   5.770  11.918 -0.0497  0.3426  0.8846
14233TIP3    H164114   2.142   5.681  11.890  0.5302  0.6181  0.4643
14233TIP3    H264115   2.127   5.768  12.013  0.3206  0.0445  0.8509
14234TIP3   OH264116   3.912   1.297   3.783  0.6406 -0.2694  0.6072
14234TIP3    H164117   3.854   1.286   3.707 -0.7612  1.5558  1.3099
14234TIP3    H264118   3.970   1.370   3.758  1.5303 -0.9776  0.5579
14235TIP3   OH264119   6.427   1.671   4.384  0.3816  0.5171 -0.0170
14235TIP3    H164120   6.344   1.647   4.343  0.0020 -0.2673  1.1444
14235TIP3    H264121   6.402   1.736   4.451  0.8657  1.1435 -0.4386
14236TIP3   OH264122   4.215   3.400   5.900  0.2545 -0.0329  0.6019
14236TIP3    H164123   4.197   3.473   5.841 -0.3522  0.7217  1.6915
14236TIP3    H264124   4.129   3.369   5.928  0.5372 -0.2084  1.2973
14237TIP3   OH264125   4.819   0.117  16.136  0.0075 -0.2801 -0.4214
14237TIP3    H164126   4.889   0.055  16.112  0.3303  0.1087 -0.4929
14237TIP3    H264127   4.856   0.168  16.207 -0.5768 -0.7422  0.2302
14238TIP3   OH264128   3.224   0.852  15.164  0.3116 -0.2152 -0.4356
14238TIP3    H164129   3.186   0.874  15.249 -1.2513  1.1757 -1.4240
14238TIP3    H264130   3.164   0.789  15.126  0.9887 -0.8094 -0.5456
14239TIP3   OH264131   1.338   3.120   3.115 -0.0822 -0.4129  0.0183
14239TIP3    H164132   1.368   3.047   3.170  1.0050 -0.9927 -1.2797
14239TIP3    H264133   1.362   3.094   3.026  0.7475  1.7414 -0.4450
14240TIP3   OH264134   5.748   4.553   3.790  0.3773 -0.1960  0.2936
14240TIP3    H164135   5.724   4.644   3.773  1.0367  0.4806  2.6144
14240TIP3    H264136   5.716   4.505   3.714  0.9013  2.0901 -1.4830
14241TIP3   OH264137   3.161   3.095  16.433 -0.0860 -0.3896  0.5643
14241TIP3    H164138   3.097   3.088  16.504  0.5255 -0.2965  1.1264
14241TIP3    H264139   3.122   3.045  16.361 -1.4139  0.7329  0.4467
14242TIP3   OH264140   2.121   0.239  15.059 -0.0121  0.2057 -0.1612
14242TIP3    H164141   2.176   0.180  15.007  1.3978  1.8735 -0.6287
14242TIP3    H264142   2.160   0.237  15.146 -0.1992  0.1675 -0.0766
14243TIP3   OH264143   0.199   2.058  12.504  0.2828  0.2969  1.2278
14243TIP3    H164144   0.174   1.967  12.486  0.4977  0.1806  1.4958
14243TIP3    H264145   0.127   2.093  12.556 -0.3107  0.6169  0.1904
14244TIP3   OH264146   6.751   2.281  14.017  0.0297 -0.1379 -0.1895
14244TIP3    H164147   6.832   2.297  13.968 -1.1899  0.3680 -2.1627
14244TIP3    H264148   6.768   2.318  14.104  1.6683  0.5915 -0.7710
14245TIP3   OH264149   1.605   6.334  10.891 -0.1923 -0.0387 -0.0922
14245TIP3    H164150   1.632   6.419  10.925  0.6850 -0.2198 -0.3289
14245TIP3    H264151   1.681   6.302  10.844 -1.3311  0.1930 -2.2157
14246TIP3   OH264152   2.089   2.457   5.977 -0.5573  0.4376 -0.0118
14246TIP3    H164153   2.174   2.412   5.979 -0.6964  0.1490 -0.3466
14246TIP3    H264154   2.034   2.408   6.039 -0.2144  1.1852  0.8981
14247TIP3   OH264155   2.627   0.573   0.030  0.0547 -0.3163 -0.1610
14247TIP3    H164156   2.636   0.629   0.107 -1.5666  2.0178 -1.5567
14247TIP3    H264157   2.693   0.606  -0.031 -0.4304 -0.3836 -0.7282
14248TIP3   OH264158   1.439   6.656  15.658  0.0743 -0.1699 -0.2712
14248TIP3    H164159   1.482   6.648  15.743 -0.5013 -1.1789 -0.0704
14248TIP3    H264160   1.385   6.735  15.666  0.6603  0.2175 -0.0052
14249TIP3   OH264161   0.431   5.833   4.785  0.1078 -0.0022 -0.2094
14249TIP3    H164162   0.457   5.772   4.716 -0.7242 -1.4282  0.6747
14249TIP3    H264163   0.337   5.821   4.793 -0.2879  2.2581 -0.7506
14250TIP3   OH264164   5.106   6.258  13.695 -0.4468  0.6293 -0.1372
14250TIP3    H164165   5.118   6.169  13.663  0.9017  0.2054  1.4240
14250TIP3    H264166   5.025   6.288  13.654 -0.2385 -0.8348 -1.7116
14251TIP3   OH264167   4.410   0.779  13.054 -0.3336  0.0237  0.2989
14251TIP3    H164168   4.441   0.733  12.976 -0.0685  0.0819  0.3696
14251TIP3    H264169   4.314   0.780  13.045 -0.2508  1.0603 -0.6010
14252TIP3   OH264170   4.044   3.186  12.790 -0.0638  0.3165 -0.4093
14252TIP3    H164171   3.957   3.213  12.818 -0.5936 -1.0351 -0.6537
14252TIP3    H264172   4.080   3.137  12.864  1.7237  3.2513  0.8457
14253TIP3   OH264173   4.454   2.811  16.809 -0.2248 -0.1110 -0.0324
14253TIP3    H164174   4.495   2.892  16.779 -1.2009  0.5338  0.3114
14253TIP3    H264175   4.360   2.832  16.814 -0.7013 -1.7086 -1.3802
14254TIP3   OH264176   4.880   5.952  12.602 -0.1603  0.5086 -0.4421
14254TIP3    H164177   4.814   6.021  12.605  0.5414  1.2342 -1.1112
14254TIP3    H264178   4.879   5.921  12.511  0.1672  0.2749 -0.3724
14255TIP3   OH264179   0.556   3.035   0.509 -0.0612  0.3080 -0.1886
14255TIP3    H164180   0.485   3.024   0.573 -0.1620  0.6235 -0.2468
14255TIP3    H264181   0.608   2.955   0.517 -1.6905 -1.0032 -1.7015
14256TIP3   OH264182   3.126   1.104  15.596  0.4951  0.2035  0.4206
14256TIP3    H164183   3.204   1.160  15.604  0.8866 -0.4095  1.0326
14256TIP3    H264184   3.088   1.104  15.684  0.5004 -0.4793  0.4273
14257TIP3   OH264185   6.481   1.909  14.189  0.2791 -0.1948  0.2412
14257TIP3    H164186   6.540   1.849  14.144  1.5255  0.7618  0.5224
14257TIP3    H264187   6.495   1.994  14.146 -0.3514  0.2142  0.8019
14258TIP3   OH264188   0.932   0.960   1.788  0.5300  0.0126 -0.4198
14258TIP3    H164189   0.849   1.006   1.805  0.8837  0.7915 -0.7403
14258TIP3    H264190   0.961   0.931   1.874  0.1343  0.1015 -0.2495
14259TIP3   OH264191   6.561   2.385  12.984 -0.0770  0.3567  0.2928
14259TIP3    H164192   6.626   2.451  12.961 -1.4263  1.8698  0.6157
14259TIP3    H264193   6.564   2.380  13.080  0.2489 -0.3210  0.2559
14260TIP3   OH264194   4.769   1.808  15.273 -0.2809  0.1515  0.0163
14260TIP3    H164195   4.691   1.861  15.256  0.9416  1.7119 -1.0061
14260TIP3    H264196   4.809   1.847  15.350 -0.2539 -0.3454  0.2579
14261TIP3   OH264197   2.305   0.095   0.939  0.2747 -0.3159 -0.1102
14261TIP3    H164198   2.291   0.105   1.033  0.9549 -1.5930  0.1573
14261TIP3    H264199   2.367   0.022   0.932  2.8185  1.7819 -1.3859
14262TIP3   OH264200   1.900   2.702   5.014  0.2719  0.3529 -0.1613
14262TIP3    H164201   1.907   2.649   5.094  1.1016 -0.1624 -0.5652
14262TIP3    H264202   1.824   2.758   5.030 -0.7843 -1.1027  0.2001
14263TIP3   OH264203   6.056   3.401   2.327  0.3874  0.0945  0.0195
14263TIP3    H164204   6.099   3.439   2.250  0.8314  0.1326  0.2837
14263TIP3    H264205   5.974   3.365   2.293 -0.5190  2.0922 -0.0925
14264TIP3   OH264206   2.412   5.157   1.327 -0.4582 -0.0179  0.3544
14264TIP3    H164207   2.390   5.065   1.312  0.8476 -0.1556 -1.0157
14264TIP3    H264208   2.503   5.154   1.357  0.1485  0.8821 -1.2675
14265TIP3   OH264209   2.995   6.748   2.251 -0.2985 -0.6753 -0.3335
14265TIP3    H164210   3.028   6.795   2.175  0.0214 -0.0471  0.1898
14265TIP3    H264211   3.014   6.656   2.232  0.0121 -0.5001 -0.8954
14266TIP3   OH264212   6.201   1.919   2.326 -0.3646  0.3019  0.6237
14266TIP3    H164213   6.168   1.866   2.399  1.7569  1.0863  2.2607
14266TIP3    H264214   6.292   1.936   2.349 -0.5375  3.4216 -0.5471
14267TIP3   OH264215   6.225   1.032   2.282 -0.3675  0.0506  0.4156
14267TIP3    H164216   6.291   1.057   2.347  1.0067 -1.0998 -0.4885
14267TIP3    H264217   6.248   1.082   2.204 -0.3491 -0.6214 -0.0126
14268TIP3   OH264218   1.565   4.758   3.559  0.1915  0.5617 -0.4401
14268TIP3    H164219   1.594   4.844   3.530  1.0014  0.2913 -0.4628
14268TIP3    H264220   1.470   4.762   3.556  0.2330  0.9131 -2.0406
14269TIP3   OH264221   6.161   3.209  14.742 -0.1626 -0.0033  0.2317
14269TIP3    H164222   6.224   3.195  14.671  2.1707 -1.0584  2.3811
14269TIP3    H264223   6.214   3.240  14.815 -2.2572 -0.3686  1.9887
14270TIP3   OH264224   3.238   0.219   5.987  0.4954  0.0490 -0.2134
14270TIP3    H164225   3.307   0.281   6.012 -0.3121  0.7438  0.3613
14270TIP3    H264226   3.243   0.215   5.892  1.9757 -0.6850 -0.1336
14271TIP3   OH264227   5.902   5.639  13.975 -0.0075 -0.1703  0.4158
14271TIP3    H164228   5.945   5.722  13.992  0.5233 -0.2836 -0.3194
14271TIP3    H264229   5.809   5.657  13.990  0.1982  0.2999  1.1761
14272TIP3   OH264230   2.852   4.570   6.285  0.2821 -0.1080  0.2778
14272TIP3    H164231   2.774   4.532   6.326 -1.5837  1.2611 -1.7448
14272TIP3    H264232   2.859   4.525   6.201  1.2475  0.3133  0.1187
14273TIP3   OH264233   5.446   2.180   2.297 -0.0330  0.3461 -0.2834
14273TIP3    H164234   5.536   2.151   2.306  0.8583  2.5815 -1.3062
14273TIP3    H264235   5.452   2.269   2.262 -2.5324  1.6523  2.1775
14274TIP3   OH264236   6.615   5.141   1.779 -0.5266 -0.1412  0.3120
14274TIP3    H164237   6.709   5.152   1.762 -0.2516 -0.3638  1.5808
14274TIP3    H264238   6.572   5.183   1.705  0.5710  1.3487  0.4747
14275TIP3   OH264239   2.881   2.016   5.613  0.2985  0.4583 -0.2638
14275TIP3    H164240   2.889   2.034   5.519  0.9858  1.1324 -0.0850
14275TIP3    H264241   2.944   2.075   5.654  0.8336 -0.6445  0.5487
14276TIP3   OH264242   5.082   4.727   3.765 -0.0253  0.3094  0.2377
14276TIP3    H164243   5.032   4.722   3.684  1.6958 -1.5733 -0.8068
14276TIP3    H264244   5.038   4.666   3.825  0.2425 -0.3692 -0.2397
14277TIP3   OH264245   0.201   2.125  15.093  0.3106 -0.5071  0.2747
14277TIP3    H164246   0.154   2.090  15.169 -0.1475  0.5233  0.4877
14277TIP3    H264247   0.291   2.136  15.123  0.4217 -1.3077  0.2587
14278TIP3   OH264248   5.089   2.835   6.195 -0.2055  0.0331 -0.0617
14278TIP3    H164249   5.106   2.894   6.121 -1.2210  0.4626  0.0286
14278TIP3    H264250   4.994   2.820   6.192  0.1029 -2.2156 -0.5553
14279TIP3   OH264251   6.357   2.648  13.179 -0.6645 -0.0919 -0.4298
14279TIP3    H164252   6.356   2.732  13.225  0.7001  1.0587 -2.3162
14279TIP3    H264253   6.433   2.602  13.215  0.1928  0.6561 -1.2358
14280TIP3   OH264254   3.944   5.249  12.058  0.3183 -0.1373 -0.1771
14280TIP3    H164255   3.900   5.276  12.138 -1.6749 -0.8518 -0.9805
14280TIP3    H264256   3.896   5.293  11.988  1.1781 -0.5931 -1.0800
14281TIP3   OH264257   4.604   2.740   4.581  0.0689 -0.7022  0.5526
14281TIP3    H164258   4.550   2.791   4.640 -0.2836 -0.7007  0.2326
14281TIP3    H264259   4.555   2.659   4.567 -1.4347  0.5352 -2.2097
14282TIP3   OH264260   4.520   2.364  13.667  0.2126 -0.8318  0.0457
14282TIP3    H164261   4.532   2.279  13.710  1.6472 -0.6311  0.0731
14282TIP3    H264262   4.560   2.353  13.581 -0.4828 -0.4798 -0.3269
14283TIP3   OH264263   0.502   4.325   1.586  0.1602  0.3647 -0.2686
14283TIP3    H164264   0.523   4.417   1.574 -1.5270  0.7435 -0.6296
14283TIP3    H264265   0.407   4.320   1.572 -0.0945 -1.1165  1.5496
14284TIP3   OH264266   6.676   1.317  15.052  0.1953 -0.6679  0.1080
14284TIP3    H164267   6.605   1.365  15.009  1.2923 -0.1548 -1.1864
14284TIP3    H264268   6.633   1.269  15.123 -1.1980  0.9083  0.3990
14285TIP3   OH264269   5.335   4.067  12.989 -0.5931 -0.5989 -0.2376
14285TIP3    H164270   5.344   4.094  12.898  0.4831  0.7771  0.2347
14285TIP3    H264271   5.241   4.063  13.004 -0.7825  0.3709 -1.0808
14286TIP3   OH264272   1.221   1.163   6.574  0.0377 -0.1612  0.2137
14286TIP3    H164273   1.178   1.218   6.509  2.1365  3.1761  1.3459
14286TIP3    H264274   1.314   1.183   6.564  0.8210 -2.7398  1.5313
14287TIP3   OH264275   6.467   5.824   2.576 -0.2030  0.8943  0.0830
14287TIP3    H164276   6.466   5.751   2.515 -0.3688  0.0359  1.0942
14287TIP3    H264277   6.375   5.846   2.589 -0.4402 -1.0269  2.4280
14288TIP3   OH264278   1.918   4.323   4.239 -0.2906  0.5203 -0.1509
14288TIP3    H164279   1.981   4.277   4.185 -1.5131 -0.4518 -0.8060
14288TIP3    H264280   1.971   4.375   4.300  1.1082  0.0036 -0.8929
14289TIP3   OH264281   6.549   3.093   3.967 -0.0469  0.4570  0.2025
14289TIP3    H164282   6.587   3.091   4.055  0.2696  1.2564  0.0865
14289TIP3    H264283   6.455   3.103   3.982  0.0976  1.5024  0.4378
14290TIP3   OH264284   4.183   2.771  15.846 -0.1630  0.9418 -1.1563
14290TIP3    H164285   4.193   2.699  15.908 -1.8774  1.3262 -0.3922
14290TIP3    H264286   4.238   2.746  15.772 -0.7638 -1.2052 -0.9435
14291TIP3   OH264287   4.701   3.211  10.744 -1.0070  0.2565 -0.2406
14291TIP3    H164288   4.644   3.173  10.811  0.6926 -1.9930  0.0667
14291TIP3    H264289   4.780   3.238  10.790 -0.5977  0.5111 -1.0560
14292TIP3   OH264290   5.893   2.396  12.075  0.7643  0.0078  0.1637
14292TIP3    H164291   5.858   2.439  11.997 -0.7096  0.8279  1.2466
14292TIP3    H264292   5.936   2.466  12.124  4.7274 -1.0180 -1.3821
14293TIP3   OH264293   3.170   2.902  10.762  0.0984  0.1773 -0.4207
14293TIP3    H164294   3.216   2.886  10.680 -0.5314 -1.6035 -0.4623
14293TIP3    H264295   3.233   2.952  10.815  1.2961 -0.4345 -1.2214
14294TIP3   OH264296   5.311   2.696  12.015 -0.6196  0.1759  0.3379
14294TIP3    H164297   5.267   2.668  11.935  2.4287 -0.8143 -1.1488
14294TIP3    H264298   5.348   2.782  11.992 -0.6938  0.4133  1.0925
14295TIP3   OH264299   4.656   1.582   4.415  0.7883  0.3368 -0.2844
14295TIP3    H164300   4.589   1.548   4.474 -0.0341 -0.5337 -1.6381
14295TIP3    H264301   4.632   1.674   4.402 -0.6442 -0.1348 -1.3207
14296TIP3   OH264302   2.103   2.543   1.685  0.7476  0.1212  0.6779
14296TIP3    H164303   2.146   2.459   1.669 -2.0043 -1.2307 -0.2548
14296TIP3    H264304   2.141   2.603   1.621 -0.8365 -1.8421 -2.2926
14297TIP3   OH264305   3.953   3.501   4.646  0.5873 -0.5877  0.3359
14297TIP3    H164306   3.958   3.555   4.725 -0.8416 -1.8756  1.3386
14297TIP3    H264307   4.032   3.447   4.650  0.3638 -0.8759  1.0699
14298TIP3   OH264308   1.528   6.648  15.378 -0.6359  0.6455 -0.7890
14298TIP3    H164309   1.508   6.599  15.458 -0.9455 -0.4977 -1.5443
14298TIP3    H264310   1.560   6.733  15.409 -0.9842  0.3103  0.5385
14299TIP3   OH264311   2.382   2.954   4.162  0.2531 -0.5121 -0.0123
14299TIP3    H164312   2.299   2.924   4.198  0.6179 -2.7724 -0.8843
14299TIP3    H264313   2.436   2.875   4.158  2.4278  0.8750  0.4328
14300TIP3   OH264314   3.118   4.753   3.519 -0.3848  0.1169 -0.3411
14300TIP3    H164315   3.156   4.793   3.597  0.2416  2.1491 -1.6243
14300TIP3    H264316   3.044   4.702   3.551  0.1664  0.4909  1.6115
14301TIP3   OH264317   2.907   2.446  11.553 -0.2366  0.2659  0.1282
14301TIP3    H164318   2.979   2.384  11.539 -0.2111 -0.0461  1.4947
14301TIP3    H264319   2.943   2.531  11.528 -0.2065 -0.2210 -1.5784
14302TIP3   OH264320   1.488   0.323  15.617  0.0707 -0.3121  0.1636
14302TIP3    H164321   1.420   0.304  15.682 -0.4679  0.6811 -0.0758
14302TIP3    H264322   1.533   0.400  15.652 -1.6580  1.6468 -1.6014
14303TIP3   OH264323   3.966   3.337   1.357  0.6304  0.5698 -0.3662
14303TIP3    H164324   4.024   3.282   1.411  0.4508  0.5484 -0.1944
14303TIP3    H264325   4.007   3.423   1.358  0.8334  0.4770 -0.5129
14304TIP3   OH264326   0.324   3.286  11.589  0.1355 -0.2162  0.0296
14304TIP3    H164327   0.310   3.199  11.553 -0.1351 -0.2136  0.1323
14304TIP3    H264328   0.241   3.331  11.578  0.3318  0.0966 -0.2034
14305TIP3   OH264329   3.249   4.075  16.927 -0.3054  0.3826 -0.3998
14305TIP3    H164330   3.168   4.123  16.942 -0.6921 -0.6516  1.0170
14305TIP3    H264331   3.226   4.007  16.863 -0.6047 -0.0114  0.1230
14306TIP3   OH264332   3.123   1.817   5.563 -0.3102  0.4447 -0.0325
14306TIP3    H164333   3.203   1.790   5.607 -0.6459  0.8587  0.8542
14306TIP3    H264334   3.070   1.858   5.632 -1.6494 -0.6027 -0.3917
14307TIP3   OH264335   3.610   0.207   4.021  0.0256 -0.2320  0.3762
14307TIP3    H164336   3.624   0.166   4.106 -1.4406 -0.6827  0.4232
14307TIP3    H264337   3.520   0.238   4.024  0.2721  0.6355 -0.6516
14308TIP3   OH264338   4.705   6.753   4.736 -0.3380 -0.5038  0.5611
14308TIP3    H164339   4.676   6.669   4.700 -0.4531 -0.6713  1.0438
14308TIP3    H264340   4.739   6.800   4.660 -0.6230 -0.8352  0.2202
14309TIP3   OH264341   6.116   3.004   2.843  0.3367  0.5011  0.3155
14309TIP3    H164342   6.058   3.029   2.914 -1.3553  1.7823 -1.4118
14309TIP3    H264343   6.109   2.909   2.839  0.9804  0.3299  2.2188
14310TIP3   OH264344   5.334   2.679  11.015  0.2076 -0.4164 -0.0398
14310TIP3    H164345   5.397   2.609  11.029  0.0289 -0.4545  0.5735
14310TIP3    H264346   5.249   2.634  11.009  0.4115 -0.6178 -2.9945
14311TIP3   OH264347   3.616   0.161   2.478 -0.0675  0.4746  0.0774
14311TIP3    H164348   3.651   0.136   2.392 -2.4277  0.4374 -0.9514
14311TIP3    H264349   3.560   0.088   2.503 -1.1418  1.4196  0.5613
14312TIP3   OH264350   1.931   3.386  13.723  0.1259  0.6694 -0.3659
14312TIP3    H164351   1.861   3.377  13.657  1.2692  2.0233 -1.8363
14312TIP3    H264352   1.898   3.454  13.782 -0.1209  0.7763 -0.6192
14313TIP3   OH264353   3.347   1.092  14.949  0.1633  0.2282  0.0018
14313TIP3    H164354   3.334   1.014  14.896  1.6602 -0.5058  0.6415
14313TIP3    H264355   3.343   1.061  15.040 -3.3460  1.6101  0.4835
14314TIP3   OH264356   2.515   3.784  13.472 -0.4027 -0.0454 -0.6303
14314TIP3    H164357   2.428   3.808  13.438  0.1818  1.1319 -1.3906
14314TIP3    H264358   2.575   3.812  13.403  0.7320  1.0168  0.7340
14315TIP3   OH264359   2.489   0.917   2.407  0.2407 -0.2556  0.0411
14315TIP3    H164360   2.502   0.881   2.320 -0.5490 -0.3269 -0.0596
14315TIP3    H264361   2.524   1.006   2.402  0.5568 -0.3930 -0.2310
14316TIP3   OH264362   1.772   2.331  14.670  0.1428  0.4093  0.0985
14316TIP3    H164363   1.787   2.296  14.758 -0.5022  0.3299  0.1775
14316TIP3    H264364   1.832   2.405  14.663  1.6734 -0.7955 -0.1301
14317TIP3   OH264365   0.233   6.296   5.642 -0.7224 -0.6447 -0.4178
14317TIP3    H164366   0.328   6.293   5.630 -0.6550 -2.1783  0.2671
14317TIP3    H264367   0.197   6.265   5.558 -0.6052 -0.5736 -0.4940
14318TIP3   OH264368   3.018   0.163  13.298 -0.2593  0.0165 -0.4956
14318TIP3    H164369   3.024   0.140  13.391  1.8531 -0.3107 -0.6628
14318TIP3    H264370   2.996   0.081  13.254  0.8655 -0.3219 -0.4621
14319TIP3   OH264371   4.032   1.131   0.151  0.0079  0.0732 -0.1169
14319TIP3    H164372   3.967   1.201   0.148 -0.1951 -0.1169 -0.1980
14319TIP3    H264373   4.108   1.170   0.195 -0.8995 -0.3173  1.8548
14320TIP3   OH264374   1.700   5.012   3.773  0.4562  0.0439 -0.6584
14320TIP3    H164375   1.762   5.043   3.839 -0.1403  0.0651 -0.0937
14320TIP3    H264376   1.740   4.934   3.735  0.4163 -0.4802  0.3507
14321TIP3   OH264377   6.405   0.063  16.045  0.3619 -0.0835  0.3787
14321TIP3    H164378   6.492   0.024  16.050  0.1726 -0.3472  2.3277
14321TIP3    H264379   6.356   0.021  16.116 -0.3285  2.5732  1.5724
14322TIP3   OH264380   3.967   2.298  13.070 -0.3194  0.3638  0.1643
14322TIP3    H164381   4.003   2.256  12.992 -0.8874  0.3518 -0.0916
14322TIP3    H264382   3.945   2.226  13.129  1.2108  0.4095  0.8380
14323TIP3   OH264383   5.713   4.140   5.040 -0.1025  0.0912  0.5636
14323TIP3    H164384   5.665   4.064   5.007 -0.2019  0.2419  0.3586
14323TIP3    H264385   5.661   4.216   5.011  0.6406  0.2927 -0.2905
14324TIP3   OH264386   4.079   6.153  16.973  0.0464  0.2240  0.1174
14324TIP3    H164387   4.068   6.186  16.884  5.1640  0.0800 -0.8859
14324TIP3    H264388   4.081   6.232  17.028 -0.9594  0.4841 -0.2039
14325TIP3   OH264389   2.623   0.872  15.712 -0.2267  0.3547  0.2414
14325TIP3    H164390   2.531   0.897  15.700 -0.1450  0.3104 -0.5052
14325TIP3    H264391   2.665   0.891  15.628  0.5301  0.7190  0.6866
14326TIP3   OH264392   2.339   1.253   3.221  0.1713 -0.4324  0.1844
14326TIP3    H164393   2.264   1.311   3.232  0.5735 -0.0649  1.0653
14326TIP3    H264394   2.409   1.311   3.189  0.1772 -0.7142 -0.3317
14327TIP3   OH264395   1.849   2.027  13.329 -0.0263  0.4837  0.5328
14327TIP3    H164396   1.850   2.051  13.237 -0.8964  0.3519  0.4866
14327TIP3    H264397   1.854   2.111  13.376 -3.3828  0.8858  0.3760
14328TIP3   OH264398   5.313   6.465   1.533 -0.3250  0.2444 -0.1916
14328TIP3    H164399   5.365   6.431   1.460 -0.8153  0.3783 -0.6126
14328TIP3    H264400   5.235   6.410   1.533  0.9114 -1.6813  2.0593
14329TIP3   OH264401   4.643   3.886  11.216  0.6568  0.0459 -0.0470
14329TIP3    H164402   4.559   3.908  11.176  0.3246 -2.1919 -0.7156
14329TIP3    H264403   4.648   3.942  11.293 -0.2409  2.0493 -1.3425
14330TIP3   OH264404   5.313   1.359   5.201  0.4673 -0.3268  0.3092
14330TIP3    H164405   5.312   1.412   5.121  0.4703 -0.3166  0.3163
14330TIP3    H264406   5.312   1.268   5.169 -3.6537 -0.4419  0.2349
14331TIP3   OH264407   5.892   2.700   0.818 -0.1177  0.5779  0.3346
14331TIP3    H164408   5.876   2.786   0.856  1.3073  0.7448  0.6068
14331TIP3    H264409   5.805   2.663   0.807 -0.7513  1.9797  0.3709
14332TIP3   OH264410   6.695   1.284   2.489  0.0686 -0.3623 -0.2394
14332TIP3    H164411   6.607   1.315   2.511 -0.4459 -1.9211  0.0709
14332TIP3    H264412   6.704   1.202   2.539  1.6764 -0.2620 -0.3200
14333TIP3   OH264413   3.976   5.709  14.704  0.6348 -0.3918 -0.3052
14333TIP3    H164414   4.068   5.714  14.677  0.8319 -0.6249  0.3319
14333TIP3    H264415   3.954   5.616  14.700  0.9876 -0.5654  1.4125
14334TIP3   OH264416   4.670   1.354  12.898 -0.2185 -0.2011 -0.6125
14334TIP3    H164417   4.635   1.265  12.891 -0.9186 -0.3213  2.6903
14334TIP3    H264418   4.593   1.408  12.917  0.5099  0.6941 -0.1597
14335TIP3   OH264419   6.013   0.183   0.481  0.1078 -0.0334  0.1901
14335TIP3    H164420   6.022   0.275   0.505 -2.3669  0.1721  0.5892
14335TIP3    H264421   6.029   0.181   0.387 -0.6013  0.9626  0.0358
14336TIP3   OH264422   5.444   0.599   1.672 -0.2530 -0.0912 -0.0643
14336TIP3    H164423   5.363   0.624   1.630  0.3531 -0.1567 -1.3116
14336TIP3    H264424   5.429   0.616   1.765 -0.9688  1.8866 -0.4879
14337TIP3   OH264425   3.912   3.829   0.652  0.1258 -0.1445  0.0036
14337TIP3    H164426   3.865   3.757   0.695  1.1831 -0.9939 -0.2258
14337TIP3    H264427   3.844   3.873   0.601 -0.6699 -0.5845  0.6524
14338TIP3   OH264428   0.789   1.449   0.543 -0.3895  0.2974 -0.1338
14338TIP3    H164429   0.766   1.449   0.636  0.6097 -1.0123  0.1376
14338TIP3    H264430   0.869   1.501   0.538  0.3305 -0.7709 -0.0293
14339TIP3   OH264431   1.446   5.510   4.114  0.9971 -0.0667  0.5497
14339TIP3    H164432   1.484   5.546   4.034  0.7758  1.2607  1.0137
14339TIP3    H264433   1.377   5.572   4.139 -0.7601 -1.8485  0.3446
14340TIP3   OH264434   3.003   6.537   6.295 -0.6857 -0.0569  0.5347
14340TIP3    H164435   3.035   6.627   6.301  1.0004 -0.6673  1.3492
14340TIP3    H264436   2.956   6.523   6.378 -0.9042  0.0423  0.4296
14341TIP3   OH264437   4.163   5.065  13.031  0.3433  0.3598 -0.1803
14341TIP3    H164438   4.201   5.030  12.950  0.8998 -1.4023  0.7975
14341TIP3    H264439   4.236   5.111  13.073  0.0529  1.2778 -0.6317
14342TIP3   OH264440   4.182   2.908  13.467 -0.1308  0.1711 -0.0533
14342TIP3    H164441   4.261   2.853  13.462  1.2943  2.0842  0.2269
14342TIP3    H264442   4.147   2.891  13.555 -0.5076 -1.2450 -0.4411
14343TIP3   OH264443   3.421   4.069   1.261  0.8963  0.3645 -0.1068
14343TIP3    H164444   3.426   4.147   1.206  1.6351  0.2397 -0.2385
14343TIP3    H264445   3.499   4.019   1.237  0.7498 -0.1203  0.4133
14344TIP3   OH264446   6.363   5.456  13.564 -0.2057  0.2631  0.1254
14344TIP3    H164447   6.353   5.525  13.630 -0.7044 -0.8387  1.2573
14344TIP3    H264448   6.320   5.380  13.603 -0.0475 -0.5767 -1.2717
14345TIP3   OH264449   3.133   2.239   6.267 -0.3783  0.5622  0.1103
14345TIP3    H164450   3.216   2.283   6.250  0.4998 -0.6069  1.1819
14345TIP3    H264451   3.069   2.286   6.213  1.2816  0.2591 -2.2632
14346TIP3   OH264452   5.158   3.004   0.674 -0.3293  0.0797 -0.2420
14346TIP3    H164453   5.225   2.936   0.685  1.5105  1.8158 -0.0021
14346TIP3    H264454   5.200   3.069   0.618 -1.8580  1.2287 -0.0954
14347TIP3   OH264455   1.340   0.919  11.082 -0.5693  0.1885  0.7180
14347TIP3    H164456   1.408   0.967  11.034  0.3762  0.1845  2.0258
14347TIP3    H264457   1.352   0.828  11.056 -0.4361  0.2592  0.5274
14348TIP3   OH264458   0.956   1.059   4.093  0.1281  0.3025  0.0637
14348TIP3    H164459   0.993   1.146   4.105  1.3315 -0.2535  0.5948
14348TIP3    H264460   1.029   1.006   4.059  0.1284 -1.0641  2.0274
14349TIP3   OH264461   2.098   3.731  15.504  0.2964  0.3059 -0.1085
14349TIP3    H164462   2.133   3.775  15.581  0.4520  1.8576 -1.0251
14349TIP3    H264463   2.173   3.688  15.463  0.8198  1.9973 -1.0028
14350TIP3   OH264464   2.362   2.808  15.454 -0.4094  0.0591  0.0528
14350TIP3    H164465   2.296   2.870  15.484 -2.5408 -1.7729 -0.6043
14350TIP3    H264466   2.445   2.855  15.464 -1.6333  1.9390  2.2430
14351TIP3   OH264467   2.417   5.932   4.505 -0.3213  0.2388  0.0689
14351TIP3    H164468   2.433   6.026   4.506  1.8673 -0.0815  0.3530
14351TIP3    H264469   2.496   5.894   4.466 -0.2010 -1.5890  1.8722
14352TIP3   OH264470   4.850   2.353  13.316  1.2165  0.5316  0.2525
14352TIP3    H164471   4.930   2.323  13.359  1.4359  1.3848  0.4668
14352TIP3    H264472   4.870   2.442  13.287  0.5202  0.5640 -0.1634
14353TIP3   OH264473   2.563   2.834  13.976 -0.0916 -0.2474 -0.1816
14353TIP3    H164474   2.555   2.915  14.027 -1.9390 -0.4253 -0.1367
14353TIP3    H264475   2.571   2.862  13.885  1.7322  0.0236  0.0237
14354TIP3   OH264476   0.819   3.300  11.384 -0.4915 -0.6542  0.7070
14354TIP3    H164477   0.832   3.353  11.463 -0.2452  1.0511 -0.4437
14354TIP3    H264478   0.751   3.345  11.336 -0.7366 -1.7608 -0.0093
14355TIP3   OH264479   4.641   4.550  11.286  0.2264  0.7297 -0.0186
14355TIP3    H164480   4.700   4.484  11.323  0.4894  0.2181 -1.2882
14355TIP3    H264481   4.587   4.578  11.360  1.4099  0.5118  0.9677
14356TIP3   OH264482   0.993   4.706   0.794  0.0691  0.1293 -0.0557
14356TIP3    H164483   1.035   4.643   0.852  0.4237  1.3242  1.0302
14356TIP3    H264484   1.062   4.735   0.735  0.6485  1.5813  1.2839
14357TIP3   OH264485   5.502   1.539  14.255 -0.1357 -0.1875  0.4399
14357TIP3    H164486   5.420   1.532  14.304 -1.2795  0.4870 -1.3058
14357TIP3    H264487   5.549   1.612  14.296 -1.0562  0.3463  0.5582
14358TIP3   OH264488   2.286   3.361  16.556 -0.1404  0.2607  0.1892
14358TIP3    H164489   2.296   3.437  16.500  1.8310  0.9475  1.3818
14358TIP3    H264490   2.253   3.396  16.639 -0.0908 -0.3190  0.4611
14359TIP3   OH264491   3.915   0.908  14.870 -0.5558 -0.2102  0.5414
14359TIP3    H164492   3.956   0.988  14.902  0.8789 -0.1095 -1.3544
14359TIP3    H264493   3.868   0.873  14.946  1.4640  0.6967  2.3116
14360TIP3   OH264494   5.277   6.585   4.098  0.7379  0.1996  0.4545
14360TIP3    H164495   5.308   6.532   4.025  0.5550 -1.1756  1.3423
14360TIP3    H264496   5.309   6.673   4.079  4.2152 -0.8729  0.7136
14361TIP3   OH264497   3.952   4.065  13.623  0.4902  0.4251  0.3263
14361TIP3    H164498   4.033   4.072  13.674  0.7779  1.9424 -0.2714
14361TIP3    H264499   3.922   3.975  13.636  2.6834 -0.4079 -0.0695
14362TIP3   OH264500   0.791   2.441  15.319 -0.3605  0.3405 -0.2611
14362TIP3    H164501   0.881   2.469  15.337 -1.4276  2.9953  1.4619
14362TIP3    H264502   0.750   2.435  15.405 -2.1147  0.2269 -1.0747
14363TIP3   OH264503   4.432   3.335   0.341  0.2491 -0.6239 -0.1934
14363TIP3    H164504   4.509   3.317   0.395 -0.5840 -0.3119  1.1571
14363TIP3    H264505   4.438   3.429   0.321  0.2132 -0.5940 -0.0657
14364TIP3   OH264506   6.091   3.153   3.253  0.0378 -0.1230  0.2189
14364TIP3    H164507   6.112   3.124   3.342  0.0232 -1.5950 -0.2266
14364TIP3    H264508   5.998   3.175   3.256  0.5994  2.4806  1.1987
14365TIP3   OH264509   5.238   4.946  11.479 -0.4254  0.1781  0.0156
14365TIP3    H164510   5.324   4.940  11.521 -1.0268 -1.1955  1.1665
14365TIP3    H264511   5.211   4.855  11.465 -1.1615  0.5911 -1.5015
14366TIP3   OH264512   2.581   6.546   5.817 -0.4358 -0.0723 -0.2984
14366TIP3    H164513   2.625   6.594   5.747  0.9219 -0.7611  0.0478
14366TIP3    H264514   2.563   6.612   5.885 -0.7141  0.3741 -0.8035
14367TIP3   OH264515   6.209   2.360   0.139  0.0424 -0.6008  0.3065
14367TIP3    H164516   6.255   2.396   0.063 -1.8888 -0.2784 -0.7730
14367TIP3    H264517   6.117   2.362   0.115 -0.5326 -1.7543  2.1579
14368TIP3   OH264518   5.270   2.321   3.883  0.5206  0.0667  0.0137
14368TIP3    H164519   5.353   2.369   3.880  0.1599  0.6810 -0.3055
14368TIP3    H264520   5.211   2.372   3.827 -0.3194  0.1037  0.9062
14369TIP3   OH264521   3.429   1.725  15.414 -0.1629 -0.2422 -0.6300
14369TIP3    H164522   3.436   1.653  15.352 -1.2348  0.2092 -1.3261
14369TIP3    H264523   3.390   1.686  15.492  1.5470 -0.8927 -0.0696
14370TIP3   OH264524   2.206   1.533   4.630 -0.3498  0.2096 -0.0976
14370TIP3    H164525   2.175   1.622   4.646  1.2831  0.9256 -0.7338
14370TIP3    H264526   2.202   1.524   4.534  0.3950 -0.0550 -0.1053
14371TIP3   OH264527   4.506   4.631   0.618 -0.5201  0.0439  0.1051
14371TIP3    H164528   4.535   4.674   0.538 -0.7755  1.4667  0.7496
14371TIP3    H264529   4.491   4.540   0.592  0.4151  0.2332 -1.2056
14372TIP3   OH264530   6.317   6.140   4.889 -0.0334 -0.6273  0.1095
14372TIP3    H164531   6.319   6.148   4.984  0.2267 -0.3190  0.0777
14372TIP3    H264532   6.237   6.091   4.871  0.1313 -1.0519  0.5138
14373TIP3   OH264533   6.636   3.774  16.043 -0.3221  0.1529 -0.6030
14373TIP3    H164534   6.599   3.858  16.069 -0.0675 -0.4524  1.9682
14373TIP3    H264535   6.559   3.718  16.025 -0.6685 -0.2104  1.7305
14374TIP3   OH264536   5.623   3.840   1.380  0.2605  0.6273  0.8411
14374TIP3    H164537   5.564   3.907   1.344  0.5204 -0.0436 -0.9505
14374TIP3    H264538   5.706   3.885   1.392  0.5242  0.5831 -0.6673
14375TIP3   OH264539   1.955   4.873  12.900  0.3647  0.1316 -0.0705
14375TIP3    H164540   1.973   4.902  12.990  0.3794 -0.4545  0.1185
14375TIP3    H264541   1.924   4.952  12.856 -0.4267  0.2483  0.6696
14376TIP3   OH264542   3.458   5.948   4.369  0.1047 -0.0558 -0.7383
14376TIP3    H164543   3.498   6.013   4.426  0.2481  0.2601 -1.1958
14376TIP3    H264544   3.405   5.999   4.308 -0.0552 -0.3916 -0.8824
14377TIP3   OH264545   0.070   5.971  11.012  0.2399 -0.0332 -0.2913
14377TIP3    H164546   0.015   5.964  10.934 -1.3218 -0.1436  0.7796
14377TIP3    H264547   0.082   5.881  11.041 -0.4061  0.0948  0.4004
14378TIP3   OH264548   3.103   2.988  16.183  0.2780  0.6784  0.0835
14378TIP3    H164549   3.053   2.946  16.113 -0.3900 -0.4462  1.1870
14378TIP3    H264550   3.188   2.943  16.182 -0.1675 -0.2096  0.7694
14379TIP3   OH264551   4.528   1.291  16.492  0.3538  0.6581 -0.3064
14379TIP3    H164552   4.458   1.226  16.498  0.7114  0.2661 -0.3346
14379TIP3    H264553   4.608   1.240  16.498  0.6577  0.9557 -1.5026
14380TIP3   OH264554   4.676   0.160  10.840  0.3470  0.3305 -0.0405
14380TIP3    H164555   4.698   0.098  10.770 -0.1363  2.0143 -1.7619
14380TIP3    H264556   4.580   0.155  10.846  0.3395  0.6430  0.0804
14381TIP3   OH264557   1.606   2.509  14.499 -0.0711 -0.7051 -0.1987
14381TIP3    H164558   1.658   2.436  14.534 -0.8238 -1.5872 -0.8649
14381TIP3    H264559   1.547   2.468  14.436  0.1990  0.6352 -1.3729
14382TIP3   OH264560   1.880   3.499   5.016  0.0808  0.4863 -0.4530
14382TIP3    H164561   1.865   3.445   4.938  0.6736 -0.2804 -0.0482
14382TIP3    H264562   1.914   3.582   4.981  1.2258 -0.1736 -0.9858
14383TIP3   OH264563   6.305   3.476  15.039 -0.1273  0.2898  0.2709
14383TIP3    H164564   6.255   3.542  15.087 -1.2374 -0.8298  0.7186
14383TIP3    H264565   6.255   3.395  15.050  0.2231 -0.2651 -1.7842
14384TIP3   OH264566   3.456   0.731   1.665 -0.1641 -0.2520  0.3641
14384TIP3    H164567   3.382   0.683   1.627  1.3953 -3.3861  0.9779
14384TIP3    H264568   3.490   0.783   1.592 -1.5887 -0.5255 -0.5486
14385TIP3   OH264569   1.760   2.516   2.656  0.1934 -0.0035 -0.2822
14385TIP3    H164570   1.710   2.463   2.593  1.8775 -1.0934 -0.7679
14385TIP3    H264571   1.764   2.462   2.735 -1.1597  0.9906  0.5087
14386TIP3   OH264572   3.077   2.627   1.469  0.0711 -0.0387  0.0174
14386TIP3    H164573   3.046   2.539   1.448 -0.2489  0.3301 -1.0982
14386TIP3    H264574   3.024   2.685   1.415  2.3282  0.6701 -1.5658
14387TIP3   OH264575   6.191   5.236  11.630 -0.2124 -0.0336 -0.4144
14387TIP3    H164576   6.140   5.236  11.711  0.6802  2.6640  0.2316
14387TIP3    H264577   6.136   5.282  11.567 -1.2088 -2.7265 -1.6651
14388TIP3   OH264578   5.188   0.652   4.127 -0.5452 -0.3474 -0.3862
14388TIP3    H164579   5.094   0.636   4.124 -0.2688 -2.5100  0.5539
14388TIP3    H264580   5.199   0.718   4.196 -1.2720 -1.5440  0.9345
14389TIP3   OH264581   4.792   2.064   0.627  0.1696  0.3400 -0.4184
14389TIP3    H164582   4.696   2.066   0.629  0.0435 -0.8942 -2.2715
14389TIP3    H264583   4.818   2.156   0.617 -0.6600  0.9446  2.1570
14390TIP3   OH264584   3.717   6.200  14.683  0.1448  0.5735  0.5801
14390TIP3    H164585   3.681   6.264  14.745 -2.4000 -1.3739  1.2753
14390TIP3    H264586   3.811   6.200  14.702 -0.5387 -0.6936  5.4280
14391TIP3   OH264587   0.717   4.917   5.371  0.6248 -0.4720 -0.4566
14391TIP3    H164588   0.653   4.942   5.305 -0.1955  0.9525  0.8009
14391TIP3    H264589   0.792   4.974   5.354  0.5527 -0.3539 -0.3813
14392TIP3   OH264590   4.647   3.761   3.658  0.5184  0.4388 -0.5281
14392TIP3    H164591   4.624   3.670   3.674 -1.0107  0.9442  0.4185
14392TIP3    H264592   4.610   3.781   3.572 -1.9681  0.9560  0.5491
14393TIP3   OH264593   0.043   1.822  11.191  0.8667 -0.4075 -0.6057
14393TIP3    H164594   0.043   1.846  11.098  0.6398  0.3989 -0.4052
14393TIP3    H264595   0.075   1.731  11.192 -1.6478 -1.4238 -1.7436
14394TIP3   OH264596   3.220   1.464   3.677 -0.4136 -0.6472  0.3526
14394TIP3    H164597   3.252   1.485   3.764  0.4544  0.0266 -0.1206
14394TIP3    H264598   3.216   1.368   3.675  2.8867 -0.8792  0.0029
14395TIP3   OH264599   0.302   5.904   2.818 -0.5961 -0.0421  0.5502
14395TIP3    H164600   0.373   5.951   2.863 -0.6320 -0.8448  1.4934
14395TIP3    H264601   0.329   5.901   2.727 -0.4544  1.5271  0.5241
14396TIP3   OH264602   1.518   1.584  13.114 -0.6005 -0.1101 -0.3316
14396TIP3    H164603   1.606   1.585  13.076  0.2398  2.1471  1.4698
14396TIP3    H264604   1.510   1.496  13.152  0.6473 -0.5422 -0.9908
14397TIP3   OH264605   4.784   3.815  16.917 -0.0415 -0.6285  0.0072
14397TIP3    H164606   4.820   3.812  16.828 -1.0755 -0.6429 -0.4184
14397TIP3    H264607   4.852   3.858  16.968  0.9730 -1.4746 -0.5863
14398TIP3   OH264608   1.349   1.242  16.146 -0.1159  0.3778 -0.8859
14398TIP3    H164609   1.262   1.247  16.186  1.2103  2.1013  2.1491
14398TIP3    H264610   1.345   1.165  16.090 -2.2803 -2.3960  2.6140
14399TIP3   OH264611   6.675   2.265   3.106 -0.2934  0.0894 -0.0660
14399TIP3    H164612   6.657   2.296   3.195  1.5607  0.4236  0.2319
14399TIP3    H264613   6.681   2.170   3.114  1.6269  0.2241  0.5599
14400TIP3   OH264614   5.485   5.759   2.637  0.4458 -0.7949 -0.3040
14400TIP3    H164615   5.420   5.824   2.667 -0.2806 -1.0622 -1.2503
14400TIP3    H264616   5.518   5.795   2.555  0.8190 -1.1129 -0.2918
14401TIP3   OH264617   0.865   0.094  13.925 -0.5286 -0.0922  0.6053
14401TIP3    H164618   0.891   0.183  13.950 -0.2142  0.1559 -0.5672
14401TIP3    H264619   0.843   0.100  13.832 -1.9190 -0.9409  0.8476
14402TIP3   OH264620   5.008   3.258  14.411  0.2649 -0.3482  0.0364
14402TIP3    H164621   5.042   3.318  14.345  0.5287 -1.7909 -1.1950
14402TIP3    H264622   5.083   3.244  14.470  0.8811 -1.1144 -0.9013
14403TIP3   OH264623   5.964   4.045   5.068 -1.0376 -0.5204 -0.2113
14403TIP3    H164624   5.884   4.090   5.040 -0.8426 -0.2863 -0.3973
14403TIP3    H264625   5.942   3.952   5.066 -0.9003 -0.5336 -1.5335
14404TIP3   OH264626   2.663   6.289   5.731  0.1930  0.5321 -0.1938
14404TIP3    H164627   2.611   6.341   5.793  1.4230  0.7189  0.7405
14404TIP3    H264628   2.656   6.199   5.763 -1.0958  0.2528 -1.2041
14405TIP3   OH264629   3.218   1.368  12.465 -0.0452  0.2264  0.1593
14405TIP3    H164630   3.288   1.326  12.515  0.4333 -1.4054 -1.7126
14405TIP3    H264631   3.262   1.436  12.414  0.0517 -0.1491 -0.2775
14406TIP3   OH264632   5.980   4.753  12.833  0.5293  0.0405 -0.2650
14406TIP3    H164633   5.913   4.813  12.865 -2.7485 -2.4419 -1.9010
14406TIP3    H264634   5.966   4.751  12.738  2.3414 -1.3161 -0.5571
14407TIP3   OH264635   6.588   2.393  10.737  0.0872  0.3094 -0.1593
14407TIP3    H164636   6.598   2.488  10.731 -2.2918  0.7196  0.9311
14407TIP3    H264637   6.502   2.376  10.699 -0.0609 -1.2348  0.7832
14408TIP3   OH264638   5.492   4.772  13.596 -0.6346  0.2103  0.2224
14408TIP3    H164639   5.533   4.856  13.574 -0.6465  0.2429  0.3226
14408TIP3    H264640   5.532   4.709  13.536  1.5070 -0.2684  2.0072
14409TIP3   OH264641   0.428   3.383  16.013 -0.1867 -0.0564  0.0879
14409TIP3    H164642   0.335   3.388  15.988 -0.4148  0.3956  0.9952
14409TIP3    H264643   0.436   3.444  16.086  0.7871 -0.2570  0.1567
14410TIP3   OH264644   0.814   0.403   4.727  0.4577  0.3179 -0.0260
14410TIP3    H164645   0.854   0.410   4.814 -1.7149  0.9125  1.0315
14410TIP3    H264646   0.745   0.470   4.728 -0.7918 -0.8702 -1.5330
14411TIP3   OH264647   2.108   2.265   1.514 -0.1421 -0.0881  0.5905
14411TIP3    H164648   2.113   2.320   1.436  1.8166 -1.1163 -0.0718
14411TIP3    H264649   2.053   2.191   1.488  0.6815 -0.5365  0.0969
14412TIP3   OH264650   6.535   1.136  16.881 -0.3599 -0.0095  0.0148
14412TIP3    H164651   6.451   1.099  16.854 -0.7279 -0.4384  1.5923
14412TIP3    H264652   6.552   1.207  16.819 -0.5199 -1.6561 -1.9830
14413TIP3   OH264653   6.174   5.984  12.701 -0.5469 -0.2450  0.0922
14413TIP3    H164654   6.152   6.004  12.792  1.5985 -1.0111  0.8494
14413TIP3    H264655   6.232   6.055  12.674 -0.6799 -0.3476 -0.4712
14414TIP3   OH264656   5.058   5.823   0.931 -0.4717  0.4234 -0.1075
14414TIP3    H164657   5.047   5.732   0.960 -0.7517  0.7287  0.7599
14414TIP3    H264658   5.051   5.875   1.011 -0.5803  1.2355 -0.6370
14415TIP3   OH264659   2.793   2.636   1.777 -0.0614  0.0225  0.2268
14415TIP3    H164660   2.806   2.579   1.853  0.4846  1.2191  1.0763
14415TIP3    H264661   2.869   2.695   1.778 -0.7405  0.9445 -0.4332
14416TIP3   OH264662   3.574   5.869   0.743  0.1702 -0.2409  0.5151
14416TIP3    H164663   3.661   5.856   0.781  0.2053  0.1312  0.5637
14416TIP3    H264664   3.573   5.961   0.717 -0.0184 -0.3719  0.0363
14417TIP3   OH264665   2.138   5.541  14.314 -0.3343  0.4095  0.5272
14417TIP3    H164666   2.112   5.611  14.374  0.5300  1.4416 -0.2849
14417TIP3    H264667   2.094   5.562  14.232  0.0091  0.0517  0.2484
14418TIP3   OH264668   4.449   6.007  13.124 -0.1455  0.5722 -0.4247
14418TIP3    H164669   4.467   5.984  13.215  0.5545 -3.7641 -1.4385
14418TIP3    H264670   4.353   6.009  13.118 -0.2005  1.8126  0.5262
14419TIP3   OH264671   6.281   2.756  10.904  0.8016 -0.2549  0.1020
14419TIP3    H164672   6.260   2.813  10.979 -2.4132  1.3661 -1.7878
14419TIP3    H264673   6.350   2.803  10.857 -1.3334  1.9593 -1.0566
14420TIP3   OH264674   1.371   3.013   2.349 -0.2376 -0.2066  0.2808
14420TIP3    H164675   1.406   3.014   2.438 -1.2668 -0.5842  0.7063
14420TIP3    H264676   1.321   2.931   2.344  1.3215 -1.1228 -1.2512
14421TIP3   OH264677   3.380   3.469  11.545  0.1395 -0.3306 -0.2415
14421TIP3    H164678   3.440   3.485  11.472 -0.0883 -0.6250 -0.4919
14421TIP3    H264679   3.426   3.408  11.601  0.7534  0.6902  0.4013
14422TIP3   OH264680   6.157   0.838  15.445  0.4008 -0.5700  0.2284
14422TIP3    H164681   6.214   0.905  15.408  0.5404 -0.3693  0.7917
14422TIP3    H264682   6.163   0.764  15.384 -0.2372  0.1458 -0.7379
14423TIP3   OH264683   2.785   0.050   4.830  0.9425 -0.3229 -0.0201
14423TIP3    H164684   2.746  -0.036   4.846  1.8175 -1.2128 -2.2284
14423TIP3    H264685   2.877   0.031   4.809  1.0260  1.0929 -1.0743
14424TIP3   OH264686   6.790   0.275   5.183  0.5777 -0.3558  0.2793
14424TIP3    H164687   6.717   0.320   5.226 -1.3703 -1.9789 -1.0993
14424TIP3    H264688   6.844   0.345   5.147 -0.0999  0.9125  1.6204
14425TIP3   OH264689   6.309   3.556  11.368  0.8112 -0.2773  0.9627
14425TIP3    H164690   6.372   3.585  11.434  1.5497 -0.4565  0.3498
14425TIP3    H264691   6.260   3.485  11.410  0.6311  0.2273  1.6327
14426TIP3   OH264692   5.553   6.291   6.007 -0.0017 -0.1229  0.6074
14426TIP3    H164693   5.629   6.322   5.959 -1.4716  2.2937 -0.3269
14426TIP3    H264694   5.575   6.201   6.032  2.2081 -0.2732 -1.5888
14427TIP3   OH264695   5.320   6.324   5.444  0.2521  0.1547  0.5200
14427TIP3    H164696   5.246   6.264   5.430  0.7553  0.0261 -2.1644
14427TIP3    H264697   5.336   6.321   5.538 -4.3026  1.6103  1.6111
14428TIP3   OH264698   0.562   2.491  13.898 -1.0877  0.1225 -0.5740
14428TIP3    H164699   0.508   2.539  13.835 -0.1040  1.5283 -0.3952
14428TIP3    H264700   0.504   2.477  13.973 -1.4811  0.8172 -0.7342
14429TIP3   OH264701   3.413   4.253   1.045  0.1312 -0.5426 -0.1029
14429TIP3    H164702   3.342   4.189   1.034 -1.7752  1.3528  0.4214
14429TIP3    H264703   3.429   4.286   0.957  1.0003 -1.5558 -0.3489
14430TIP3   OH264704   5.667   1.634   3.907 -0.1716 -0.5607 -0.0657
14430TIP3    H164705   5.592   1.664   3.856  0.9944  2.2418 -0.3230
14430TIP3    H264706   5.727   1.597   3.841 -0.4314 -0.8474 -0.1436
14431TIP3   OH264707   0.232   5.341   0.558  0.2224 -0.1067 -0.6969
14431TIP3    H164708   0.232   5.344   0.462 -0.1230 -0.2849 -0.7043
14431TIP3    H264709   0.238   5.433   0.585  0.2127 -0.0496 -0.8884
14432TIP3   OH264710   0.756   3.534  13.350 -0.2128  0.5391 -0.3901
14432TIP3    H164711   0.749   3.541  13.254 -0.7762 -1.0611 -0.4899
14432TIP3    H264712   0.665   3.526  13.380  0.0072  0.3043  0.2210
14433TIP3   OH264713   5.532   2.509   6.109  0.5470 -1.1068  0.4378
14433TIP3    H164714   5.458   2.543   6.058  1.5657 -0.3064 -0.5483
14433TIP3    H264715   5.506   2.522   6.200 -0.5396 -0.8897  0.1134
14434TIP3   OH264716   5.372   5.108   2.544  0.1043  0.2750 -0.5242
14434TIP3    H164717   5.310   5.136   2.611  0.5177  1.4442 -0.5943
14434TIP3    H264718   5.320   5.102   2.464 -0.0817  0.4492 -0.4177
14435TIP3   OH264719   5.466   0.023  11.657  0.7002  0.3501 -0.5052
14435TIP3    H164720   5.460  -0.073  11.665 -0.3043  0.4455  0.0356
14435TIP3    H264721   5.559   0.042  11.663  0.7854 -0.4378  1.3828
14436TIP3   OH264722   0.567   2.484   3.460 -0.1155 -0.0982 -0.6718
14436TIP3    H164723   0.562   2.577   3.438 -1.5327  0.6073  2.1492
14436TIP3    H264724   0.511   2.440   3.395 -1.9794  1.4492 -0.1791
14437TIP3   OH264725   5.505   2.538   5.407  0.4063 -0.2591 -0.3078
14437TIP3    H164726   5.597   2.541   5.432 -0.0893  0.2841  1.5703
14437TIP3    H264727   5.463   2.484   5.474 -1.1799  2.2293  0.8694
14438TIP3   OH264728   4.966   4.401  16.615 -0.4532  0.7682  0.0128
14438TIP3    H164729   5.054   4.434  16.634  0.5569 -0.1428 -2.5630
14438TIP3    H264730   4.979   4.307  16.600 -1.7354  0.7210 -0.9495
14439TIP3   OH264731   0.855   3.967   1.544  0.3973 -0.7218 -0.1557
14439TIP3    H164732   0.789   3.986   1.611  0.7416  0.7416 -0.2016
14439TIP3    H264733   0.826   3.885   1.505 -0.9912 -0.4926  0.3218
14440TIP3   OH264734   5.940   5.641  11.047 -0.7955 -0.4777  0.5554
14440TIP3    H164735   5.930   5.549  11.021  0.5071  0.0182 -2.0139
14440TIP3    H264736   5.935   5.690  10.965 -0.4896  1.6730  1.7457
14441TIP3   OH264737   0.856   3.953  10.695  0.0495  0.6120 -0.4089
14441TIP3    H164738   0.924   3.996  10.644  1.1093  0.5094  0.8682
14441TIP3    H264739   0.782   4.014  10.694  1.0382  1.8446  0.2221
14442TIP3   OH264740   5.478   0.318  16.121 -0.4394 -0.3898  0.3712
14442TIP3    H164741   5.412   0.387  16.117  0.8902  0.8889 -0.4263
14442TIP3    H264742   5.429   0.239  16.142 -2.1931  0.5440 -0.0628
14443TIP3   OH264743   2.029   6.074  14.369 -0.8369 -0.4592  0.1273
14443TIP3    H164744   2.074   6.115  14.295 -0.8341 -0.7409 -0.0273
14443TIP3    H264745   2.095   6.072  14.438 -1.4868  1.9337  0.9383
14444TIP3   OH264746   4.103   5.961   4.355  0.4255 -0.1657  0.7253
14444TIP3    H164747   4.053   5.939   4.276  1.5483  1.5890 -0.5445
14444TIP3    H264748   4.049   5.928   4.427 -1.5002 -0.2670 -0.6731
14445TIP3   OH264749   4.706   6.076  15.578  0.1013 -0.0083 -0.2233
14445TIP3    H164750   4.616   6.093  15.550 -0.1153 -0.6895  0.0436
14445TIP3    H264751   4.702   6.078  15.674 -0.4330 -3.8190 -0.0477
14446TIP3   OH264752   1.530   5.027  13.918  0.6949  0.3628  0.2385
14446TIP3    H164753   1.451   5.080  13.909 -1.7483 -2.5873  2.1954
14446TIP3    H264754   1.521   4.959  13.851  1.1681 -0.4137  0.9455
14447TIP3   OH264755   2.303   1.589  15.714  0.3177  0.1025 -0.0281
14447TIP3    H164756   2.264   1.580  15.627  0.1621 -0.4160  0.0879
14447TIP3    H264757   2.366   1.517  15.720 -1.1209 -1.1278  1.0344
14448TIP3   OH264758   6.462   4.912   3.538  0.0766 -0.0424  0.2222
14448TIP3    H164759   6.422   4.907   3.625  0.5869  0.4859  0.4901
14448TIP3    H264760   6.542   4.860   3.545  0.4171  0.4691  0.2469
14449TIP3   OH264761   0.260   0.796   5.301 -0.2594  0.3046  0.1875
14449TIP3    H164762   0.293   0.841   5.379 -1.7163 -2.0781  2.3544
14449TIP3    H264763   0.327   0.731   5.280 -0.5466 -0.0594  0.3949
14450TIP3   OH264764   0.435   6.799   3.298  0.3464  0.1895  0.1769
14450TIP3    H164765   0.359   6.791   3.241  1.4074  0.3167 -1.3193
14450TIP3    H264766   0.445   6.713   3.338 -0.1125 -0.0586 -0.2334
14451TIP3   OH264767   5.112   1.154   5.604  0.6188  0.9548  0.2610
14451TIP3    H164768   5.132   1.247   5.614  0.1875  1.1892 -0.8317
14451TIP3    H264769   5.192   1.109   5.632  1.7675  1.7609 -1.5112
14452TIP3   OH264770   4.551   2.098  15.813 -0.4389  0.6294  0.0248
14452TIP3    H164771   4.545   2.027  15.878 -0.1331  0.6192  0.0411
14452TIP3    H264772   4.643   2.099  15.786 -0.8336 -0.2358 -1.3981
14453TIP3   OH264773   3.447   6.185   2.255 -0.8990 -0.5670  0.2906
14453TIP3    H164774   3.390   6.193   2.179 -3.5726 -2.8834  1.8129
14453TIP3    H264775   3.513   6.120   2.230  0.9572  1.7697 -1.3227
14454TIP3   OH264776   4.206   5.946  11.464  0.0802 -0.5032 -0.0519
14454TIP3    H164777   4.125   5.902  11.489  0.6348 -1.4986  0.0426
14454TIP3    H264778   4.272   5.877  11.467  0.7244  0.0441 -1.2280
14455TIP3   OH264779   5.149   0.862  10.913  0.5522 -0.7148  0.1369
14455TIP3    H164780   5.102   0.779  10.907  0.6554 -0.7223 -0.7144
14455TIP3    H264781   5.081   0.928  10.927  0.2454 -0.6961 -1.3276
14456TIP3   OH264782   3.851   0.192   3.498 -0.6271  0.0247 -0.3273
14456TIP3    H164783   3.764   0.231   3.486 -0.7831 -0.5194 -1.0361
14456TIP3    H264784   3.860   0.132   3.424  0.9749  1.1857 -1.1420
14457TIP3   OH264785   5.658   6.218   2.655 -0.5427 -0.1671  0.7230
14457TIP3    H164786   5.721   6.154   2.622  0.6003  0.5480  1.4067
14457TIP3    H264787   5.658   6.205   2.750 -0.8200  0.3772  0.8029
14458TIP3   OH264788   4.431   3.183   0.718 -0.1099  0.1675  0.2210
14458TIP3    H164789   4.420   3.088   0.721  0.2509  0.1148 -0.0570
14458TIP3    H264790   4.397   3.214   0.802  0.0603 -0.2359  0.4416
14459TIP3   OH264791   1.730   4.037  13.220 -0.2233 -0.2553  0.6836
14459TIP3    H164792   1.692   4.044  13.307  1.2949 -1.3687  1.4921
14459TIP3    H264793   1.822   4.015  13.236 -0.1310 -1.4831 -1.1924
14460TIP3   OH264794   0.082   2.069  15.697  0.1038  0.1813 -0.5642
14460TIP3    H164795   0.162   2.060  15.646 -1.5830  1.3115 -3.7493
14460TIP3    H264796   0.019   2.010  15.654 -1.0884  0.1728  1.1012
14461TIP3   OH264797   3.311   2.195   4.166 -0.1620 -0.3067  0.1236
14461TIP3    H164798   3.224   2.207   4.128 -0.3904 -0.9650  0.4215
14461TIP3    H264799   3.328   2.101   4.157  0.3225 -0.2559  0.4876
14462TIP3   OH264800   0.216   2.235  14.263 -0.2070  0.5974 -0.7203
14462TIP3    H164801   0.250   2.235  14.353 -1.0842 -4.1589 -0.0994
14462TIP3    H264802   0.136   2.287  14.268 -1.7250 -1.6559  2.1373
14463TIP3   OH264803   6.292   6.610   5.601  0.6661 -0.0142 -0.1752
14463TIP3    H164804   6.318   6.521   5.625 -0.3192 -0.2381  0.0972
14463TIP3    H264805   6.196   6.608   5.598  0.6321  0.9988 -0.3112
14464TIP3   OH264806   4.282   0.831   0.474  0.4806  0.5595  0.4153
14464TIP3    H164807   4.339   0.824   0.551 -1.2593 -3.1372  1.6185
14464TIP3    H264808   4.341   0.816   0.400  1.7416  1.2535  1.2401
14465TIP3   OH264809   4.705   3.217   1.079 -0.0723  0.3218 -0.8522
14465TIP3    H164810   4.776   3.260   1.127 -1.0106  0.2557  0.6999
14465TIP3    H264811   4.746   3.143   1.035  1.1886  1.5390 -1.7940
14466TIP3   OH264812   1.088   5.693   4.045  0.0080  0.4763  0.0389
14466TIP3    H164813   1.027   5.764   4.067  0.5503  0.9984 -0.0958
14466TIP3    H264814   1.042   5.613   4.068 -0.8671  0.8469 -0.4070
14467TIP3   OH264815   2.456   6.388   4.617 -0.5357 -0.4858 -0.4596
14467TIP3    H164816   2.551   6.388   4.604 -0.4388 -0.0401  0.1853
14467TIP3    H264817   2.439   6.306   4.664 -0.3159 -0.0445  0.4087
14468TIP3   OH264818   5.739   1.260   1.160  0.0219 -0.3220 -0.2688
14468TIP3    H164819   5.709   1.274   1.070 -0.2583 -1.4583 -0.3608
14468TIP3    H264820   5.834   1.265   1.154 -0.0098  0.0168 -0.5526
14469TIP3   OH264821   3.016   1.547  12.293  0.7007 -0.1101  0.3351
14469TIP3    H164822   3.009   1.538  12.388 -0.9806  0.0073  0.2596
14469TIP3    H264823   2.997   1.459  12.260 -1.4795  0.3885  0.0660
14470TIP3   OH264824   3.976   2.360   0.263  0.2739 -0.6195  0.0937
14470TIP3    H164825   3.885   2.388   0.272  0.0101 -1.1071 -0.9127
14470TIP3    H264826   4.027   2.434   0.296 -0.4875 -0.6733  1.4589
14471TIP3   OH264827   5.370   1.304   4.749  0.2104  0.8870 -0.8399
14471TIP3    H164828   5.454   1.264   4.770 -0.6575 -1.2902 -1.2758
14471TIP3    H264829   5.380   1.335   4.659  0.5162  0.5466 -0.9239
14472TIP3   OH264830   3.079   2.811   5.836  0.3317 -0.2041  0.2503
14472TIP3    H164831   3.164   2.766   5.837 -0.1754 -1.2285  1.5346
14472TIP3    H264832   3.069   2.844   5.925 -1.1542 -1.2228  0.4992
14473TIP3   OH264833   3.255   5.598   0.005 -0.3717  0.3493 -0.3493
14473TIP3    H164834   3.232   5.507  -0.012 -1.7198  0.4908  0.5097
14473TIP3    H264835   3.317   5.594   0.077 -1.0962  0.1292  0.2773
14474TIP3   OH264836   5.953   1.847   1.825  0.0040 -0.0006  0.1966
14474TIP3    H164837   6.043   1.874   1.845  0.5132 -2.6566  1.9354
14474TIP3    H264838   5.913   1.834   1.911 -1.1805 -1.4559 -0.5379
14475TIP3   OH264839   5.889   1.149   5.575 -0.6772 -0.3553  0.0433
14475TIP3    H164840   5.904   1.093   5.499 -0.7360  0.0159 -0.2457
14475TIP3    H264841   5.894   1.238   5.541 -0.1292 -0.1705  0.5795
14476TIP3   OH264842   3.599   4.119  14.151 -0.1530  0.2345  0.9492
14476TIP3    H164843   3.619   4.077  14.235 -0.1664 -0.3335  0.6734
14476TIP3    H264844   3.685   4.133  14.111 -0.2206 -1.8310 -0.0561
14477TIP3   OH264845   3.099   4.793   0.047  0.0859  0.2137 -0.1195
14477TIP3    H164846   3.043   4.870   0.042  1.4705  1.2437 -0.5402
14477TIP3    H264847   3.082   4.745  -0.034 -0.7100  0.1183  0.0972
14478TIP3   OH264848   6.392   0.515   3.177  0.3804  0.1494  0.3642
14478TIP3    H164849   6.377   0.442   3.117  0.8400  0.3799 -0.0432
14478TIP3    H264850   6.436   0.475   3.252 -0.6374 -0.2222  0.7790
14479TIP3   OH264851   0.544   4.681  11.356 -0.0048  0.6537 -0.4727
14479TIP3    H164852   0.470   4.639  11.312  0.6761 -1.4880  0.2947
14479TIP3    H264853   0.521   4.680  11.449  1.0308 -0.2065 -0.2049
14480TIP3   OH264854   2.061   4.863   0.635 -0.5496  0.0268 -0.3214
14480TIP3    H164855   2.068   4.781   0.586  1.0422 -0.4793  0.6922
14480TIP3    H264856   2.151   4.883   0.662 -1.1720  1.0749  1.0952
14481TIP3   OH264857   3.777   4.642   0.399 -0.2589 -0.7962  0.3459
14481TIP3    H164858   3.825   4.725   0.409  1.4526 -1.7907  0.7176
14481TIP3    H264859   3.685   4.668   0.401  0.1546  0.8477  2.9545
14482TIP3   OH264860   3.843   3.137  14.546 -0.2098 -0.2416 -0.3393
14482TIP3    H164861   3.797   3.171  14.470  3.1910  1.2867 -1.9281
14482TIP3    H264862   3.805   3.050  14.561 -0.4168 -1.0550 -4.4504
14483TIP3   OH264863   6.292   6.221  16.844  0.3484 -0.4232  0.3926
14483TIP3    H164864   6.272   6.197  16.934 -0.1054  2.2921  1.1042
14483TIP3    H264865   6.359   6.289  16.851  2.1933 -1.9190 -1.4945
14484TIP3   OH264866   5.805   5.736  13.715  0.3438 -0.2799  0.1101
14484TIP3    H164867   5.840   5.680  13.784 -2.0152 -0.6540  1.0702
14484TIP3    H264868   5.782   5.817  13.759 -0.8375 -0.3839 -0.2774
14485TIP3   OH264869   3.622   3.761  16.907  0.4740  0.4495 -0.0742
14485TIP3    H164870   3.555   3.810  16.860  0.1247 -1.2366 -1.4691
14485TIP3    H264871   3.663   3.706  16.840  2.0418  0.1286  1.0742
14486TIP3   OH264872   3.242   4.490   5.246  0.3589  0.3294  0.9185
14486TIP3    H164873   3.226   4.440   5.166 -1.1119  0.1492  1.2979
14486TIP3    H264874   3.299   4.433   5.298  2.5809  1.0658 -0.5539
14487TIP3   OH264875   1.101   4.769  13.561  0.2047 -0.6618 -0.1619
14487TIP3    H164876   1.123   4.772  13.655 -0.4625 -0.7241 -0.0014
14487TIP3    H264877   1.185   4.755  13.518  0.4849 -0.9081  0.4475
14488TIP3   OH264878   5.034   0.369   0.357  0.2813  0.1422  0.5384
14488TIP3    H164879   4.942   0.350   0.376  0.2491 -0.5447 -0.2497
14488TIP3    H264880   5.056   0.309   0.285  1.1917  0.6745  0.3677
14489TIP3   OH264881   0.187   4.002   0.959  0.0643 -0.2509  0.2562
14489TIP3    H164882   0.274   4.009   0.998 -0.2913 -0.1529  1.0398
14489TIP3    H264883   0.148   3.925   1.000 -0.7163  0.4753  0.9174
14490TIP3   OH264884   4.025   3.557   0.849 -0.3243 -0.1999 -0.5101
14490TIP3    H164885   4.021   3.462   0.858  0.4328 -0.1865  0.0916
14490TIP3    H264886   3.940   3.588   0.880  0.5511 -0.4893  2.5212
14491TIP3   OH264887   6.310   3.033  11.086 -0.2947  0.6245  0.3102
14491TIP3    H164888   6.405   3.024  11.093 -0.3836 -0.3385  0.3716
14491TIP3    H264889   6.295   3.127  11.079  0.6063  0.8323  1.0924
14492TIP3   OH264890   5.282   4.708  12.611  0.0182  0.4191  0.9330
14492TIP3    H164891   5.312   4.628  12.654 -2.1826 -1.2616 -0.4177
14492TIP3    H264892   5.341   4.719  12.537 -1.4072 -1.8081 -0.6652
14493TIP3   OH264893   4.657   0.578   0.608 -0.3363 -0.1985  0.0749
14493TIP3    H164894   4.701   0.544   0.686  1.5202 -0.2067 -0.9095
14493TIP3    H264895   4.653   0.504   0.548 -1.0412  0.0073 -0.1442
14494TIP3   OH264896   5.452   0.709  12.393 -0.2168  0.3516  0.1976
14494TIP3    H164897   5.444   0.796  12.354 -0.4469  0.3938  0.3306
14494TIP3    H264898   5.537   0.677  12.365  0.2746  0.9977  0.8990
14495TIP3   OH264899   4.990   6.291  12.776 -0.4282 -0.2469 -0.0248
14495TIP3    H164900   5.032   6.205  12.770 -0.4720 -0.3732  1.3346
14495TIP3    H264901   4.908   6.281  12.728 -0.2198 -0.8201 -0.2723
14496TIP3   OH264902   6.053   0.936   3.018  0.5621 -0.3391  0.1243
14496TIP3    H164903   6.084   0.851   3.047  0.0929 -0.4112  0.4228
14496TIP3    H264904   6.043   0.987   3.099  1.0107  0.0563 -0.0671
14497TIP3   OH264905   6.382   4.721   6.003 -0.0338  0.6190 -0.3922
14497TIP3    H164906   6.414   4.795   6.055  0.2638  0.8706 -0.9173
14497TIP3    H264907   6.288   4.734   5.999 -0.0246  0.7634 -0.1724
14498TIP3   OH264908   6.471   5.655  10.737  0.2286 -0.0165  0.9542
14498TIP3    H164909   6.402   5.628  10.676  1.0473 -0.8196  0.3496
14498TIP3    H264910   6.514   5.728  10.693 -1.0899  1.4157  1.9576
14499TIP3   OH264911   5.677   2.309   1.716 -0.1312  0.0447 -0.2398
14499TIP3    H164912   5.724   2.228   1.737 -0.5537 -0.5249 -1.3682
14499TIP3    H264913   5.616   2.283   1.647 -0.3051  1.3266 -0.5852
14500TIP3   OH264914   4.996   5.385   5.847  0.7982  0.2718  0.5798
14500TIP3    H164915   4.943   5.454   5.888  0.1388  0.2865 -0.2492
14500TIP3    H264916   4.952   5.303   5.872 -1.7743  0.3760 -2.7769
14501TIP3   OH264917   3.256   5.384   3.734 -0.1211  0.3916 -0.0552
14501TIP3    H164918   3.176   5.371   3.786 -0.4131  0.4107 -0.4919
14501TIP3    H264919   3.242   5.330   3.656  0.8408 -0.6071  0.4292
14502TIP3   OH264920   4.380   1.199   2.066  0.2709 -0.1991  0.6548
14502TIP3    H164921   4.415   1.202   2.155  1.1518  0.1971  0.3147
14502TIP3    H264922   4.367   1.106   2.048 -1.2694 -0.2158  1.6909
14503TIP3   OH264923   4.495   2.675  12.819  0.1343  0.1555  0.4605
14503TIP3    H164924   4.456   2.659  12.905 -1.1146  0.1405 -0.0797
14503TIP3    H264925   4.449   2.615  12.760 -0.9119  1.9604 -0.6745
14504TIP3   OH264926   6.232   6.303   2.887 -0.8517  0.0294 -0.5128
14504TIP3    H164927   6.139   6.327   2.879 -0.7904 -0.0397 -1.5762
14504TIP3    H264928   6.266   6.308   2.798  0.1581 -0.0200 -0.1455
14505TIP3   OH264929   2.772   6.129   1.783 -0.5038  0.1079  0.2177
14505TIP3    H164930   2.833   6.086   1.723  1.5327  0.8207  1.6856
14505TIP3    H264931   2.711   6.060   1.808 -0.3484 -0.6279 -1.3052
14506TIP3   OH264932   5.663   2.329  11.268 -0.0249  0.1938  0.1836
14506TIP3    H164933   5.662   2.360  11.358  0.1799 -0.4699  0.4192
14506TIP3    H264934   5.755   2.309  11.250  0.2167  1.9119 -0.7424
14507TIP3   OH264935   3.809   1.360  11.013  0.3712  0.4745  1.0690
14507TIP3    H164936   3.726   1.336  10.971  0.6382  0.5446  0.4824
14507TIP3    H264937   3.813   1.306  11.092  1.8734 -3.0579 -1.1471
14508TIP3   OH264938   1.058   1.584  15.437  0.1332 -0.1477 -0.1597
14508TIP3    H164939   0.967   1.599  15.462  0.4692 -1.1906  1.9243
14508TIP3    H264940   1.055   1.567  15.343 -1.7057  0.6507 -0.2867
14509TIP3   OH264941   4.251   5.218   3.634 -0.2566  0.0890 -0.0169
14509TIP3    H164942   4.286   5.264   3.710 -0.4780  0.2765 -0.0251
14509TIP3    H264943   4.315   5.233   3.565 -0.6971  1.0593 -0.2420
14510TIP3   OH264944   6.299   4.499   2.180  0.0729 -0.5026  0.3864
14510TIP3    H164945   6.376   4.510   2.125  0.4811 -0.8919  0.8669
14510TIP3    H264946   6.330   4.519   2.269 -0.9364  1.6660  0.3079
14511TIP3   OH264947   1.411   5.733  16.513  0.7093 -0.0767  0.3379
14511TIP3    H164948   1.434   5.644  16.538 -1.4569 -0.3168  1.7610
14511TIP3    H264949   1.437   5.786  16.589 -2.5848 -0.2816  1.7399
14512TIP3   OH264950   6.309   4.332  15.804 -0.7067  0.3307 -0.2050
14512TIP3    H164951   6.308   4.423  15.775  1.1699  0.5502  0.2612
14512TIP3    H264952   6.355   4.285  15.734  1.4952  0.4106  1.0952
14513TIP3   OH264953   4.153   5.334  15.069 -1.0936 -0.4779 -0.1583
14513TIP3    H164954   4.126   5.242  15.069 -1.3219 -0.4261 -1.3518
14513TIP3    H264955   4.226   5.337  15.132 -0.3337 -1.7165 -0.9200
14514TIP3   OH264956   3.724   1.671   2.899  0.4693  0.5721  0.2832
14514TIP3    H164957   3.751   1.579   2.904 -0.3108  0.3790  1.1943
14514TIP3    H264958   3.667   1.684   2.975 -1.2386  1.2037 -1.0294
14515TIP3   OH264959   6.329   4.644   5.266  0.1930 -0.3681  0.0507
14515TIP3    H164960   6.278   4.584   5.320 -0.8434 -0.6823 -1.2317
14515TIP3    H264961   6.369   4.588   5.199  1.6440 -0.0177  0.5874
14516TIP3   OH264962   5.957   5.863   1.444 -0.4602 -0.2228 -0.0088
14516TIP3    H164963   5.963   5.769   1.461 -0.5655  0.0992  1.9751
14516TIP3    H264964   5.929   5.868   1.352 -0.5374 -2.1190 -0.1360
14517TIP3   OH264965   3.696   5.166  12.474 -0.2101 -0.1041 -0.2177
14517TIP3    H164966   3.672   5.215  12.552 -0.1513  0.4231 -0.5219
14517TIP3    H264967   3.738   5.087  12.507 -0.2081  0.1039  0.2858
14518TIP3   OH264968   4.110   4.585   2.151  0.0009  0.7884 -0.0081
14518TIP3    H164969   4.083   4.577   2.060 -0.7131  0.8900  0.1878
14518TIP3    H264970   4.064   4.515   2.196 -0.0223  1.0343  0.3587
14519TIP3   OH264971   2.161   4.219   4.121 -0.2369 -1.0344 -0.1132
14519TIP3    H164972   2.247   4.188   4.149 -0.9785 -1.7906  1.4414
14519TIP3    H264973   2.180   4.286   4.056  1.6357  0.6271  1.9906
14520TIP3   OH264974   1.798   6.099   2.460 -0.3344 -0.4261  0.6382
14520TIP3    H164975   1.846   6.023   2.427  0.7783 -1.4034  4.1048
14520TIP3    H264976   1.712   6.093   2.420  0.3511 -2.3921 -0.6598
14521TIP3   OH264977   0.727   4.838  13.278 -0.0717 -0.3974  0.0691
14521TIP3    H164978   0.728   4.763  13.218 -0.9167  0.5833 -1.2270
14521TIP3    H264979   0.711   4.913  13.221  1.4923  0.8847  1.2333
14522TIP3   OH264980   4.691   5.352  13.883 -0.9925  0.3652  0.5757
14522TIP3    H164981   4.713   5.311  13.800 -0.9598  2.0362 -0.2842
14522TIP3    H264982   4.655   5.281  13.936 -1.6785 -0.6160 -1.1112
14523TIP3   OH264983   1.220   5.873  12.407 -0.2697  0.1145 -0.1990
14523TIP3    H164984   1.260   5.940  12.463  1.5636 -2.0241  1.2030
14523TIP3    H264985   1.154   5.832  12.462 -0.8050  0.2015 -0.7715
14524TIP3   OH264986   5.582   5.837  11.096  0.9504  0.4675 -0.6143
14524TIP3    H164987   5.669   5.865  11.068  0.7552  0.1480 -1.5832
14524TIP3    H264988   5.550   5.782  11.024  0.3593 -0.2466  0.1789
14525TIP3   OH264989   5.464   1.867  11.334 -0.0684  0.2699  0.4155
14525TIP3    H164990   5.430   1.923  11.403 -0.4187  0.5108  0.0533
14525TIP3    H264991   5.411   1.888  11.257 -0.6004 -0.9549  0.4106
14526TIP3   OH264992   5.516   4.666   4.330  0.3919  0.8284  0.2227
14526TIP3    H164993   5.604   4.702   4.341  0.2565  1.8715 -1.6438
14526TIP3    H264994   5.524   4.603   4.259 -0.1059 -0.1606  1.0166
14527TIP3   OH264995   6.113   5.518   2.632  0.7384 -0.4298  0.1176
14527TIP3    H164996   6.019   5.502   2.621  0.7481 -0.2176 -0.2734
14527TIP3    H264997   6.119   5.576   2.708  0.3191  2.2216 -1.7513
14528TIP3   OH264998   3.402   1.705   3.584  0.0155  0.0850 -0.0619
14528TIP3    H164999   3.452   1.773   3.629 -0.3531  0.7561 -0.6544
14528TIP3    H265000   3.360   1.656   3.655  0.3543  0.4160  0.3722
14529TIP3   OH265001   6.663   4.125   4.409 -0.3445  0.1666  0.3800
14529TIP3    H165002   6.598   4.190   4.382  0.3282  0.4186 -0.6848
14529TIP3    H265003   6.702   4.094   4.327  1.3708  0.5397  1.0147
14530TIP3   OH265004   1.790   6.470   3.639 -0.6891 -0.4873 -0.3705
14530TIP3    H165005   1.857   6.483   3.572 -0.2223 -0.8963  0.0089
14530TIP3    H265006   1.839   6.464   3.721 -1.2516 -0.0480  0.0024
14531TIP3   OH265007   1.081   5.279  16.200  0.0149 -0.0166 -0.6653
14531TIP3    H165008   1.157   5.252  16.252 -2.1854 -0.3235  2.7024
14531TIP3    H265009   1.048   5.357  16.245 -1.1632  0.6976 -2.6347
14532TIP3   OH265010   1.213   5.203   3.623  0.0194  0.4565  0.3230
14532TIP3    H165011   1.258   5.163   3.698  0.5449 -0.7032 -0.5652
14532TIP3    H265012   1.181   5.287   3.655  2.5321  1.1875  1.1056
14533TIP3   OH265013   5.592   3.969  16.366  0.5891 -0.2312 -0.7235
14533TIP3    H165014   5.566   3.918  16.444 -0.0116  0.5492 -0.3955
14533TIP3    H265015   5.660   3.916  16.325  2.0853  0.0741  1.2035
14534TIP3   OH265016   3.837   2.163  16.289 -0.1490  0.3016  0.1682
14534TIP3    H165017   3.788   2.081  16.285 -2.1515  1.3777  1.2171
14534TIP3    H265018   3.860   2.173  16.381  2.5502 -0.3794 -0.3352
14535TIP3   OH265019   2.546   1.552  12.386 -0.3830  0.2344 -0.4349
14535TIP3    H165020   2.628   1.538  12.338  0.1231 -0.3069  0.5701
14535TIP3    H265021   2.572   1.557  12.478 -1.4070  0.7453 -0.1577
14536TIP3   OH265022   3.543   0.092   5.502  0.0013 -0.0663  0.2825
14536TIP3    H165023   3.560   0.113   5.410  2.0273  0.3102  0.6858
14536TIP3    H265024   3.581   0.166   5.551 -2.9891  0.8699  1.4057
14537TIP3   OH265025   0.227   0.419  13.430 -0.0879  0.3307  0.0775
14537TIP3    H165026   0.311   0.454  13.462  0.0486 -0.3504  0.4688
14537TIP3    H265027   0.207   0.474  13.354 -0.1524  1.6257  0.9901
14538TIP3   OH265028   0.871   3.109  12.191 -0.6564  0.4487 -0.0880
14538TIP3    H165029   0.795   3.092  12.248 -1.2710 -0.2686 -1.0976
14538TIP3    H265030   0.836   3.106  12.102  0.4575  0.6826 -0.5519
14539TIP3   OH265031   4.166   3.057   3.861 -0.3329  0.0595 -0.0466
14539TIP3    H165032   4.090   3.000   3.868  0.0714 -0.6729 -1.2410
14539TIP3    H265033   4.235   3.009   3.907 -0.5847  0.7351  1.0603
14540TIP3   OH265034   1.482   6.773   4.687 -0.1994 -0.4669  0.3776
14540TIP3    H165035   1.411   6.837   4.681  2.0871  2.6568  2.7484
14540TIP3    H265036   1.495   6.761   4.781 -0.2785 -4.3795  0.0537
14541TIP3   OH265037   1.222   5.491  12.119 -0.2343 -0.2088 -0.0795
14541TIP3    H165038   1.258   5.522  12.202  0.5615 -0.0368 -0.4688
14541TIP3    H265039   1.290   5.514  12.054 -0.8299 -0.3519 -0.7675
14542TIP3   OH265040   2.885   0.954   3.978  0.0428 -0.2691  0.4656
14542TIP3    H165041   2.917   0.997   4.058 -2.3928  1.7897  0.4609
14542TIP3    H265042   2.795   0.985   3.969 -0.0370 -1.1089 -2.6374
14543TIP3   OH265043   0.743   3.920  12.196  0.5448  0.6033  0.1193
14543TIP3    H165044   0.653   3.953  12.200 -0.3103 -1.2120 -1.9479
14543TIP3    H265045   0.798   3.999  12.196 -1.0329  1.7540  1.1783
14544TIP3   OH265046   4.250   2.339  16.536  0.2259 -0.1332 -0.2936
14544TIP3    H165047   4.338   2.354  16.569  0.9156 -1.2320 -1.5449
14544TIP3    H265048   4.200   2.310  16.612  1.6302 -2.0737 -0.0535
14545TIP3   OH265049   6.271   5.616   3.500  0.4847 -0.2039 -0.5217
14545TIP3    H165050   6.290   5.693   3.446 -0.5294  0.4173 -0.0236
14545TIP3    H265051   6.346   5.609   3.559  1.6736 -0.9680 -2.0425
14546TIP3   OH265052   3.956   6.407   0.893  0.3519 -0.6570 -0.1256
14546TIP3    H165053   3.989   6.332   0.845  1.0530  0.1221 -0.8999
14546TIP3    H265054   4.014   6.415   0.969  0.7312 -0.4625 -0.4350
14547TIP3   OH265055   5.955   2.129  12.164  0.0759 -0.0778  0.4874
14547TIP3    H165056   5.944   2.222  12.146 -0.7937 -0.2793 -0.1251
14547TIP3    H265057   6.039   2.122  12.210 -0.2609  1.0940  1.3097
14548TIP3   OH265058   6.478   4.877   0.642  0.3247 -0.2792 -0.1076
14548TIP3    H165059   6.483   4.944   0.573 -1.0669  0.5873  0.5895
14548TIP3    H265060   6.568   4.848   0.654  0.8648  1.0109 -0.8697
14549TIP3   OH265061   2.347   6.502  12.879  0.9790 -0.5510 -0.3777
14549TIP3    H165062   2.296   6.559  12.936 -1.8702 -2.5023 -0.7576
14549TIP3    H265063   2.385   6.436  12.938  1.4912 -0.2014 -0.3103
14550TIP3   OH265064   1.922   2.750  16.591  0.8383  0.1320  0.1605
14550TIP3    H165065   1.949   2.665  16.555 -0.1940  0.8876 -2.6772
14550TIP3    H265066   2.000   2.805  16.582  1.0483 -0.0972  0.5561
14551TIP3   OH265067   0.116   5.325   2.398  0.7083 -0.2393  0.3001
14551TIP3    H165068   0.110   5.264   2.472 -2.2617 -0.4067  0.0234
14551TIP3    H265069   0.180   5.390   2.426  1.1910 -1.4298  2.1374
14552TIP3   OH265070   2.950   2.109  11.270 -0.2369  0.5763  0.2377
14552TIP3    H165071   2.991   2.183  11.314 -1.3310  0.9094  0.7350
14552TIP3    H265072   2.930   2.142  11.182  0.8416  0.2996 -0.1300
14553TIP3   OH265073   4.903   4.555  13.176 -0.1241  0.0663 -0.3050
14553TIP3    H165074   4.926   4.509  13.095 -2.8053  0.1064 -1.1885
14553TIP3    H265075   4.886   4.645  13.148  2.2080  0.9921  0.9350
14554TIP3   OH265076   3.168   0.012  16.105  0.1296  0.6519 -0.0583
14554TIP3    H165077   3.195   0.078  16.041 -1.7014  0.0388 -1.5475
14554TIP3    H265078   3.085   0.046  16.140 -0.5931 -0.6085 -0.5036
14555TIP3   OH265079   4.527   0.523  13.133  0.6844 -0.0350 -0.1922
14555TIP3    H165080   4.452   0.471  13.104 -0.4457  0.6638  1.3310
14555TIP3    H265081   4.499   0.614  13.123  1.4744  0.2455  0.0358
14556TIP3   OH265082   4.917   2.311  11.034  0.1232 -0.0378 -0.4879
14556TIP3    H165083   4.836   2.282  10.991 -0.1646  0.5827 -0.3659
14556TIP3    H265084   4.888   2.371  11.103  0.4824 -1.8768  1.3726
14557TIP3   OH265085   6.489   1.632  13.915 -0.4664  0.2678  0.2052
14557TIP3    H165086   6.540   1.667  13.988  1.1726 -0.2453 -0.6371
14557TIP3    H265087   6.489   1.703  13.851 -0.5979  0.1828  0.1129
14558TIP3   OH265088   4.351   6.578  12.153  0.1918  0.7491 -0.0342
14558TIP3    H165089   4.259   6.600  12.139  0.6752  1.9570 -1.5468
14558TIP3    H265090   4.399   6.651  12.115  1.8028 -0.2956 -0.0830
14559TIP3   OH265091   6.670   6.290  17.028  0.0022  0.1886 -0.2320
14559TIP3    H165092   6.755   6.326  17.054 -1.1152  2.1229  1.0103
14559TIP3    H265093   6.683   6.195  17.030  2.1086  0.4330 -0.0275
14560TIP3   OH265094   3.255   2.822   4.227 -0.0554  0.3802 -0.1506
14560TIP3    H165095   3.174   2.778   4.253 -0.0750  1.4797  1.8884
14560TIP3    H265096   3.225   2.904   4.186 -0.0093 -1.1314 -3.4752
14561TIP3   OH265097   2.727   3.672  14.726  0.3243  0.0171  0.5354
14561TIP3    H165098   2.677   3.613  14.782 -0.0127  0.0225  0.2447
14561TIP3    H265099   2.814   3.675  14.765  1.2498 -2.9217 -1.0000
14562TIP3   OH265100   2.292   3.873   4.572  0.1256 -0.1217  0.2976
14562TIP3    H165101   2.337   3.954   4.548  0.0762  0.1661  1.1489
14562TIP3    H265102   2.222   3.901   4.631 -2.1118 -0.3825 -2.0294
14563TIP3   OH265103   6.492   4.984   3.033  0.1364 -0.3864 -0.4123
14563TIP3    H165104   6.443   5.044   2.977  1.1186  0.1373 -0.7418
14563TIP3    H265105   6.456   4.998   3.121 -0.1044  0.1894 -0.5972
14564TIP3   OH265106   1.890   4.050  14.103 -0.1972 -0.0267  0.7227
14564TIP3    H165107   1.967   4.080  14.151 -0.0966  0.0493  0.5169
14564TIP3    H265108   1.817   4.099  14.141 -0.1957 -0.3539  1.1534
14565TIP3   OH265109   0.077   4.796   1.785  0.4558  0.6016 -0.5576
14565TIP3    H165110   0.137   4.857   1.827  2.2391 -0.5270 -1.3258
14565TIP3    H265111   0.134   4.739   1.734 -1.3918  0.1339 -2.1899
14566TIP3   OH265112   3.617   3.996   1.778 -0.2664  0.2888  0.1194
14566TIP3    H165113   3.648   4.022   1.865  2.3279 -0.8176 -0.3628
14566TIP3    H265114   3.632   3.901   1.776 -1.7752  0.0606 -0.9972
14567TIP3   OH265115   5.006   2.027   1.031  0.7951 -0.3554  0.1661
14567TIP3    H165116   4.960   2.098   1.075  0.5476 -1.5732  2.0080
14567TIP3    H265117   5.034   2.064   0.948  0.3041  1.7485  0.8743
14568TIP3   OH265118   0.686   5.227   5.499 -0.5606 -0.6807  0.6560
14568TIP3    H165119   0.699   5.210   5.406  1.3404 -2.2931  1.1224
14568TIP3    H265120   0.723   5.314   5.513  0.6770 -1.0992  0.1452
14569TIP3   OH265121   6.341   2.816   3.821 -0.1272  0.0155  0.3240
14569TIP3    H165122   6.254   2.828   3.858  0.2170  0.3549  1.0616
14569TIP3    H265123   6.400   2.851   3.888  0.6044 -0.7108  0.0780
14570TIP3   OH265124   1.850   5.322  16.256 -0.2444  0.3462  0.1604
14570TIP3    H165125   1.848   5.253  16.323  0.2146 -0.8229 -1.0010
14570TIP3    H265126   1.896   5.283  16.182  0.7746  2.1899 -0.2423
14571TIP3   OH265127   2.952   1.262   0.820  0.3297 -0.0829  0.6147
14571TIP3    H165128   2.893   1.191   0.793  3.0083 -1.9678 -0.7055
14571TIP3    H265129   2.964   1.248   0.914 -3.8712  2.4963  1.8004
14572TIP3   OH265130   4.070   0.841   1.668  0.2377 -0.6552  0.5499
14572TIP3    H165131   4.094   0.787   1.743  3.1158 -0.4554 -0.0936
14572TIP3    H265132   4.077   0.782   1.593 -1.6991 -0.6232  0.3136
14573TIP3   OH265133   5.999   1.128  11.541  0.1933  0.2634 -0.0784
14573TIP3    H165134   6.094   1.143  11.550  0.2007  0.1536  0.0232
14573TIP3    H265135   5.967   1.119  11.630  0.3331 -1.1996 -0.1456
14574TIP3   OH265136   1.173   2.275   1.296  0.2469 -0.5062 -0.2943
14574TIP3    H165137   1.083   2.308   1.298  0.6009  0.4811  0.2703
14574TIP3    H265138   1.185   2.233   1.381  0.2915 -0.7083 -0.4011
14575TIP3   OH265139   6.719   1.601  15.204  0.3062 -0.8688 -0.3755
14575TIP3    H165140   6.704   1.640  15.118  1.0806 -0.1115 -0.1765
14575TIP3    H265141   6.644   1.544  15.218 -2.0265  2.1152  0.2277
14576TIP3   OH265142   6.364   1.120   2.501 -0.4573  0.4035  0.2806
14576TIP3    H165143   6.342   1.085   2.588  0.6490  1.4517  1.0140
14576TIP3    H265144   6.456   1.095   2.488 -0.1792  1.4784  0.0553
14577TIP3   OH265145   3.498   2.638   0.681 -0.1550 -0.3724  0.1596
14577TIP3    H165146   3.500   2.611   0.589 -0.1484 -0.9481  0.3259
14577TIP3    H265147   3.410   2.617   0.710  0.6448 -2.7824  1.0354
14578TIP3   OH265148   4.024   0.866  12.066  0.7744 -0.0428 -0.8515
14578TIP3    H165149   4.028   0.879  12.161 -0.8514  2.3557 -1.0173
14578TIP3    H265150   4.059   0.778  12.053  1.5603 -0.2500  1.9021
14579TIP3   OH265151   5.036   1.600   5.640  0.1494  0.1641 -0.8059
14579TIP3    H165152   5.061   1.514   5.674 -2.2450  0.0198  0.7569
14579TIP3    H265153   5.097   1.615   5.567  1.9741 -1.8993  0.1738
14580TIP3   OH265154   4.057   5.886  12.181 -0.5198  0.0351  1.1504
14580TIP3    H165155   4.060   5.927  12.094 -0.2813  1.1361  1.6570
14580TIP3    H265156   4.034   5.795  12.164  0.6407 -0.0495 -0.1622
14581TIP3   OH265157   1.758   4.941   2.341 -0.2636  0.0988 -0.4107
14581TIP3    H165158   1.820   4.873   2.366  1.4400  1.8420  0.3468
14581TIP3    H265159   1.812   5.016   2.318 -2.0674  1.1488 -1.4873
14582TIP3   OH265160   6.762   5.971   3.182  0.3693  0.7162 -0.4045
14582TIP3    H165161   6.745   5.877   3.179  2.1957  0.3006  0.6004
14582TIP3    H265162   6.830   5.981   3.250 -0.2876  2.8381  0.0257
14583TIP3   OH265163   5.304   6.451  12.461 -0.6018 -0.4246  0.1514
14583TIP3    H165164   5.347   6.394  12.525 -1.5500 -1.3914 -0.0403
14583TIP3    H265165   5.301   6.399  12.381 -1.9441 -0.3222  0.1106
14584TIP3   OH265166   1.990   0.918   4.611 -0.1501 -0.4778 -0.6577
14584TIP3    H165167   1.953   0.885   4.693 -0.3153 -0.0082 -0.5417
14584TIP3    H265168   2.079   0.883   4.609 -0.4525 -1.2800 -0.7428
14585TIP3   OH265169   3.285   5.151   5.932  0.0771 -0.0822  0.3759
14585TIP3    H165170   3.340   5.087   5.886  0.8597  2.0622 -1.8371
14585TIP3    H265171   3.341   5.228   5.941 -2.1370  1.7715 -0.8649
14586TIP3   OH265172   2.397   4.321   0.351 -0.1986  0.3699  0.0052
14586TIP3    H165173   2.316   4.358   0.386  0.0039  0.0479  0.8455
14586TIP3    H265174   2.382   4.315   0.257 -1.5469 -0.6068  0.2458
14587TIP3   OH265175   0.588   3.127   4.625  0.5014  0.7098  0.4103
14587TIP3    H165176   0.527   3.053   4.619 -0.0902  1.2183  0.0900
14587TIP3    H265177   0.671   3.092   4.591 -0.1475  0.5844 -1.1097
14588TIP3   OH265178   0.443   3.887  11.898  0.1547  0.0190  0.4726
14588TIP3    H165179   0.475   3.976  11.915  1.0451 -0.4483  1.3315
14588TIP3    H265180   0.514   3.845  11.849 -0.8399  0.1809 -1.1932
14589TIP3   OH265181   2.679   2.323   5.291 -0.2323 -0.2837  0.4482
14589TIP3    H165182   2.770   2.321   5.321 -0.3123 -0.2972  0.6979
14589TIP3    H265183   2.645   2.235   5.311 -0.3417 -0.2327  0.4892
14590TIP3   OH265184   1.888   6.573  15.150  0.3922  0.0003 -0.2038
14590TIP3    H165185   1.832   6.625  15.093  0.7635 -1.1647 -1.7192
14590TIP3    H265186   1.844   6.488  15.155 -0.7152  0.6364  2.9977
14591TIP3   OH265187   3.315   2.762  16.094 -0.3891 -0.0144  0.0286
14591TIP3    H165188   3.390   2.732  16.146  0.2046  0.2812 -0.6434
14591TIP3    H265189   3.308   2.698  16.023 -0.4358  0.2634 -0.2181
14592TIP3   OH265190   2.896   5.793  15.081 -0.8510 -0.5499  0.5178
14592TIP3    H165191   2.904   5.740  15.160  1.5533 -2.5507 -0.9377
14592TIP3    H265192   2.974   5.848  15.080 -0.2564 -1.3616 -0.9646
14593TIP3   OH265193   2.753   3.984  11.174 -0.6304  0.5313  0.0986
14593TIP3    H165194   2.708   3.900  11.181  2.0092 -0.9552  0.4774
14593TIP3    H265195   2.698   4.036  11.115 -2.9847 -0.9709  0.8452
14594TIP3   OH265196   4.622   2.267  13.425  0.1383 -0.6834 -0.2145
14594TIP3    H165197   4.621   2.171  13.427  1.0309 -0.7380  2.9039
14594TIP3    H265198   4.705   2.290  13.383  0.1186 -1.2729 -0.5854
14595TIP3   OH265199   5.393   3.024  11.309 -0.8424 -0.2245  0.2769
14595TIP3    H165200   5.393   3.117  11.288  1.7546  0.4257  2.5899
14595TIP3    H265201   5.474   3.010  11.357 -0.5325 -3.9794 -0.9936
14596TIP3   OH265202   6.625   5.008   1.276 -0.1864  0.9930  0.0435
14596TIP3    H165203   6.689   4.952   1.233 -1.2240  1.1071 -1.7260
14596TIP3    H265204   6.637   5.094   1.234 -2.4323  0.6741 -1.4137
14597TIP3   OH265205   2.949   0.796  11.267 -0.2841  0.1978 -0.1188
14597TIP3    H165206   3.005   0.807  11.190  0.2395  2.6791  0.5168
14597TIP3    H265207   2.871   0.752  11.234  0.7495 -0.5598 -1.6521
14598TIP3   OH265208   3.845   4.468   1.765 -0.1193  0.4141 -0.4086
14598TIP3    H165209   3.940   4.472   1.780 -0.0957 -2.1423  0.6459
14598TIP3    H265210   3.830   4.529   1.693  2.1658  1.6095  0.0200
14599TIP3   OH265211   6.550   5.287  14.632 -0.1867  0.4332  0.8097
14599TIP3    H165212   6.469   5.298  14.683  0.0954  1.1145  1.1290
14599TIP3    H265213   6.618   5.326  14.687  0.5446 -1.0544  1.0083
14600TIP3   OH265214   2.639   4.767  11.082  0.3049 -0.2348  0.3277
14600TIP3    H165215   2.623   4.772  10.988 -1.1201 -0.9230  0.5105
14600TIP3    H265216   2.705   4.698  11.091  0.7309  0.1010 -0.1967
14601TIP3   OH265217   1.662   0.760  11.629 -0.0529  0.2626 -0.6934
14601TIP3    H165218   1.728   0.692  11.616 -1.0893 -0.8715 -0.2195
14601TIP3    H265219   1.712   0.839  11.648  1.1976 -0.2036 -1.9091
14602TIP3   OH265220   2.178   5.685   3.583 -0.0448  0.3003  0.2854
14602TIP3    H165221   2.143   5.671   3.671  0.1525  1.5722  0.5874
14602TIP3    H265222   2.101   5.686   3.526 -0.2066 -0.1407  0.4948
14603TIP3   OH265223   3.341   1.490   1.658 -0.2337 -0.2354  0.0016
14603TIP3    H165224   3.380   1.539   1.730  0.9178  1.0983 -1.4377
14603TIP3    H265225   3.255   1.531   1.644 -0.2019 -0.0983  0.2179
14604TIP3   OH265226   2.982   1.095  11.865 -0.6071  0.0231  0.3794
14604TIP3    H165227   2.998   1.031  11.935  0.8146 -1.4319 -1.1734
14604TIP3    H265228   2.887   1.093  11.854 -0.8268 -0.0204  1.9602
14605TIP3   OH265229   3.365   0.743   1.281  0.1054 -0.1632  0.3000
14605TIP3    H165230   3.375   0.660   1.329  0.4141 -0.0962  0.3543
14605TIP3    H265231   3.309   0.796   1.338  1.1368  0.2194  0.9923
14606TIP3   OH265232   2.526   4.194   5.808 -0.0062 -0.8236  0.5400
14606TIP3    H165233   2.518   4.207   5.713  1.7251  0.2909  0.4998
14606TIP3    H265234   2.500   4.103   5.821 -0.9732 -0.7995 -0.8923
14607TIP3   OH265235   2.488   2.066  16.468 -0.1822  0.0487  0.0083
14607TIP3    H165236   2.496   2.161  16.479 -2.0341  0.1153  1.2149
14607TIP3    H265237   2.487   2.032  16.557  2.4466 -1.3674 -0.4196
14608TIP3   OH265238   4.775   6.424   5.320  0.3688 -0.4309 -0.0238
14608TIP3    H165239   4.733   6.471   5.247 -0.2711 -0.0233  0.5892
14608TIP3    H265240   4.866   6.412   5.292  0.3667  0.5549 -0.4919
14609TIP3   OH265241   0.365   1.548   3.515  0.5396 -0.2063  0.9801
14609TIP3    H165242   0.305   1.473   3.507  0.0378  0.1852  0.9950
14609TIP3    H265243   0.367   1.566   3.609  0.9049 -0.3931  1.0101
14610TIP3   OH265244   0.819   5.388  11.896  0.2701 -0.1457 -0.1719
14610TIP3    H165245   0.851   5.314  11.844  1.0082  0.8576 -1.1954
14610TIP3    H265246   0.845   5.368  11.986  0.5074 -1.0962 -0.4423
14611TIP3   OH265247   2.259   4.601   1.351  0.0019 -0.7433  0.4138
14611TIP3    H165248   2.263   4.604   1.446 -0.4010 -0.3234  0.4241
14611TIP3    H265249   2.172   4.565   1.331 -2.1399  3.7446  0.2516
14612TIP3   OH265250   2.334   4.789  15.187  0.2882  0.2209 -0.2499
14612TIP3    H165251   2.398   4.730  15.226  0.3718 -0.5028 -1.4254
14612TIP3    H265252   2.366   4.877  15.207 -0.4981 -0.0451  2.6322
14613TIP3   OH265253   1.352   5.013   0.982 -0.4272  0.0547  0.0943
14613TIP3    H165254   1.434   4.965   0.994 -0.6156 -0.0017  1.2576
14613TIP3    H265255   1.310   4.971   0.907  0.6031  0.0896 -0.5242
14614TIP3   OH265256   1.893   2.629   5.867  0.4861 -0.2025 -0.4418
14614TIP3    H165257   1.964   2.589   5.917  1.1058 -0.2702 -1.3421
14614TIP3    H265258   1.878   2.713   5.910 -0.9818 -1.4346  1.6040
14615TIP3   OH265259   4.296   0.236  15.779  0.0767 -0.4066 -0.2068
14615TIP3    H165260   4.243   0.200  15.707 -0.6468  0.5604 -0.1825
14615TIP3    H265261   4.353   0.301  15.737  1.6806 -1.8294 -0.3168
14616TIP3   OH265262   4.505   3.843   5.690  0.2082 -0.0317 -0.3739
14616TIP3    H165263   4.536   3.759   5.725 -3.2296 -2.0398 -1.5593
14616TIP3    H265264   4.471   3.890   5.766  2.3945  0.4890  0.3428
14617TIP3   OH265265   6.259   1.989  10.796 -0.6857 -0.3215  0.1545
14617TIP3    H165266   6.204   1.934  10.740 -0.3019 -1.3332  0.7609
14617TIP3    H265267   6.201   2.061  10.822 -0.9831 -0.0309 -1.2212
14618TIP3   OH265268   5.273   3.234  13.241 -0.6118 -0.2738 -0.4925
14618TIP3    H165269   5.213   3.197  13.306 -2.2064  1.5778 -0.8038
14618TIP3    H265270   5.222   3.238  13.160 -1.3149  4.0807 -0.1057
14619TIP3   OH265271   1.857   0.210  14.201  0.1292 -0.3837  0.2546
14619TIP3    H165272   1.947   0.187  14.222 -0.2404 -0.6817  1.6150
14619TIP3    H265273   1.821   0.244  14.283 -0.9664 -0.1509 -0.2986
14620TIP3   OH265274   3.997   0.236   4.039  0.1842 -0.5370  0.1272
14620TIP3    H165275   4.050   0.300   4.087  0.7727 -1.2756  0.4699
14620TIP3    H265276   3.962   0.178   4.106  0.7686 -1.3950 -0.2952
14621TIP3   OH265277   0.584   3.086  15.143 -0.3347 -0.1374 -0.2334
14621TIP3    H165278   0.571   3.119  15.232 -0.4430  0.1515 -0.3562
14621TIP3    H265279   0.572   3.162  15.087  1.3615  0.0417 -0.4053
14622TIP3   OH265280   2.179   6.381  16.213  0.0689  0.4252 -0.1837
14622TIP3    H165281   2.203   6.301  16.258 -2.1633 -0.4417 -0.3655
14622TIP3    H265282   2.167   6.446  16.282 -4.2959 -1.1341  0.8730
14623TIP3   OH265283   0.174   5.888  13.944 -0.4188  0.5091  1.0074
14623TIP3    H165284   0.100   5.900  13.884 -0.2100  1.8866  0.9833
14623TIP3    H265285   0.136   5.844  14.020 -0.5589 -1.8954 -0.3515
14624TIP3   OH265286   0.590   1.213  14.042 -0.8786 -0.5554 -0.3494
14624TIP3    H165287   0.634   1.175  14.118  0.1102 -0.2965 -0.7790
14624TIP3    H265288   0.522   1.269  14.079 -0.8208 -0.9303  0.3318
14625TIP3   OH265289   1.789   3.635   3.232  0.5743  0.0202  0.3957
14625TIP3    H165290   1.858   3.698   3.252 -0.2179  0.8088  0.7129
14625TIP3    H265291   1.732   3.637   3.310 -0.3931  0.1895 -0.2996
14626TIP3   OH265292   5.155   1.451  11.986 -0.1404  0.1284  0.1368
14626TIP3    H165293   5.206   1.387  12.035 -0.6966  0.0651  0.6458
14626TIP3    H265294   5.159   1.421  11.895  2.3356  1.1667 -0.2075
14627TIP3   OH265295   1.832   0.902   4.383  0.2190  0.7694  0.2205
14627TIP3    H165296   1.835   0.807   4.371  0.7886  0.6985  0.8904
14627TIP3    H265297   1.894   0.919   4.454  0.5899  1.7115 -0.3152
14628TIP3   OH265298   6.686   1.084   3.455  0.1014  0.0790 -0.0802
14628TIP3    H165299   6.717   1.135   3.379 -0.5090  0.4110 -0.1106
14628TIP3    H265300   6.591   1.087   3.449  0.0293 -1.6538 -0.4695
14629TIP3   OH265301   6.130   0.048   4.512 -0.2140 -0.0081 -0.0587
14629TIP3    H165302   6.069  -0.025   4.501  0.1847 -0.4474  0.6084
14629TIP3    H265303   6.096   0.096   4.587 -0.2502  0.2708 -0.2529
14630TIP3   OH265304   0.498   5.624   1.234  0.2210  0.3561 -0.1650
14630TIP3    H165305   0.481   5.716   1.256  1.4505  0.4567  0.4418
14630TIP3    H265306   0.417   5.593   1.195  0.0523  1.9429 -1.1446
14631TIP3   OH265307   4.085   3.076   5.898 -0.0542 -0.1832 -0.0509
14631TIP3    H165308   4.146   3.004   5.915  0.0530 -0.2863 -0.8571
14631TIP3    H265309   4.096   3.134   5.973  2.0337  0.4827 -0.8189
14632TIP3   OH265310   6.106   3.636  15.684  0.1988  0.4089 -0.2858
14632TIP3    H165311   6.017   3.612  15.661 -0.4418  3.1129 -0.8499
14632TIP3    H265312   6.161   3.575  15.635 -1.3021 -0.2466 -1.1978
14633TIP3   OH265313   2.859   3.830   4.179 -0.0701 -0.1243 -0.7957
14633TIP3    H165314   2.919   3.873   4.118 -0.2582 -0.0557 -0.9353
14633TIP3    H265315   2.904   3.749   4.204  0.1850  0.0406 -0.7124
14634TIP3   OH265316   0.262   2.119  15.921  0.2609  0.5331  0.1868
14634TIP3    H165317   0.189   2.131  15.860  0.2706 -0.5205 -0.0579
14634TIP3    H265318   0.251   2.188  15.986 -1.6800 -0.3212  0.8513
14635TIP3   OH265319   3.788   0.574  16.224  0.5046 -0.1510  0.4036
14635TIP3    H165320   3.864   0.516  16.220 -0.5935 -1.7026  1.1400
14635TIP3    H265321   3.753   0.561  16.312  0.2283  1.6695  0.5879
14636TIP3   OH265322   5.617   3.921   4.924  0.6628  0.4420 -0.3521
14636TIP3    H165323   5.603   3.924   4.829 -0.2623 -2.3155 -0.3981
14636TIP3    H265324   5.691   3.862   4.935  0.1250 -0.0643  0.6607
14637TIP3   OH265325   0.509   2.982   3.430  0.0112  0.0724 -0.2292
14637TIP3    H165326   0.603   2.977   3.447  0.1785 -1.4267 -1.3470
14637TIP3    H265327   0.488   2.898   3.387 -1.5458  0.9680 -1.3118
14638TIP3   OH265328   6.015   5.349   0.479  0.5128  0.5945 -0.5869
14638TIP3    H165329   5.965   5.284   0.527  0.0503  1.5922  0.3142
14638TIP3    H265330   6.010   5.428   0.532 -0.6951  1.9953 -2.6297
14639TIP3   OH265331   3.424   5.338  16.416 -0.1708 -0.5357 -0.2509
14639TIP3    H165332   3.382   5.264  16.371 -0.1034 -0.3912 -0.5525
14639TIP3    H265333   3.422   5.314  16.509 -1.2939 -0.3488 -0.2152
14640TIP3   OH265334   3.187   4.558  12.070 -0.2879 -0.0824  0.1929
14640TIP3    H165335   3.248   4.503  12.021  0.6871  1.3934 -0.3175
14640TIP3    H265336   3.165   4.506  12.147 -0.5750 -1.7746 -0.9791
14641TIP3   OH265337   2.548   1.116  14.210  0.6365 -0.0402 -0.0776
14641TIP3    H165338   2.592   1.109  14.295  0.2089 -1.2617  0.0677
14641TIP3    H265339   2.531   1.025  14.184  1.1555  0.2774 -1.6862
14642TIP3   OH265340   5.108   5.190  14.653  0.2029 -0.4913 -0.0540
14642TIP3    H165341   5.024   5.174  14.610  0.4505  0.9925 -1.1882
14642TIP3    H265342   5.101   5.279  14.687  0.8707 -0.8155  0.9793
14643TIP3   OH265343   6.370   1.765   1.486  0.5095  0.0428 -0.4380
14643TIP3    H165344   6.304   1.712   1.530  0.8689 -0.7375 -0.8238
14643TIP3    H265345   6.422   1.802   1.557 -0.4790  0.8874 -0.1125
14644TIP3   OH265346   1.295   1.568  14.149  0.3694  0.5541 -0.1855
14644TIP3    H165347   1.275   1.559  14.242  1.2091 -1.3404 -0.1341
14644TIP3    H265348   1.243   1.642  14.120 -3.7052 -1.6696  0.7589
14645TIP3   OH265349   2.493   1.653   2.919  0.4267 -0.0752  0.0572
14645TIP3    H165350   2.447   1.735   2.904 -2.5622 -1.5234  0.6032
14645TIP3    H265351   2.526   1.627   2.833 -0.7248  0.5289 -0.5824
14646TIP3   OH265352   5.131   4.019  11.195  0.3934 -0.4392  0.1559
14646TIP3    H165353   5.185   4.027  11.274 -1.5541  0.3735  1.4834
14646TIP3    H265354   5.075   3.944  11.212 -1.6719  1.1240  0.6653
14647TIP3   OH265355   0.545   6.785   4.875 -0.2936  0.3593  0.2181
14647TIP3    H165356   0.604   6.777   4.950 -0.6833  0.6966  0.5655
14647TIP3    H265357   0.458   6.788   4.914 -0.5465 -0.1430 -0.2916
14648TIP3   OH265358   3.498   5.365  15.834  0.4493 -0.3723 -0.5158
14648TIP3    H165359   3.524   5.451  15.866  0.1192  0.4314 -2.3096
14648TIP3    H265360   3.403   5.363  15.844  0.3630 -0.1857 -1.2299
14649TIP3   OH265361   3.891   0.325   5.810 -0.2143  0.6892 -0.3356
14649TIP3    H165362   3.904   0.417   5.788 -0.1724  0.8594  0.3829
14649TIP3    H265363   3.979   0.290   5.818 -0.2236  0.8001  0.2622
14650TIP3   OH265364   5.769   2.197  15.904 -0.6579 -0.4648  0.2125
14650TIP3    H165365   5.692   2.177  15.958  0.0819 -2.1359  0.7364
14650TIP3    H265366   5.832   2.129  15.928  0.7133  0.4291 -0.7514
14651TIP3   OH265367   6.700   0.525   3.143  0.0529 -0.3734  0.6783
14651TIP3    H165368   6.644   0.518   3.220 -0.7981 -1.1054  0.0075
14651TIP3    H265369   6.660   0.594   3.091 -0.5856 -1.2837 -0.0724
14652TIP3   OH265370   4.223   6.124   5.821  0.2576  0.3138 -0.0665
14652TIP3    H165371   4.152   6.064   5.800  0.0781  0.3922  0.3134
14652TIP3    H265372   4.187   6.182   5.888  1.2476 -0.8093  1.5252
14653TIP3   OH265373   6.107   6.511  15.173 -0.2458  0.2593 -0.8190
14653TIP3    H165374   6.167   6.562  15.227 -0.6206 -0.2557  0.0945
14653TIP3    H265375   6.089   6.432  15.223 -1.4439  0.2565 -1.2116
14654TIP3   OH265376   0.483   1.719  16.219  0.7248  0.0738  0.3038
14654TIP3    H165377   0.504   1.801  16.175  0.9231  0.6393  1.4153
14654TIP3    H265378   0.539   1.654  16.177  1.4102  0.7254  0.1913
14655TIP3   OH265379   0.438   6.531   3.367  0.0908 -0.0821  0.5604
14655TIP3    H165380   0.515   6.505   3.417  1.3867 -0.1493 -1.3642
14655TIP3    H265381   0.368   6.476   3.400  0.7968  0.1022  2.4829
14656TIP3   OH265382   1.779   1.564  11.735  0.2849 -0.4182  0.0476
14656TIP3    H165383   1.786   1.652  11.698 -1.7178 -0.8696 -1.6403
14656TIP3    H265384   1.833   1.510  11.678  1.2735 -0.3443  0.9018
14657TIP3   OH265385   0.666   4.374  15.135 -0.0220  0.6269  0.9007
14657TIP3    H165386   0.605   4.305  15.109  0.8693  0.0665  0.2438
14657TIP3    H265387   0.648   4.447  15.075  1.6298 -0.4503 -1.0453
14658TIP3   OH265388   4.993   5.112   4.596  0.5026  0.3817  0.4993
14658TIP3    H165389   5.024   5.103   4.686 -0.9243  0.7404  1.0569
14658TIP3    H265390   4.904   5.078   4.598  1.2590 -2.0167 -1.3608
14659TIP3   OH265391   1.530   5.832  16.302 -0.0709  0.3304  0.3842
14659TIP3    H165392   1.485   5.806  16.383 -1.1672  1.7104  0.2497
14659TIP3    H265393   1.595   5.897  16.330 -0.1055  0.4381  0.2152
14660TIP3   OH265394   3.740   2.329  12.216  0.3395 -0.2409 -0.1578
14660TIP3    H165395   3.773   2.330  12.306 -0.6193  0.1350  0.1967
14660TIP3    H265396   3.811   2.368  12.165  1.0870 -0.9054  0.3538
14661TIP3   OH265397   1.676   5.221  14.069 -0.0763 -0.0494 -0.3154
14661TIP3    H165398   1.760   5.182  14.044  0.5045  0.6196  0.5184
14661TIP3    H265399   1.610   5.158  14.038  0.6922 -0.3101 -1.4791
14662TIP3   OH265400   1.922   1.448  12.334 -0.3036  0.4985 -0.8665
14662TIP3    H165401   1.954   1.531  12.368  0.3875 -0.4876  1.0534
14662TIP3    H265402   1.839   1.434  12.380  0.0906 -0.3274 -0.3740
14663TIP3   OH265403   5.557   5.048  14.360  0.1920 -0.6254 -0.3380
14663TIP3    H165404   5.545   5.022  14.452 -0.0593 -0.2714 -0.2691
14663TIP3    H265405   5.652   5.053  14.349  0.2241  0.8080  0.3270
14664TIP3   OH265406   4.111   1.479   2.880 -0.0937  0.0878  0.6430
14664TIP3    H165407   4.150   1.562   2.853 -1.9124  0.9459  0.5457
14664TIP3    H265408   4.106   1.486   2.976 -1.4249  0.6661  0.5487
14665TIP3   OH265409   1.268   2.676  14.384  0.0242 -0.1917 -0.6300
14665TIP3    H165410   1.300   2.585  14.388 -1.2210 -0.6143  0.1868
14665TIP3    H265411   1.173   2.667  14.378 -0.0793  1.0684 -1.0096
14666TIP3   OH265412   1.117   3.528   2.096 -0.7164 -0.0552 -0.0665
14666TIP3    H165413   1.058   3.491   2.161  0.2362 -0.2930  0.6833
14666TIP3    H265414   1.180   3.580   2.146  0.6274 -1.0264 -0.6544
14667TIP3   OH265415   4.051   2.238  11.563 -0.1258 -0.2703  0.4694
14667TIP3    H165416   4.088   2.195  11.486 -1.1329 -0.7542  0.2395
14667TIP3    H265417   3.980   2.180  11.591  0.3293 -0.1881  1.8644
14668TIP3   OH265418   2.829   4.197   5.724 -0.5959  0.4912  0.2836
14668TIP3    H165419   2.821   4.258   5.798  2.0128  1.8298 -0.4047
14668TIP3    H265420   2.775   4.235   5.655 -1.5521  0.2344  0.8653
14669TIP3   OH265421   3.275   2.256  15.264  0.0852  0.3568  0.4400
14669TIP3    H165422   3.363   2.258  15.301 -0.0763  2.1858  0.7955
14669TIP3    H265423   3.285   2.208  15.181  1.7061  1.7059 -0.2073
14670TIP3   OH265424   3.475   1.386   3.453  0.0963  0.1414 -0.1952
14670TIP3    H165425   3.460   1.291   3.456 -0.0147  0.1825  1.2859
14670TIP3    H265426   3.396   1.423   3.493  1.2498  0.6897  1.7293
14671TIP3   OH265427   0.373   2.785  13.268  0.1599  0.9488 -0.0813
14671TIP3    H165428   0.404   2.700  13.301 -0.4231  1.3264  1.5576
14671TIP3    H265429   0.445   2.817  13.214  0.5233 -0.4346 -0.4666
14672TIP3   OH265430   5.301   3.649  14.724  0.0416  0.3502 -0.3483
14672TIP3    H165431   5.294   3.729  14.776 -0.5626  0.4047 -0.4980
14672TIP3    H265432   5.210   3.621  14.711  0.2718 -0.7331  0.2630
14673TIP3   OH265433   4.634   1.481  13.907 -0.5236  0.6791  0.2072
14673TIP3    H165434   4.627   1.389  13.884 -2.1469  0.0639  2.7872
14673TIP3    H265435   4.598   1.527  13.831  0.4091 -0.7589 -1.1631
14674TIP3   OH265436   1.756   5.569  11.820 -0.3345 -0.0759 -0.0764
14674TIP3    H165437   1.783   5.649  11.774 -1.6357  0.6645  0.3793
14674TIP3    H265438   1.819   5.560  11.891  1.4915 -1.0383 -1.7293
14675TIP3   OH265439   0.476   2.354  12.574  0.5285 -0.5884  0.6874
14675TIP3    H165440   0.455   2.314  12.490  2.0608  1.5518 -0.8145
14675TIP3    H265441   0.560   2.314  12.598  1.5495  0.8649 -0.3088
14676TIP3   OH265442   5.782   2.675  14.301  0.1339 -0.0509 -0.0843
14676TIP3    H165443   5.689   2.693  14.290 -0.1974 -0.2127  2.0851
14676TIP3    H265444   5.813   2.744  14.359  1.2082 -0.4488 -0.1575
14677TIP3   OH265445   5.153   2.423   4.550 -0.7019 -0.0705 -0.1088
14677TIP3    H165446   5.076   2.419   4.608 -0.5328 -2.5185  0.0200
14677TIP3    H265447   5.226   2.441   4.609 -0.8234 -0.4205  0.1562
14678TIP3   OH265448   3.779   1.176   3.310 -0.3576  0.2602 -0.5000
14678TIP3    H165449   3.696   1.177   3.357  0.4039  2.1175  0.9434
14678TIP3    H265450   3.819   1.091   3.332  0.1941  1.2438  2.7602
14679TIP3   OH265451   6.694   5.665   5.885 -0.1340  0.3518  0.1924
14679TIP3    H165452   6.655   5.703   5.807  0.8764  1.3652  0.1513
14679TIP3    H265453   6.661   5.718   5.958 -0.7302 -0.3157  0.4211
14680TIP3   OH265454   0.517   1.246   0.660  0.0638  0.6774 -0.4021
14680TIP3    H165455   0.561   1.161   0.671  0.3988  0.7237 -1.3213
14680TIP3    H265456   0.445   1.243   0.723 -0.5808 -0.7384 -1.1371
14681TIP3   OH265457   5.112   1.937  15.331 -0.0558 -0.2748  0.4548
14681TIP3    H165458   5.037   1.901  15.378  0.0010 -0.5418  0.3385
14681TIP3    H265459   5.152   1.998  15.393 -0.4012 -0.0894  0.4977
14682TIP3   OH265460   1.389   3.978  14.098  0.3192 -0.2680  0.2387
14682TIP3    H165461   1.438   3.999  14.178  0.3702  0.0588  0.1256
14682TIP3    H265462   1.319   4.044  14.096  0.5266 -0.0546 -0.1651
14683TIP3   OH265463   0.989   1.974  15.894  0.3419  0.1538 -0.3147
14683TIP3    H165464   0.954   1.895  15.935  0.7130  0.9868  1.7019
14683TIP3    H265465   0.912   2.028  15.878  0.1105 -0.4839 -1.5054
14684TIP3   OH265466   0.444   6.697   3.989 -0.4672  0.2495  0.2451
14684TIP3    H165467   0.360   6.679   4.032 -1.0265  2.1693  0.0677
14684TIP3    H265468   0.506   6.708   4.061 -1.1044  2.0585  0.5889
14685TIP3   OH265469   3.568   2.646  14.166 -0.4209 -0.3863  0.2948
14685TIP3    H165470   3.648   2.594  14.169 -0.3084 -0.3475 -1.2529
14685TIP3    H265471   3.593   2.727  14.122 -1.1457 -0.0593  0.4677
14686TIP3   OH265472   5.059   0.993  15.461  0.0044  0.1669  0.3248
14686TIP3    H165473   5.123   1.064  15.452  2.5109 -1.9101  0.5221
14686TIP3    H265474   4.995   1.009  15.393 -0.8162  3.7961  1.7304
14687TIP3   OH265475   2.349   4.728   1.917 -0.4902  0.6473 -0.5948
14687TIP3    H165476   2.404   4.654   1.892 -1.4839 -0.6868  1.0139
14687TIP3    H265477   2.320   4.765   1.833  0.2343 -0.6082 -1.4292
14688TIP3   OH265478   3.859   6.190   2.172 -0.3080 -0.7742  0.0819
14688TIP3    H165479   3.895   6.104   2.193  1.9467  0.2358  0.6312
14688TIP3    H265480   3.801   6.174   2.098  1.3976 -2.5423 -0.9589
14689TIP3   OH265481   3.074   3.281   6.182  0.4430  0.7803  0.1917
14689TIP3    H165482   3.004   3.262   6.244  0.1332  1.3099  0.0074
14689TIP3    H265483   3.065   3.374   6.163  0.3870  0.5829 -0.8189
14690TIP3   OH265484   0.585   3.072   6.715  0.2367 -0.3938  0.0569
14690TIP3    H165485   0.573   3.100   6.625 -1.9174 -1.5883 -0.0830
14690TIP3    H265486   0.665   3.117   6.744 -0.1029  1.5292 -1.7969
14691TIP3   OH265487   5.354   2.399  13.325  0.1227 -0.4347 -0.1131
14691TIP3    H165488   5.354   2.473  13.386 -0.0831  0.4174 -1.1142
14691TIP3    H265489   5.444   2.394  13.292  0.4649 -1.4649  0.8909
14692TIP3   OH265490   5.138   1.631   4.752 -0.0717  0.0559 -0.0711
14692TIP3    H165491   5.119   1.538   4.744 -0.3356 -0.0019  1.1212
14692TIP3    H265492   5.057   1.674   4.723 -0.8186 -0.1430  1.5935
14693TIP3   OH265493   4.523   2.684  12.242 -0.5551  0.1875 -0.2289
14693TIP3    H165494   4.441   2.658  12.286 -0.4202 -1.7348 -1.0075
14693TIP3    H265495   4.505   2.772  12.209 -1.9506  0.2028  0.4667
14694TIP3   OH265496   0.179   0.214   4.405  0.2351  0.1433  0.2199
14694TIP3    H165497   0.272   0.205   4.425  0.6415  0.3910 -1.3769
14694TIP3    H265498   0.145   0.124   4.402  0.5733  0.0173  0.2024
14695TIP3   OH265499   3.542   6.568  16.341  0.3255  0.1567  0.0320
14695TIP3    H165500   3.605   6.641  16.337 -1.4692  1.7396 -1.3247
14695TIP3    H265501   3.463   6.606  16.379  0.1431 -1.8163  1.8035
14696TIP3   OH265502   1.090   5.750  12.620 -0.7711 -0.6267  0.0134
14696TIP3    H165503   1.125   5.723  12.705  0.9352 -0.7154 -0.6662
14696TIP3    H265504   1.016   5.807  12.642  1.0361  1.2800  1.6695
14697TIP3   OH265505   5.345   0.643  10.602  0.0123 -0.9573 -0.5365
14697TIP3    H165506   5.438   0.627  10.619 -0.1643 -0.1287  1.5372
14697TIP3    H265507   5.323   0.586  10.528  2.1861 -1.0716 -1.1527
14698TIP3   OH265508   2.117   1.915   2.273  0.0341 -0.4742 -0.3407
14698TIP3    H165509   2.024   1.916   2.294  0.3166  0.3057  0.9933
14698TIP3    H265510   2.146   2.005   2.291  1.7259 -1.4742  2.6140
14699TIP3   OH265511   5.958   6.298  14.797  0.3372  0.4162 -0.1070
14699TIP3    H165512   5.919   6.385  14.808  1.2413  0.9377 -0.8762
14699TIP3    H265513   5.978   6.293  14.703  0.5903 -0.4920 -0.0068
14700TIP3   OH265514   4.737   0.974  11.493 -0.8162  0.4965 -0.2655
14700TIP3    H165515   4.659   0.943  11.540 -0.0909 -0.6661  0.2239
14700TIP3    H265516   4.785   0.894  11.472  0.4343  1.2137 -0.2202
14701TIP3   OH265517   2.315   5.557  16.299  0.3485 -0.1752 -0.5379
14701TIP3    H165518   2.317   5.482  16.240  0.0062 -2.4966  2.1732
14701TIP3    H265519   2.222   5.577  16.309  0.4425  0.7864 -1.3630
14702TIP3   OH265520   2.354   2.477   1.391 -0.4008  0.1353  0.3853
14702TIP3    H165521   2.384   2.396   1.431  0.2178  0.3497  0.3646
14702TIP3    H265522   2.262   2.461   1.369  0.0784 -1.0540 -0.8996
14703TIP3   OH265523   5.147   4.646   0.795 -0.0375  0.1204 -0.9089
14703TIP3    H165524   5.193   4.562   0.792 -0.9400 -0.6177  2.3415
14703TIP3    H265525   5.066   4.630   0.747 -0.0187 -0.7290 -0.6756
14704TIP3   OH265526   3.052   0.603   6.776 -0.1255  0.4218 -0.5026
14704TIP3    H165527   3.006   0.524   6.748  0.8168  0.3216 -1.7985
14704TIP3    H265528   3.021   0.671   6.716 -0.3575  0.8850  0.1291
14705TIP3   OH265529   5.433   1.670  12.445  0.2609 -0.6333  0.5483
14705TIP3    H165530   5.473   1.756  12.433 -0.3023 -0.4742 -0.2527
14705TIP3    H265531   5.432   1.632  12.358 -1.0271 -0.7696  0.6081
14706TIP3   OH265532   4.403   2.099   4.957 -0.2752 -0.3717 -0.1733
14706TIP3    H165533   4.389   2.045   4.880 -1.9504 -1.5706  0.8932
14706TIP3    H265534   4.361   2.183   4.936  0.3913 -0.2435 -1.0179
14707TIP3   OH265535   2.133   5.433   3.805 -0.2710  0.0341 -0.3972
14707TIP3    H165536   2.084   5.400   3.730 -0.7418 -1.1665  0.4203
14707TIP3    H265537   2.110   5.526   3.809 -1.1154 -0.1320 -1.0552
14708TIP3   OH265538   4.991   6.408   1.799  0.5852 -0.1208 -0.6193
14708TIP3    H165539   4.992   6.313   1.786 -2.3985 -0.6811  1.9736
14708TIP3    H265540   4.926   6.439   1.735 -0.3262 -0.2425  0.2225
14709TIP3   OH265541   2.881   2.922  16.517  0.2262  0.0040  0.3461
14709TIP3    H165542   2.897   2.939  16.610 -0.2051 -0.5971  0.5341
14709TIP3    H265543   2.918   2.835  16.502 -0.8394 -0.4437  0.2593
14710TIP3   OH265544   6.159   6.797   2.383 -0.0071  0.1008  0.3570
14710TIP3    H165545   6.169   6.712   2.427  0.7535  0.5993  1.1639
14710TIP3    H265546   6.179   6.862   2.450 -0.3430  0.9290 -0.3193
14711TIP3   OH265547   0.744   5.871  15.498  0.4474  0.4930 -0.0670
14711TIP3    H165548   0.831   5.891  15.533  0.4263  2.0909 -0.8412
14711TIP3    H265549   0.762   5.827  15.414  0.5123  0.8739 -0.2534
14712TIP3   OH265550   0.970   1.463  16.809  0.4059 -0.2867 -0.5697
14712TIP3    H165551   0.923   1.481  16.728  1.6558  1.0306 -1.0500
14712TIP3    H265552   1.053   1.424  16.780  0.8524  0.1775  0.0523
14713TIP3   OH265553   6.339   1.814   2.708  0.7561 -0.2032  0.4870
14713TIP3    H165554   6.423   1.782   2.675  1.0133 -0.2939  1.2327
14713TIP3    H265555   6.346   1.809   2.803  0.2632  0.7048  0.5829
14714TIP3   OH265556   6.503   2.755  16.490 -0.3452  0.4344  0.2890
14714TIP3    H165557   6.467   2.673  16.456  1.3795 -0.0172 -0.5768
14714TIP3    H265558   6.483   2.820  16.422  1.1023  0.0077 -0.6012
14715TIP3   OH265559   2.094   2.024  14.869 -0.5156 -0.2335 -0.0285
14715TIP3    H165560   2.184   2.005  14.895 -0.0508 -0.9590 -2.0130
14715TIP3    H265561   2.092   2.119  14.854 -0.2220 -0.1445  0.4992
14716TIP3   OH265562   4.380   5.491  15.805  0.2657  0.7593 -0.1301
14716TIP3    H165563   4.444   5.446  15.860  0.3513 -0.5707 -1.2763
14716TIP3    H265564   4.413   5.580  15.799  0.6058  0.7751  1.4136
14717TIP3   OH265565   4.306   2.201   2.393 -0.1566 -0.1261  0.2994
14717TIP3    H165566   4.282   2.134   2.329 -1.6493  0.5691  0.0962
14717TIP3    H265567   4.314   2.153   2.475  0.8022 -0.8647 -0.2097
14718TIP3   OH265568   0.036   6.191  12.993 -0.2358 -0.0908  0.6535
14718TIP3    H165569   0.128   6.168  13.003 -0.7470 -2.7774  0.0239
14718TIP3    H265570   0.031   6.231  12.906  0.4762  1.0565  1.1247
14719TIP3   OH265571   0.988   0.162   0.767  0.1959 -0.3965  0.0510
14719TIP3    H165572   0.948   0.226   0.709  0.2592  0.6158  1.0855
14719TIP3    H265573   1.072   0.142   0.726 -0.5428 -1.1453 -1.1702
14720TIP3   OH265574   3.687   0.724   3.091  0.5717  0.2098 -0.5193
14720TIP3    H165575   3.685   0.648   3.034  0.6901  0.0291 -0.2885
14720TIP3    H265576   3.636   0.698   3.168  0.0961  0.5859 -0.7025
14721TIP3   OH265577   1.016   4.637   4.618  0.3759 -0.7999  0.4793
14721TIP3    H165578   0.968   4.688   4.553 -0.3457 -1.0077  0.8351
14721TIP3    H265579   0.966   4.647   4.699  1.2020 -0.6401  0.9786
14722TIP3   OH265580   6.151   3.382  16.048 -0.0934 -0.4693  0.9488
14722TIP3    H165581   6.071   3.335  16.074 -1.1088  0.1681 -0.8687
14722TIP3    H265582   6.126   3.475  16.053 -0.2291 -0.2965 -1.7214
14723TIP3   OH265583   0.029   3.817  15.512  0.6505  0.1466  0.1948
14723TIP3    H165584  -0.026   3.842  15.586  0.6467 -0.9137  0.5604
14723TIP3    H265585  -0.020   3.749  15.466  0.7636  0.6121 -0.6473
14724TIP3   OH265586   0.508   3.093  16.994 -0.5488  0.4258 -0.5278
14724TIP3    H165587   0.448   3.018  16.995 -1.1588  0.8974 -0.8574
14724TIP3    H265588   0.586   3.063  17.040 -0.4971 -0.6528 -1.2924
14725TIP3   OH265589   1.942   2.346  16.688 -0.2471 -0.3087 -0.3423
14725TIP3    H165590   1.860   2.305  16.661  0.3129 -0.5638 -1.7203
14725TIP3    H265591   1.959   2.414  16.622 -0.4930  1.3084  1.1894
14726TIP3   OH265592   0.852   0.300   3.694 -0.1004  0.8913 -0.3483
14726TIP3    H165593   0.908   0.227   3.668  1.8549  2.3890 -0.6172
14726TIP3    H265594   0.783   0.261   3.747  0.1584 -1.2755 -1.5220
14727TIP3   OH265595   5.798   6.083   5.265 -0.2060 -0.2377 -0.3952
14727TIP3    H165596   5.824   6.157   5.320 -1.8710  0.6177 -0.6805
14727TIP3    H265597   5.855   6.089   5.188 -0.1556  0.6300 -0.3057
14728TIP3   OH265598   4.770   2.263   5.703 -0.3593 -1.0902 -0.2169
14728TIP3    H165599   4.785   2.238   5.795  0.6258 -0.4396 -0.1933
14728TIP3    H265600   4.764   2.358   5.705 -0.1734 -1.0643 -0.8612
14729TIP3   OH265601   2.140   2.310  14.836 -0.4420 -0.1595 -0.5084
14729TIP3    H165602   2.200   2.342  14.768  0.0591  0.4470  0.2029
14729TIP3    H265603   2.168   2.355  14.915  0.2709 -2.3101  0.5450
14730TIP3   OH265604   0.057   3.566   0.730 -0.1856  0.3710  0.1183
14730TIP3    H165605   0.083   3.581   0.821  1.5476  1.3591 -0.4991
14730TIP3    H265606   0.132   3.593   0.678 -1.0428 -0.3929 -1.6274
14731TIP3   OH265607   3.875   4.688   3.171  0.0269  0.0405 -0.3665
14731TIP3    H165608   3.843   4.626   3.106 -1.2519  0.8683 -0.5501
14731TIP3    H265609   3.813   4.761   3.168  0.6681  0.6672  0.8786
14732TIP3   OH265610   6.270   6.658   3.855  0.4803  0.2183 -0.0189
14732TIP3    H165611   6.263   6.697   3.768  1.3542 -0.1556 -0.2758
14732TIP3    H265612   6.301   6.729   3.911 -0.3022  0.5178  0.0382
14733TIP3   OH265613   4.628   4.645   1.949 -0.0080  0.8626  0.7942
14733TIP3    H165614   4.628   4.740   1.944 -0.7419  0.8075 -2.4773
14733TIP3    H265615   4.680   4.616   1.873 -0.4428 -1.3327  1.2519
14734TIP3   OH265616   0.717   0.236  11.418  0.4183 -0.1913  0.1527
14734TIP3    H165617   0.773   0.218  11.343  1.1609  1.1561  0.3569
14734TIP3    H265618   0.665   0.312  11.392 -0.9238 -1.0497  0.1952
14735TIP3   OH265619   3.752   3.112   4.213  0.7026 -0.0212 -0.1168
14735TIP3    H165620   3.760   3.150   4.300 -0.0897 -0.6077  0.2225
14735TIP3    H265621   3.744   3.018   4.228 -0.3013 -0.0565 -0.7534
14736TIP3   OH265622   0.150   3.932   0.695  0.4382 -0.6540  0.0465
14736TIP3    H165623   0.170   3.965   0.783  0.7968  0.4069 -0.4159
14736TIP3    H265624   0.236   3.924   0.653  0.1789  0.6484 -0.8140
14737TIP3   OH265625   4.662   3.526   4.039 -0.3390  0.0585 -0.0490
14737TIP3    H165626   4.753   3.496   4.038 -0.7782 -1.4554 -1.6885
14737TIP3    H265627   4.668   3.621   4.032  1.1079  0.1441  1.6522
14738TIP3   OH265628   4.348   4.986  14.485 -0.2215  0.5478  0.3972
14738TIP3    H165629   4.363   5.067  14.535  1.5175  0.5501 -0.0667
14738TIP3    H265630   4.279   5.009  14.422  0.0352  1.5684  0.4765
14739TIP3   OH265631   4.346   4.338   3.159 -0.3236 -0.5371 -0.1412
14739TIP3    H165632   4.328   4.302   3.072 -1.9188 -0.6765  0.2191
14739TIP3    H265633   4.406   4.275   3.199  1.1363 -0.0300 -1.4249
14740TIP3   OH265634   4.235   3.116   0.347  0.1096 -0.6432  0.1719
14740TIP3    H165635   4.183   3.121   0.427 -0.5174 -0.1031 -0.2561
14740TIP3    H265636   4.299   3.187   0.355 -0.4470 -0.0905 -0.1316
14741TIP3   OH265637   6.175   5.021  12.165  0.4822 -0.1334 -0.0999
14741TIP3    H165638   6.102   5.034  12.105  0.0486 -0.8324  0.2551
14741TIP3    H265639   6.144   5.055  12.249  0.5680 -0.3928  0.0414
14742TIP3   OH265640   2.010   0.327   6.516 -0.2306 -0.1969 -0.1486
14742TIP3    H165641   2.050   0.357   6.434 -1.9306 -0.7985 -1.2382
14742TIP3    H265642   2.067   0.363   6.585  2.0118 -0.7722 -1.5869
14743TIP3   OH265643   1.729   1.100  15.112 -0.4975  0.5470  0.0883
14743TIP3    H165644   1.748   1.024  15.167  1.2762  1.1822  0.4284
14743TIP3    H265645   1.761   1.175  15.162 -3.2605  1.6985  0.2585
14744TIP3   OH265646   4.224   3.388   1.501 -0.8761  0.3563  0.3291
14744TIP3    H165647   4.305   3.418   1.460 -1.9663  1.4434 -1.1323
14744TIP3    H265648   4.228   3.293   1.494  0.2343  0.3910  0.2200
14745TIP3   OH265649   5.526   3.861   4.685 -0.7555  0.2623  0.1459
14745TIP3    H165650   5.494   3.887   4.599  0.5536  0.9103 -0.1673
14745TIP3    H265651   5.551   3.769   4.675 -0.3527  0.4140 -0.2466
14746TIP3   OH265652   5.639   0.094   2.698  0.9111  0.3940  0.4291
14746TIP3    H165653   5.651   0.129   2.786 -1.9041  1.2262  0.5627
14746TIP3    H265654   5.708   0.136   2.646  1.3915  1.4072  1.8262
14747TIP3   OH265655   2.763   2.550  16.426 -0.0690 -0.1459 -0.5119
14747TIP3    H165656   2.794   2.608  16.357  1.0014  0.0992  0.1538
14747TIP3    H265657   2.670   2.571  16.436  0.5202  2.2622  0.4862
14748TIP3   OH265658   0.313   6.019  11.363 -0.4048 -0.4316 -0.0285
14748TIP3    H165659   0.391   5.966  11.376 -1.0726 -1.4529 -0.1462
14748TIP3    H265660   0.322   6.055  11.275 -0.0656 -0.5336 -0.0356
14749TIP3   OH265661   2.422   1.019   2.776  0.5636  0.4986  0.3317
14749TIP3    H165662   2.477   1.062   2.842  2.0473  0.8492 -1.0725
14749TIP3    H265663   2.477   0.950   2.740 -0.5034 -0.2020 -0.0110
14750TIP3   OH265664   2.262   2.583  16.315 -1.0174 -0.7653  0.1270
14750TIP3    H165665   2.229   2.646  16.252  0.0349 -0.8335 -0.5188
14750TIP3    H265666   2.329   2.534  16.267 -0.3175 -0.9357  1.2390
14751TIP3   OH265667   0.362   5.227  11.680  0.0367 -0.1765  0.1051
14751TIP3    H165668   0.387   5.156  11.739  1.3694  1.9471  2.2175
14751TIP3    H265669   0.418   5.215  11.603  1.1217 -0.6955  0.9616
14752TIP3   OH265670   6.252   5.628   5.276 -0.1850  0.1128 -0.2009
14752TIP3    H165671   6.175   5.673   5.311 -0.5524  0.0005 -0.8527
14752TIP3    H265672   6.307   5.698   5.241  0.8565  0.3858  1.7904
14753TIP3   OH265673   1.601   5.404  11.664  0.0539  0.3221  0.1644
14753TIP3    H165674   1.658   5.389  11.589 -1.9305  1.5249 -1.6838
14753TIP3    H265675   1.645   5.474  11.713  1.0542 -0.0304 -0.2001
14754TIP3   OH265676   2.104   3.433  14.688 -0.2273  0.3761  0.0908
14754TIP3    H165677   2.185   3.484  14.694  0.5623 -0.8642  0.1532
14754TIP3    H265678   2.063   3.464  14.607 -0.2144  1.7362  0.5823
14755TIP3   OH265679   0.517   1.530   1.498  0.5084  0.1330 -0.1902
14755TIP3    H165680   0.588   1.466   1.492 -0.4235 -1.1025  1.4303
14755TIP3    H265681   0.443   1.488   1.455 -0.1964 -0.0491  1.1492
14756TIP3   OH265682   4.657   6.612   5.491  0.1358 -0.1770 -0.4796
14756TIP3    H165683   4.705   6.550   5.436 -0.2708 -0.4864 -0.4883
14756TIP3    H265684   4.590   6.648   5.433  1.5692  1.7541 -1.0735
14757TIP3   OH265685   0.120   0.848  16.963  0.1778 -0.7366 -0.3982
14757TIP3    H165686   0.180   0.867  17.035 -2.0482 -0.3896  1.4660
14757TIP3    H265687   0.080   0.933  16.942 -0.8754 -1.2307 -0.4358
14758TIP3   OH265688   5.088   0.423  12.574 -0.1243  0.5070  0.4420
14758TIP3    H165689   5.114   0.349  12.629 -1.2397 -0.1361  0.1313
14758TIP3    H265690   5.095   0.499  12.631  0.8273  0.1412  0.8306
14759TIP3   OH265691   5.216   4.006  12.703  0.1997 -0.2733 -0.3730
14759TIP3    H165692   5.160   3.928  12.710  0.7272 -0.5171  1.4737
14759TIP3    H265693   5.304   3.971  12.690  0.4728  0.0007  0.6947
14760TIP3   OH265694   4.205   0.971   2.502 -0.2662  0.3495 -0.1267
14760TIP3    H165695   4.196   1.040   2.567  0.0946  1.3273 -1.0792
14760TIP3    H265696   4.118   0.965   2.461 -0.0904  0.8236 -0.5896
14761TIP3   OH265697   6.631   3.653  14.124 -0.0051 -0.0948  0.0190
14761TIP3    H165698   6.699   3.710  14.088 -0.6416  0.1346 -0.8649
14761TIP3    H265699   6.590   3.614  14.047 -1.4312  0.4322  0.4785
14762TIP3   OH265700   1.296   0.287  13.745 -0.0881  0.5893  0.1129
14762TIP3    H165701   1.343   0.297  13.662 -0.2742 -1.3921 -0.2811
14762TIP3    H265702   1.359   0.314  13.812  0.6172  0.6690 -0.5696
14763TIP3   OH265703   3.788   5.004   6.347 -0.0031  0.4645 -0.4077
14763TIP3    H165704   3.883   5.002   6.339 -0.0250 -1.5649 -0.7751
14763TIP3    H265705   3.765   4.918   6.382 -1.7866  0.4819 -1.3822
14764TIP3   OH265706   4.819   4.210  12.709  0.1194 -0.4628  0.1497
14764TIP3    H165707   4.748   4.199  12.773  2.1917 -0.1328  2.6885
14764TIP3    H265708   4.796   4.150  12.638 -1.4440 -2.2539  2.0258
14765TIP3   OH265709   4.999   4.093  10.335 -0.3177 -0.1062 -0.4622
14765TIP3    H165710   5.019   4.184  10.355  0.0138 -0.1186 -0.7239
14765TIP3    H265711   5.084   4.052  10.322 -0.5021  0.1593 -3.0213
14766TIP3   OH265712   1.172   2.093  14.754 -0.1724  0.1083  0.3092
14766TIP3    H165713   1.170   2.088  14.658 -1.1073 -1.0422  0.3626
14766TIP3    H265714   1.080   2.100  14.779 -0.0420 -0.9827  1.1726
14767TIP3   OH265715   2.907   1.156  15.803 -0.3614 -0.0946 -0.0548
14767TIP3    H165716   2.917   1.252  15.805  0.0521 -0.1425  0.8133
14767TIP3    H265717   2.953   1.126  15.882 -0.4720 -1.0131 -0.3310
14768TIP3   OH265718   3.258   6.193  11.279  0.6792  0.4502  0.1457
14768TIP3    H165719   3.303   6.125  11.229  1.4356  0.4471  0.7992
14768TIP3    H265720   3.233   6.259  11.214 -0.8297 -0.8222 -0.6220
14769TIP3   OH265721   1.165   4.331   4.856  0.3661  0.0454  0.0745
14769TIP3    H165722   1.185   4.245   4.893 -0.1527 -1.0417 -2.0042
14769TIP3    H265723   1.248   4.362   4.821  0.6057  0.5299  1.0431
14770TIP3   OH265724   6.429   1.137   5.374 -0.1029  0.5671  0.3852
14770TIP3    H165725   6.509   1.090   5.351  0.4015  1.9065 -0.7942
14770TIP3    H265726   6.431   1.216   5.319 -1.8365  1.0331  0.9151
14771TIP3   OH265727   0.526   4.269  15.823 -0.2600 -0.3687  0.0953
14771TIP3    H165728   0.601   4.212  15.806  0.5426  1.3353 -2.6829
14771TIP3    H265729   0.562   4.341  15.874 -0.0380  0.2853 -0.9596
14772TIP3   OH265730   5.562   0.788  13.022 -0.1095  0.3716  0.7072
14772TIP3    H165731   5.623   0.861  13.034  0.1051 -0.1023  2.7971
14772TIP3    H265732   5.618   0.713  13.005 -0.1671  0.1684  1.4001
14773TIP3   OH265733   5.777   5.984   4.898  0.6436  0.0216 -0.0035
14773TIP3    H165734   5.804   5.892   4.899 -1.3552 -0.6496 -1.4676
14773TIP3    H265735   5.690   5.984   4.938  1.2421  1.5833  1.4654
14774TIP3   OH265736   2.058   5.760  14.540  0.2760 -0.1609  0.0288
14774TIP3    H165737   2.127   5.735  14.601  0.7994 -0.3597 -0.6320
14774TIP3    H265738   2.021   5.840  14.578  0.7616 -0.1414  0.4769
14775TIP3   OH265739   4.301   5.233   2.965 -0.0246  0.3074  0.1397
14775TIP3    H165740   4.226   5.229   2.905 -1.3460  0.5228  1.6859
14775TIP3    H265741   4.270   5.188   3.044  2.1391 -1.1961  0.1965
14776TIP3   OH265742   3.876   1.483  14.900  0.4960  0.2049 -0.1269
14776TIP3    H165743   3.861   1.389  14.889 -1.7190  0.5924 -0.9052
14776TIP3    H265744   3.953   1.502  14.847  1.5948 -1.3040  0.8443
14777TIP3   OH265745   2.575   2.621  10.717  0.6300  0.4764  0.7313
14777TIP3    H165746   2.506   2.601  10.654 -0.0583  1.6559  1.0931
14777TIP3    H265747   2.606   2.708  10.694  1.0594  0.5161  1.4129
14778TIP3   OH265748   2.702   4.821  15.626  0.4524  0.2188  0.0179
14778TIP3    H165749   2.638   4.875  15.674  0.0922 -0.1272 -0.0721
14778TIP3    H265750   2.703   4.858  15.538 -0.3797 -0.4149 -0.2618
14779TIP3   OH265751   3.108   0.932   5.482  0.3666 -0.3045 -0.0883
14779TIP3    H165752   3.049   0.985   5.428 -0.0293 -0.6933 -0.0429
14779TIP3    H265753   3.162   0.996   5.529  0.5729  0.0400 -0.7810
14780TIP3   OH265754   0.870   4.760  11.134 -0.4178  0.0887  0.0918
14780TIP3    H165755   0.873   4.680  11.082  0.5832 -0.5977  1.1795
14780TIP3    H265756   0.863   4.731  11.225 -1.7074  1.2623  0.4144
14781TIP3   OH265757   1.439   0.062   2.737  0.5220 -0.0615 -0.3025
14781TIP3    H165758   1.369  -0.002   2.729  0.6664 -0.2623 -0.0019
14781TIP3    H265759   1.425   0.123   2.665 -1.1677  1.0595  0.8724
14782TIP3   OH265760   5.758   5.143   0.984 -0.5046 -0.3279  0.0398
14782TIP3    H165761   5.739   5.075   0.920 -2.0649 -0.3767  0.5192
14782TIP3    H265762   5.694   5.212   0.966  0.5839  0.7093  0.0302
14783TIP3   OH265763   2.268   6.606   2.096  0.5638  0.7385  0.7008
14783TIP3    H165764   2.348   6.628   2.048  1.3537 -0.7227  1.2740
14783TIP3    H265765   2.299   6.581   2.183 -0.4271 -0.6145  0.6994
14784TIP3   OH265766   1.092   6.800  10.858  0.1265  0.5740  0.3088
14784TIP3    H165767   1.164   6.852  10.823  0.8843  0.0948  1.1397
14784TIP3    H265768   1.108   6.795  10.952  0.6723 -2.0056  0.1686
14785TIP3   OH265769   4.007   6.284  16.747 -0.3875 -0.0961 -0.5909
14785TIP3    H165770   3.996   6.379  16.757 -1.4868 -0.1911 -0.7540
14785TIP3    H265771   4.076   6.276  16.680 -1.2214  0.6157 -1.5771
14786TIP3   OH265772   5.581   0.797   2.630 -0.1951 -0.0550 -0.1701
14786TIP3    H165773   5.562   0.818   2.722 -1.3622  0.6704 -0.5632
14786TIP3    H265774   5.632   0.871   2.598  0.5275 -0.4783 -0.0181
14787TIP3   OH265775   6.122   5.833   0.209 -0.2047 -0.0853 -0.0330
14787TIP3    H165776   6.150   5.747   0.178 -0.0047 -0.6405  1.6368
14787TIP3    H265777   6.202   5.884   0.215 -0.2302 -0.0127 -0.2638
14788TIP3   OH265778   6.261   1.641  12.184 -0.1429  0.1102  0.3666
14788TIP3    H165779   6.225   1.728  12.171 -0.4907 -0.0554  0.2133
14788TIP3    H265780   6.315   1.649  12.263  1.0738  0.8425 -0.4880
14789TIP3   OH265781   4.674   3.515   0.284  0.1689 -0.6949 -0.1568
14789TIP3    H165782   4.731   3.519   0.207 -0.2360 -0.0333 -0.4349
14789TIP3    H265783   4.591   3.552   0.254  0.4737  1.0206  0.9864
14790TIP3   OH265784   1.967   1.436  15.772 -0.4765  0.0202 -0.1854
14790TIP3    H165785   1.996   1.419  15.862 -0.5671  0.5902 -0.0427
14790TIP3    H265786   2.045   1.422  15.719  0.1465  1.7204  0.2169
14791TIP3   OH265787   6.406   2.267   5.888  0.0919  0.0710 -0.2943
14791TIP3    H165788   6.493   2.258   5.928 -0.2237  1.5686  0.8090
14791TIP3    H265789   6.420   2.328   5.816  0.2400 -0.9463 -1.1505
14792TIP3   OH265790   3.737   4.869   4.945 -0.1758  0.3663  0.5600
14792TIP3    H165791   3.740   4.964   4.930  0.7881  0.3413  0.5003
14792TIP3    H265792   3.752   4.830   4.859  2.6852  0.2099  1.0183
14793TIP3   OH265793   2.224   0.930  16.418  0.1964 -0.0886  0.2130
14793TIP3    H165794   2.240   0.969  16.332  0.9916  0.5238  0.6205
14793TIP3    H265795   2.291   0.968  16.474 -2.5179  2.4887  2.0366
14794TIP3   OH265796   5.361   2.039   3.701  0.7573  0.5373 -0.7109
14794TIP3    H165797   5.419   2.108   3.669  1.7281 -1.2240 -3.0796
14794TIP3    H265798   5.274   2.065   3.672  0.8729  1.4454 -0.2837
14795TIP3   OH265799   4.075   1.809  14.886 -0.0163 -0.0149 -0.4742
14795TIP3    H165800   4.170   1.810  14.893  0.0127  0.4103 -0.8942
14795TIP3    H265801   4.045   1.778  14.972  0.4832  0.3839 -0.1494
14796TIP3   OH265802   6.417   3.539   4.647 -0.1503 -0.6946 -0.2710
14796TIP3    H165803   6.343   3.598   4.655  0.6468  0.0975  2.4099
14796TIP3    H265804   6.488   3.583   4.694  1.2403 -2.5857 -0.4903
14797TIP3   OH265805   4.577   3.184  11.749 -0.4182 -0.2344  0.0175
14797TIP3    H165806   4.519   3.127  11.800 -1.6330 -0.3278 -1.3929
14797TIP3    H265807   4.520   3.223  11.683  0.0875  3.4892  1.5168
14798TIP3   OH265808   2.571   0.932   5.203 -0.0350 -0.7034 -0.2077
14798TIP3    H165809   2.476   0.936   5.217 -0.4194 -0.2228 -2.5646
14798TIP3    H265810   2.587   0.842   5.174  0.1744 -0.6579 -0.2312
14799TIP3   OH265811   2.180   4.346  14.161 -0.2350 -0.1291  0.1674
14799TIP3    H165812   2.106   4.379  14.109  0.4450  0.3993 -0.4713
14799TIP3    H265813   2.230   4.291  14.100  0.1704 -0.0955  0.4673
14800TIP3   OH265814   4.680   6.513   5.047  0.5426  0.6285 -0.7528
14800TIP3    H165815   4.743   6.453   5.007  0.1999 -0.7937  0.7753
14800TIP3    H265816   4.601   6.502   4.994  0.6418  0.1211 -0.8051
14801TIP3   OH265817   3.959   0.672   3.397 -0.0500 -0.1170 -0.6291
14801TIP3    H165818   3.876   0.660   3.351 -1.4744  2.3818  1.0463
14801TIP3    H265819   3.972   0.590   3.445 -1.5249 -0.6058 -1.0095
14802TIP3   OH265820   2.513   5.620  11.991 -0.0720  0.5525  0.1677
14802TIP3    H165821   2.530   5.668  12.072 -0.7232  0.4620  0.3650
14802TIP3    H265822   2.600   5.598  11.957  0.2037 -0.0921  1.2511
14803TIP3   OH265823   5.216   1.449   0.921 -0.3404 -0.5289  0.2659
14803TIP3    H165824   5.170   1.504   0.984  1.4766  2.5099 -0.8522
14803TIP3    H265825   5.191   1.484   0.835  2.7369  0.3122 -0.4154
14804TIP3   OH265826   5.080   5.937   0.698 -0.4060  0.3845  0.0532
14804TIP3    H165827   4.990   5.964   0.676  0.2651  1.7082 -1.2608
14804TIP3    H265828   5.074   5.905   0.788 -2.3096 -0.1778 -0.2228
14805TIP3   OH265829   2.238   3.038   0.925 -0.1161  0.1546  0.0591
14805TIP3    H165830   2.159   3.090   0.940 -0.5923  0.5762 -3.1520
14805TIP3    H265831   2.310   3.099   0.944 -0.4770 -0.1359  2.6984
14806TIP3   OH265832   2.262   1.543   2.465  0.5617  1.0782 -0.0520
14806TIP3    H165833   2.227   1.618   2.513  0.6625  0.7204  0.5926
14806TIP3    H265834   2.348   1.571   2.435  1.0024  0.8965  1.0141
14807TIP3   OH265835   4.395   2.146   3.058 -0.3032  0.1333  0.1112
14807TIP3    H165836   4.447   2.224   3.076 -0.3480  0.3291 -0.5726
14807TIP3    H265837   4.323   2.150   3.120 -0.1477  0.4825  0.2732
14808TIP3   OH265838   4.222   6.469  14.751 -0.0648  0.3575 -0.1708
14808TIP3    H165839   4.251   6.414  14.679 -1.3024 -0.4634 -0.0720
14808TIP3    H265840   4.220   6.558  14.714  0.0642  0.0557 -0.9153
14809TIP3   OH265841   1.701   0.261  16.661 -0.3170 -0.2413 -0.4174
14809TIP3    H165842   1.728   0.190  16.720  0.0691  1.4023  1.4836
14809TIP3    H265843   1.614   0.286  16.692 -0.0074  0.8123 -0.3738
14810TIP3   OH265844   2.119   5.126  12.893 -0.3492  0.3019  0.1865
14810TIP3    H165845   2.130   5.220  12.910 -0.5029  0.2833  0.4014
14810TIP3    H265846   2.065   5.096  12.966 -0.2513  0.0345  0.1480
14811TIP3   OH265847   5.767   3.401  12.739 -1.0808  0.8112  0.0019
14811TIP3    H165848   5.678   3.433  12.720 -1.0070  1.4912  0.7772
14811TIP3    H265849   5.757   3.305  12.741 -1.5979  0.8276 -0.8529
14812TIP3   OH265850   4.574   2.361   3.614  0.5641  0.2315 -0.1658
14812TIP3    H165851   4.607   2.420   3.546  1.4186  0.4894  0.4447
14812TIP3    H265852   4.591   2.273   3.580 -2.0306  0.2498 -1.7232
14813TIP3   OH265853   4.778   2.435   0.693  0.2950 -0.0606  0.6415
14813TIP3    H165854   4.710   2.419   0.628  1.0838 -0.3965 -0.1129
14813TIP3    H265855   4.812   2.522   0.672  0.0440  0.1444  1.0720
14814TIP3   OH265856   5.900   2.969  12.263 -0.6217 -0.1659  0.0861
14814TIP3    H165857   5.852   3.005  12.189 -0.7606  3.1414  1.6117
14814TIP3    H265858   5.834   2.920  12.313 -0.8578 -1.1162 -1.1161
14815TIP3   OH265859   6.212   2.745   2.314 -0.4242 -0.6954 -0.0703
14815TIP3    H165860   6.285   2.703   2.360 -1.1084  0.0083  1.7455
14815TIP3    H265861   6.145   2.756   2.380 -1.3413  0.7037 -1.1664
14816TIP3   OH265862   1.728   3.212  12.281  0.3359  0.0791 -0.1472
14816TIP3    H165863   1.763   3.279  12.222 -1.3752 -0.6406 -2.1153
14816TIP3    H265864   1.634   3.229  12.283  0.0131 -1.5674  0.2273
14817TIP3   OH265865   3.173   0.001  16.646  0.0499  0.2826  0.2598
14817TIP3    H165866   3.248   0.042  16.603 -0.0563  0.2138  0.0054
14817TIP3    H265867   3.101   0.011  16.584  0.3700 -1.6488 -0.5016
14818TIP3   OH265868   6.547   2.420   1.015 -0.1434  0.0717  0.0189
14818TIP3    H165869   6.453   2.409   1.003 -0.1798  0.1240  0.2656
14818TIP3    H265870   6.567   2.504   0.972 -0.1014 -0.2409 -0.5916
14819TIP3   OH265871   0.178   0.035   6.348  0.2849  0.0252 -0.0880
14819TIP3    H165872   0.196   0.113   6.296  1.1332 -1.5000 -2.2673
14819TIP3    H265873   0.129   0.066   6.423 -0.9212  2.4364 -1.7522
14820TIP3   OH265874   3.561   2.857  16.400 -0.2084 -0.3065 -0.6759
14820TIP3    H165875   3.560   2.942  16.356 -1.3369 -1.3581 -2.7854
14820TIP3    H265876   3.631   2.866  16.465 -0.5581  2.3516 -0.5353
14821TIP3   OH265877   4.212   0.552  11.786  0.3408  1.1169  0.3853
14821TIP3    H165878   4.170   0.510  11.711 -1.4685  0.8324  1.4786
14821TIP3    H265879   4.222   0.644  11.760  0.9934  0.7545 -0.6839
14822TIP3   OH265880   5.393   2.755  12.854  0.2412  0.1369 -0.2539
14822TIP3    H165881   5.334   2.699  12.902 -0.4755  2.3176  1.5970
14822TIP3    H265882   5.337   2.801  12.791  0.4543  0.2052 -0.3960
14823TIP3   OH265883   0.544   0.907  12.039  0.2937  0.5935  0.2561
14823TIP3    H165884   0.524   0.944  11.953 -1.5200  1.9670  1.1764
14823TIP3    H265885   0.537   0.812  12.027  2.4521  0.5764 -1.5909
14824TIP3   OH265886   6.734   4.137   4.684  0.2157 -0.0765 -0.0109
14824TIP3    H165887   6.746   4.047   4.714  0.2511 -0.6226 -1.5900
14824TIP3    H265888   6.700   4.129   4.595 -2.9310  1.4836  0.9337
14825TIP3   OH265889   1.289   1.326   0.007  0.1214 -0.1172 -0.5521
14825TIP3    H165890   1.300   1.395  -0.059  0.7467  0.5579  0.2388
14825TIP3    H265891   1.207   1.346   0.050 -0.5622 -0.8677 -1.4591
14826TIP3   OH265892   1.709   5.941   0.539 -0.0268  0.3740 -0.2849
14826TIP3    H165893   1.747   5.868   0.588  0.8475  0.4289 -0.8643
14826TIP3    H265894   1.737   6.019   0.587  0.5106  0.4083 -0.6451
14827TIP3   OH265895   0.692   4.352   5.656 -0.5246  0.0312  0.4080
14827TIP3    H165896   0.760   4.356   5.723 -0.8981  0.5879  0.7557
14827TIP3    H265897   0.633   4.425   5.677 -0.6495  0.2066 -0.5130
14828TIP3   OH265898   3.526   5.617  13.726  0.2454 -0.4877 -0.1788
14828TIP3    H165899   3.480   5.625  13.810  0.8110 -0.7454  0.1570
14828TIP3    H265900   3.503   5.697  13.679  0.8146  0.1776  0.6587
14829TIP3   OH265901   3.665   4.012   0.813  0.3164  0.2893 -0.2537
14829TIP3    H165902   3.582   4.060   0.815 -0.8692 -1.5030 -2.5869
14829TIP3    H265903   3.732   4.080   0.804 -1.0921  1.6306 -0.9607
14830TIP3   OH265904   3.925   2.762   5.499  0.2103 -0.1172  0.1522
14830TIP3    H165905   3.990   2.769   5.429  1.5335 -0.5469  1.2956
14830TIP3    H265906   3.930   2.845   5.545 -0.1740 -0.0924  0.1509
14831TIP3   OH265907   6.419   5.312   1.928 -0.8332 -0.2147  0.0396
14831TIP3    H165908   6.458   5.324   2.015  2.2323 -0.9975 -1.0974
14831TIP3    H265909   6.491   5.283   1.873 -2.9005 -0.8235 -2.5719
14832TIP3   OH265910   4.105   4.383  15.892 -0.5636 -0.2606 -0.2508
14832TIP3    H165911   4.092   4.289  15.888  0.1503 -0.3277 -1.9457
14832TIP3    H265912   4.026   4.417  15.932 -0.5350 -1.6321  1.0378
14833TIP3   OH265913   6.402   2.011   0.923 -0.1196  0.3084 -0.1579
14833TIP3    H165914   6.494   1.987   0.932 -0.0171  1.1050  1.3167
14833TIP3    H265915   6.364   1.943   0.868  0.8273 -1.3885  1.2086
14834TIP3   OH265916   2.656   0.757   5.752  0.3881  0.1866  0.1690
14834TIP3    H165917   2.731   0.697   5.760 -0.5799 -1.3101 -1.3429
14834TIP3    H265918   2.642   0.766   5.658 -2.1734 -0.7147  0.3806
14835TIP3   OH265919   1.448   1.370  13.284  0.7466  0.0421  0.2405
14835TIP3    H165920   1.423   1.314  13.210 -0.2111 -0.7924  1.1675
14835TIP3    H265921   1.497   1.313  13.343  0.2938  0.3273  0.9087
14836TIP3   OH265922   3.616   6.534  15.937  0.2331  0.6355  0.6748
14836TIP3    H165923   3.688   6.507  15.994 -0.1031 -0.8285  0.4305
14836TIP3    H265924   3.582   6.614  15.977  0.5514  0.1102  2.0447
14837TIP3   OH265925   1.356   5.442  14.726  0.3047 -0.2455 -0.5575
14837TIP3    H165926   1.346   5.507  14.796  2.0314 -0.6087  0.0521
14837TIP3    H265927   1.346   5.493  14.646 -1.1955  0.2633 -0.0966
14838TIP3   OH265928   4.803   1.061  16.442 -0.6998  0.0710 -0.0196
14838TIP3    H165929   4.882   1.044  16.493  0.5951  0.5326 -1.7727
14838TIP3    H265930   4.833   1.114  16.369 -2.2161 -1.6164 -1.9856
14839TIP3   OH265931   3.873   6.020  15.837  0.1132 -0.0725 -0.0044
14839TIP3    H165932   3.960   5.986  15.817  0.2290 -0.2719  0.8041
14839TIP3    H265933   3.838   5.960  15.902  0.1948  1.1579  1.2187
14840TIP3   OH265934   4.775   6.698   4.445  0.0625  0.0219  0.1477
14840TIP3    H165935   4.746   6.745   4.366 -0.1279 -0.2295  0.0667
14840TIP3    H265936   4.854   6.745   4.472  1.1421 -0.9411 -1.1840
14841TIP3   OH265937   0.948   5.688   3.160  0.4903  0.0444 -0.1053
14841TIP3    H165938   0.884   5.649   3.220  0.5875  0.4543  0.2618
14841TIP3    H265939   1.026   5.701   3.213  0.7758 -0.1448 -0.4732
14842TIP3   OH265940   1.754   3.401  13.457  0.1060  0.4285  0.1255
14842TIP3    H165941   1.686   3.384  13.392 -1.8019  1.9339  1.5898
14842TIP3    H265942   1.801   3.478  13.423  1.2764 -0.7396 -0.9900
14843TIP3   OH265943   3.238   2.375  16.408 -0.7728  0.0732  0.2146
14843TIP3    H165944   3.252   2.452  16.353  1.6230  1.5857  2.6727
14843TIP3    H265945   3.143   2.368  16.417 -1.0891  1.6457 -1.5109
14844TIP3   OH265946   0.060   6.535  11.749 -0.0510  0.8494 -0.0581
14844TIP3    H165947   0.127   6.466  11.756 -2.8958 -2.2168 -0.5297
14844TIP3    H265948   0.078   6.578  11.666  1.4686  0.2891 -0.0501
14845TIP3   OH265949   6.803   0.012  12.618 -0.0538  0.4822  0.3487
14845TIP3    H165950   6.795  -0.011  12.526 -0.9349  0.9749  0.2931
14845TIP3    H265951   6.861   0.088  12.619 -1.1346  1.3289  0.0601
14846TIP3   OH265952   2.746   2.710  10.474  0.0766 -0.1959 -0.5598
14846TIP3    H165953   2.826   2.659  10.486  0.2875 -0.0638 -1.3241
14846TIP3    H265954   2.775   2.801  10.475 -0.2667 -0.0853  0.5603
14847TIP3   OH265955   2.677   4.261  14.230  0.3096  0.6293  0.3582
14847TIP3    H165956   2.673   4.245  14.324 -0.2592  0.7633  0.3661
14847TIP3    H265957   2.593   4.230  14.197  1.8678 -2.8983 -0.7035
14848TIP3   OH265958   3.043   2.803   2.181  0.4427 -0.2142  0.0384
14848TIP3    H165959   3.013   2.840   2.264 -0.2238  0.1110 -0.3380
14848TIP3    H265960   3.027   2.709   2.190 -1.1526 -0.0120 -0.3080
14849TIP3   OH265961   2.146   4.625  13.187  0.5948  0.4880  0.4400
14849TIP3    H165962   2.087   4.695  13.158  1.1584  0.1938 -1.5631
14849TIP3    H265963   2.087   4.552  13.207  0.1067  1.0725  1.2413
14850TIP3   OH265964   6.094   1.815   2.587 -0.4135 -0.0003  0.1947
14850TIP3    H165965   6.076   1.721   2.587  1.5986 -0.4963 -1.9781
14850TIP3    H265966   6.175   1.823   2.638  1.0340  0.0537 -1.9734
14851TIP3   OH265967   6.245   4.978  13.964  0.0301 -0.1579 -0.5603
14851TIP3    H165968   6.294   4.897  13.944  1.1096  0.4831 -0.6060
14851TIP3    H265969   6.310   5.034  14.007 -0.9137  0.4036  0.1613
14852TIP3   OH265970   1.321   0.653   1.256  0.3562 -0.3229  0.2044
14852TIP3    H165971   1.274   0.677   1.336  2.0415 -0.0072  1.1371
14852TIP3    H265972   1.399   0.607   1.286  1.8390  1.1566 -1.1650
14853TIP3   OH265973   0.530   1.710  10.842 -0.7079  0.3704 -0.1463
14853TIP3    H165974   0.521   1.761  10.923 -1.1231  2.6503 -1.5563
14853TIP3    H265975   0.470   1.636  10.854 -1.2630  1.0150  1.3480
14854TIP3   OH265976   0.821   5.243  15.034  0.4860 -0.3847 -0.6168
14854TIP3    H165977   0.827   5.338  15.032  1.1949 -0.4349 -1.5646
14854TIP3    H265978   0.856   5.214  14.950 -1.9988 -1.3829 -1.4009
14855TIP3   OH265979   5.991   2.599  12.246 -0.4563  0.3316  0.1512
14855TIP3    H165980   5.924   2.598  12.314 -0.3147  3.0301  0.4491
14855TIP3    H265981   6.068   2.560  12.289 -1.0804 -0.3541  0.6726
14856TIP3   OH265982   0.345   1.753   3.003  1.0000 -0.0783  0.5938
14856TIP3    H165983   0.371   1.845   2.991  0.0606  0.0447 -0.7499
14856TIP3    H265984   0.428   1.705   3.009  1.5165  0.6975 -0.1367
14857TIP3   OH265985   6.110   3.662  15.944  0.4382 -0.0790  0.5567
14857TIP3    H165986   6.129   3.651  15.851  3.6762 -0.3192  1.1404
14857TIP3    H265987   6.099   3.756  15.956 -0.6935 -0.1027 -0.1261
14858TIP3   OH265988   3.441   5.555  14.431  0.3003 -0.2116 -0.4573
14858TIP3    H165989   3.363   5.599  14.465  0.4175  1.5322 -2.2998
14858TIP3    H265990   3.501   5.551  14.506 -0.8136  0.1834  0.4732
14859TIP3   OH265991   3.706   5.266  13.070 -0.0345 -0.0637 -0.1711
14859TIP3    H165992   3.724   5.360  13.073  0.0805 -0.0074 -1.8074
14859TIP3    H265993   3.786   5.225  13.104 -0.5078  0.4256  1.6446
14860TIP3   OH265994   4.005   6.388  11.206  0.5172 -0.1085 -0.3854
14860TIP3    H165995   4.077   6.326  11.212  0.5024  0.0433  2.5250
14860TIP3    H265996   3.929   6.341  11.240  0.2615  1.0927  0.8268
14861TIP3   OH265997   1.720   1.217   3.258 -0.3330  0.5979 -0.1849
14861TIP3    H165998   1.631   1.181   3.255 -0.1471 -0.2162  1.8641
14861TIP3    H265999   1.717   1.281   3.330  0.4373  1.4919 -0.9303
14862TIP3   OH266000   3.893   4.157  17.060  0.8147  0.0449  0.0305
14862TIP3    H166001   3.933   4.201  16.985  0.6353  0.9868  0.4715
14862TIP3    H266002   3.897   4.222  17.130 -2.0075  0.4300 -0.0609
14863TIP3   OH266003   1.937   3.230  15.802 -0.0603 -0.1789 -0.3211
14863TIP3    H166004   2.028   3.200  15.797  0.2112  0.6147 -0.2837
14863TIP3    H266005   1.925   3.255  15.894 -0.3837 -0.4735 -0.2811
14864TIP3   OH266006   1.078   0.233   2.378 -0.5333 -0.1990 -0.3291
14864TIP3    H166007   1.014   0.281   2.431 -1.9242 -1.5690 -0.6952
14864TIP3    H266008   1.126   0.179   2.441  0.2901  0.8096 -0.0581
14865TIP3   OH266009   5.006   6.806   0.775 -0.6753  0.3299  0.0438
14865TIP3    H166010   5.080   6.843   0.727  1.2823 -0.5308  2.1691
14865TIP3    H266011   4.960   6.751   0.712 -0.4324  2.0822 -1.7338
14866TIP3   OH266012   0.989   3.263  16.555  0.3110 -0.1318  0.1615
14866TIP3    H166013   1.064   3.294  16.504 -0.9254  0.4231 -1.4238
14866TIP3    H266014   0.944   3.202  16.496 -2.4386  2.2384 -0.4384
14867TIP3   OH266015   1.488   5.639  11.989  0.6487 -0.1230  0.0392
14867TIP3    H166016   1.551   5.617  11.921  0.3178  0.1991 -0.3761
14867TIP3    H266017   1.408   5.663  11.942  0.1746 -0.6347  0.5589
14868TIP3   OH266018   6.471   3.901  12.026 -0.1515 -0.3507 -0.2584
14868TIP3    H166019   6.557   3.935  12.052 -0.8706 -0.1326  2.0272
14868TIP3    H266020   6.468   3.812  12.062 -1.2907  0.0507  0.7104
14869TIP3   OH266021   0.177   4.619  14.628  0.2772  0.0771 -0.2799
14869TIP3    H166022   0.234   4.560  14.580  0.4530 -0.9437  1.1108
14869TIP3    H266023   0.220   4.631  14.713 -0.3120  1.3298 -0.1350
14870TIP3   OH266024   0.630   2.761   4.294 -0.3500  0.4149 -0.8792
14870TIP3    H166025   0.721   2.776   4.266 -0.2727  2.6072  0.3207
14870TIP3    H266026   0.635   2.757   4.390 -1.4216 -0.3339 -0.8447
14871TIP3   OH266027   3.400   3.295  15.470 -0.0937 -0.2147  0.4322
14871TIP3    H166028   3.449   3.296  15.552  0.0981 -1.3129  0.3563
14871TIP3    H266029   3.371   3.385  15.457  1.2226  0.3050  0.8976
14872TIP3   OH266030   3.959   2.775  15.987  0.3958  0.0867 -0.2349
14872TIP3    H166031   4.026   2.790  15.920  0.2408  0.9725 -0.2117
14872TIP3    H266032   3.894   2.843  15.970 -0.0254 -0.1734  0.3320
14873TIP3   OH266033   4.877   1.768   0.218  0.2823  0.3085 -0.2332
14873TIP3    H166034   4.869   1.679   0.182  0.4824 -0.0010  0.4783
14873TIP3    H266035   4.925   1.817   0.151  1.5686 -0.5314  0.0435
14874TIP3   OH266036   5.014   0.808   2.967  1.0318  0.3013 -0.6635
14874TIP3    H166037   4.923   0.832   2.985  1.5046  1.5766  0.1625
14874TIP3    H266038   5.025   0.822   2.873 -0.1976 -1.9716 -1.2292
14875TIP3   OH266039   1.776   3.883   0.044  0.3418  0.1209 -0.4140
14875TIP3    H166040   1.786   3.887   0.139 -0.8048 -0.3809 -0.2514
14875TIP3    H266041   1.819   3.801   0.018 -1.0739 -0.7667 -0.0511
14876TIP3   OH266042   5.371   5.258  11.749  0.0097  0.3540  0.1616
14876TIP3    H166043   5.389   5.283  11.839 -1.9822 -2.4835  1.4944
14876TIP3    H266044   5.428   5.183  11.733  0.1870  0.7005 -0.8974
14877TIP3   OH266045   2.728   0.072  11.135 -0.2455 -0.0572  0.1948
14877TIP3    H166046   2.662   0.029  11.189 -0.6238 -0.2199 -0.3836
14877TIP3    H266047   2.714   0.035  11.047 -0.1894  0.8098 -0.1842
14878TIP3   OH266048   5.701   5.326  14.994  0.0204 -0.6888 -0.0207
14878TIP3    H166049   5.623   5.270  14.992  0.1502 -0.8626 -0.2184
14878TIP3    H266050   5.772   5.266  15.016  0.1294 -0.5638 -0.0346
14879TIP3   OH266051   0.323   3.173  12.678  0.0824  0.3032 -0.5527
14879TIP3    H166052   0.390   3.166  12.746 -0.4442 -1.4906 -0.1564
14879TIP3    H266053   0.360   3.128  12.602  0.2330  1.3611 -1.1329
14880TIP3   OH266054   6.193   5.298   1.401 -0.1146  0.3461  0.0700
14880TIP3    H166055   6.180   5.311   1.495 -0.5337  1.0633 -0.0742
14880TIP3    H266056   6.196   5.203   1.389  0.3756  0.2550  0.8605
14881TIP3   OH266057   4.210   0.231  14.593  0.0453 -0.3471  0.3192
14881TIP3    H166058   4.252   0.311  14.562  1.9421 -0.7280  1.7153
14881TIP3    H266059   4.166   0.196  14.516  0.7170  1.1012 -0.7661
14882TIP3   OH266060   6.577   5.792   2.846  0.1855 -0.9509  0.0102
14882TIP3    H166061   6.573   5.816   2.754 -0.1006  0.2829  0.3284
14882TIP3    H266062   6.538   5.866   2.892  2.6647 -0.3524  1.3213
14883TIP3   OH266063   1.529   5.947  17.020  0.3326  0.5232 -0.0258
14883TIP3    H166064   1.529   6.006  17.095  1.0462 -0.9623  1.1823
14883TIP3    H266065   1.613   5.964  16.977  1.2497 -0.6519  1.2167
14884TIP3   OH266066   4.477   1.080  16.162  0.1187  0.4749 -0.3833
14884TIP3    H166067   4.531   1.116  16.091 -0.2441  3.3229  0.6755
14884TIP3    H266068   4.539   1.035  16.219  1.3310  2.8506  0.2925
14885TIP3   OH266069   6.135   1.926  16.257  0.1864  0.6618  0.1477
14885TIP3    H166070   6.129   1.969  16.343  1.3935  1.9618 -0.3919
14885TIP3    H266071   6.227   1.933  16.232  0.0680 -0.6735 -0.7882
14886TIP3   OH266072   2.628   5.747  12.218  0.2787  0.1251 -0.1279
14886TIP3    H166073   2.709   5.697  12.210  0.2254 -0.3159  1.6074
14886TIP3    H266074   2.588   5.713  12.299  0.0491  2.6977  0.9180
14887TIP3   OH266075   5.540   0.363  11.204 -0.0310 -0.3540 -0.1275
14887TIP3    H166076   5.519   0.294  11.141 -0.2235 -0.6874  0.2976
14887TIP3    H266077   5.480   0.348  11.278 -1.7096  1.6748 -0.9890
14888TIP3   OH266078   1.419   4.277   6.178  0.2298 -0.2218 -0.2953
14888TIP3    H166079   1.443   4.359   6.220  2.4937 -0.4183 -1.0513
14888TIP3    H266080   1.456   4.209   6.234 -0.4782 -0.6867 -0.3696
14889TIP3   OH266081   1.102   5.929  14.518  0.2101  0.1882  0.4577
14889TIP3    H166082   1.183   5.889  14.488 -0.6378 -1.4570  0.2373
14889TIP3    H266083   1.061   5.965  14.439 -0.2951 -0.9242  0.1984
14890TIP3   OH266084   2.287   1.430   0.741  0.0393 -0.1419 -0.2016
14890TIP3    H166085   2.214   1.469   0.692 -0.7541 -2.1141 -0.6690
14890TIP3    H266086   2.276   1.336   0.729  2.9245 -0.5053 -0.6426
14891TIP3   OH266087   1.157   0.640   0.023 -0.0397  0.0476  0.5883
14891TIP3    H166088   1.253   0.636   0.024 -0.0628 -1.0896 -0.0892
14891TIP3    H266089   1.132   0.640   0.115  0.6264  1.3775  0.7993
14892TIP3   OH266090   4.120   6.497   6.735 -0.1453 -0.0041 -0.6888
14892TIP3    H166091   4.147   6.588   6.723 -0.0184  0.2292  1.0908
14892TIP3    H266092   4.033   6.503   6.774 -0.5215 -0.6751 -1.4062
14893TIP3   OH266093   4.882   4.399   3.359  0.0335 -0.2440 -0.5558
14893TIP3    H166094   4.975   4.388   3.379 -0.0299 -0.8759 -0.5929
14893TIP3    H266095   4.873   4.365   3.270 -0.0478  0.7598 -0.9492
14894TIP3   OH266096   3.954   1.129  15.029  0.2598 -0.1185 -0.0687
14894TIP3    H166097   3.969   1.208  15.081  1.7964 -0.8272  0.6215
14894TIP3    H266098   4.023   1.069  15.056  0.1682 -1.0807 -1.8284
14895TIP3   OH266099   3.146   1.731   4.036  0.2377 -0.7104 -0.1216
14895TIP3    H166100   3.117   1.700   4.122  1.1448  1.1379  0.9098
14895TIP3    H266101   3.231   1.688   4.023  0.7992  0.1371  0.6200
14896TIP3   OH266102   4.266   5.009   2.742  0.5560  0.1185 -0.5424
14896TIP3    H166103   4.202   4.979   2.678 -0.9291 -0.1346  0.9969
14896TIP3    H266104   4.219   5.072   2.796  1.7660  0.3560  0.2832
14897TIP3   OH266105   4.800   1.768   0.637 -0.1632 -0.0892  0.0276
14897TIP3    H166106   4.772   1.719   0.715  0.3166 -0.9264 -0.3134
14897TIP3    H266107   4.844   1.845   0.672  0.5829 -0.7570  0.6155
14898TIP3   OH266108   6.185   3.398  12.902 -0.1084  0.4708 -0.5360
14898TIP3    H166109   6.259   3.457  12.914  2.4713 -2.5183 -0.5447
14898TIP3    H266110   6.171   3.396  12.808  2.1439 -1.3964 -0.9281
14899TIP3   OH266111   2.737   2.789   1.013 -0.2305 -0.3815  0.0720
14899TIP3    H166112   2.693   2.789   1.098  1.0275 -0.8302  0.7512
14899TIP3    H266113   2.689   2.724   0.961 -0.8814 -0.2540  0.5115
14900TIP3   OH266114   1.631   5.301  15.147  0.1587  0.5308 -0.0799
14900TIP3    H166115   1.640   5.306  15.242 -0.0189 -0.2358 -0.0183
14900TIP3    H266116   1.720   5.282  15.116  0.2290  0.8449 -0.0779
14901TIP3   OH266117   3.929   5.674   2.193 -0.5002 -0.1193 -0.5349
14901TIP3    H166118   3.844   5.652   2.231 -0.0182 -0.7273  0.2417
14901TIP3    H266119   3.976   5.590   2.191  0.5606  0.4299  0.3450
14902TIP3   OH266120   0.086   5.056   0.574 -0.0404 -0.2574 -0.0457
14902TIP3    H166121   0.015   5.094   0.627 -0.4705  0.7418 -1.2899
14902TIP3    H266122   0.041   5.011   0.503  0.5233  1.4025 -1.5431
14903TIP3   OH266123   5.100   2.760   2.785 -0.3661 -0.5049  0.4481
14903TIP3    H166124   5.141   2.827   2.731 -2.9911  0.9593  0.1396
14903TIP3    H266125   5.154   2.757   2.864  0.3186  1.3751  0.1019
14904TIP3   OH266126   1.999   2.612   4.492 -0.1138 -0.3416 -0.0804
14904TIP3    H166127   1.921   2.666   4.477 -0.1792  0.1569  1.7996
14904TIP3    H266128   1.968   2.522   4.482 -0.0509 -0.1577 -3.0465
14905TIP3   OH266129   5.604   2.342  14.387  0.4581  0.1824  0.2435
14905TIP3    H166130   5.537   2.281  14.357  0.0650  0.7405 -0.0315
14905TIP3    H266131   5.558   2.402  14.445  0.3302  1.6009 -1.2454
14906TIP3   OH266132   3.141   2.969   2.738 -0.0355  0.3056 -0.5586
14906TIP3    H166133   3.201   3.043   2.730  0.5450 -0.1281 -0.3036
14906TIP3    H266134   3.198   2.892   2.737 -0.5872 -0.1134 -0.2850
14907TIP3   OH266135   1.027   2.924   2.011 -0.2542 -0.4301  0.0458
14907TIP3    H166136   1.097   2.985   2.034 -0.5485 -0.8130  2.1062
14907TIP3    H266137   0.991   2.959   1.929  1.1601  0.7720 -0.1094
14908TIP3   OH266138   2.773   1.313  15.129  0.5427  0.4155  0.4713
14908TIP3    H166139   2.776   1.218  15.135 -2.1442  0.0881 -1.4784
14908TIP3    H266140   2.854   1.337  15.085 -0.0716 -1.3587 -1.8035
14909TIP3   OH266141   4.978   5.896   3.289  0.2437 -0.1722 -0.2657
14909TIP3    H166142   4.886   5.903   3.265  0.2797 -3.2757 -1.7764
14909TIP3    H266143   5.025   5.903   3.205  1.3100  0.1097  0.3294
14910TIP3   OH266144   0.413   3.271   1.531 -0.1535 -0.2248  0.1136
14910TIP3    H166145   0.335   3.222   1.555 -0.1837  0.3397  1.2653
14910TIP3    H266146   0.380   3.356   1.501 -0.0352 -0.3982 -0.5146
14911TIP3   OH266147   1.810   0.853  12.616  0.1444 -0.0433 -0.3908
14911TIP3    H166148   1.744   0.786  12.601 -1.1587  1.2763 -0.8059
14911TIP3    H266149   1.884   0.826  12.562 -0.6871 -0.6955 -1.2346
14912TIP3   OH266150   0.179   1.395   3.057 -0.8514  0.7941 -0.6277
14912TIP3    H166151   0.262   1.371   3.016 -0.3931  0.3464  0.5070
14912TIP3    H266152   0.141   1.311   3.086  0.2756  1.2096  2.4623
14913TIP3   OH266153   5.666   0.670  12.582 -0.0752  0.1381 -0.0568
14913TIP3    H166154   5.593   0.722  12.616  1.2566  0.7188  2.1294
14913TIP3    H266155   5.702   0.723  12.511  0.3106  1.5599  1.1335
14914TIP3   OH266156   2.962   0.053  16.485  0.0576  0.1300  0.4372
14914TIP3    H166157   2.926   0.024  16.401 -0.1256  0.7720  0.2925
14914TIP3    H266158   2.897   0.114  16.520 -0.7455 -1.4348  1.8825
14915TIP3   OH266159   3.380   4.517   0.602 -0.2454  0.2116  0.5480
14915TIP3    H166160   3.419   4.591   0.649  1.8340  1.5236 -2.8362
14915TIP3    H266161   3.304   4.555   0.558  0.4068  0.2299 -0.6111
14916TIP3   OH266162   4.758   0.866   3.039  0.1754 -0.4201  0.4323
14916TIP3    H166163   4.697   0.843   2.968 -0.8781 -0.6156  1.3702
14916TIP3    H266164   4.701   0.885   3.114  1.2503  0.2254  1.1057
14917TIP3   OH266165   6.614   3.890  13.142 -0.3845 -0.0752 -0.5082
14917TIP3    H166166   6.521   3.906  13.125  0.0314  0.9544 -2.0195
14917TIP3    H266167   6.633   3.808  13.097 -0.1056  0.8364 -2.1597
14918TIP3   OH266168   3.776   0.388   3.245  0.5027 -0.1231 -0.5718
14918TIP3    H166169   3.752   0.317   3.185 -0.3485 -0.1925 -0.1565
14918TIP3    H266170   3.713   0.382   3.316  1.0016  0.4767 -0.0701
14919TIP3   OH266171   2.749   0.927   0.571 -0.5876  0.1230 -0.0375
14919TIP3    H166172   2.818   0.988   0.546 -0.0430 -0.2743  0.4612
14919TIP3    H266173   2.708   0.902   0.488 -0.0595  0.2768 -0.3493
14920TIP3   OH266174   2.618   4.966   4.315 -0.4869 -0.9048  0.4530
14920TIP3    H166175   2.527   4.978   4.343 -0.4790 -1.2152  0.6177
14920TIP3    H266176   2.625   4.872   4.298 -1.0039 -0.5495 -2.3696
14921TIP3   OH266177   5.139   3.899   5.969 -1.1007 -0.5898  0.0011
14921TIP3    H166178   5.124   3.945   6.052 -0.7684 -1.7355  0.7271
14921TIP3    H266179   5.174   3.813   5.995 -0.7312 -0.8745 -1.3398
14922TIP3   OH266180   1.122   0.582   2.032 -0.0173  0.4987  0.0824
14922TIP3    H166181   1.204   0.618   2.066  1.2723 -0.2255 -2.0561
14922TIP3    H266182   1.127   0.488   2.050  0.1004  0.3008 -0.9320
14923TIP3   OH266183   4.987   0.353   0.943  0.1240 -0.3671  0.1274
14923TIP3    H166184   5.010   0.381   1.031  0.5363 -0.9359  0.2077
14923TIP3    H266185   5.002   0.259   0.943  2.2066 -0.1139 -1.1317
14924TIP3   OH266186   0.373   3.036   0.724 -0.2449 -0.2914 -0.2783
14924TIP3    H166187   0.430   2.969   0.761  0.5231  0.6891  0.3540
14924TIP3    H266188   0.379   3.109   0.785 -0.2141  0.7707 -1.5076
14925TIP3   OH266189   4.131   3.069   4.264  0.0497  0.3161 -0.4434
14925TIP3    H166190   4.087   3.000   4.313 -1.4183  0.8240 -0.9914
14925TIP3    H266191   4.078   3.081   4.185  0.1380  2.2176 -0.2659
14926TIP3   OH266192   2.051   6.623  16.385  0.1411 -0.4205 -0.2216
14926TIP3    H166193   2.049   6.635  16.480  0.0492 -0.3962 -0.2269
14926TIP3    H266194   2.101   6.698  16.353 -0.4479 -0.0337 -0.2529
14927TIP3   OH266195   5.730   0.585   5.682 -0.9932 -0.2746 -0.6455
14927TIP3    H166196   5.682   0.630   5.753 -0.0736  1.2475 -0.9359
14927TIP3    H266197   5.820   0.616   5.691 -0.3879 -1.7989 -1.1363
14928TIP3   OH266198   2.317   4.060   0.377  0.0765  0.0558  0.4028
14928TIP3    H166199   2.336   4.144   0.418 -0.9314  0.3146  0.3625
14928TIP3    H266200   2.341   4.072   0.285 -0.4688  0.4574  0.3025
14929TIP3   OH266201   3.283   2.562  14.362 -0.3765  0.3705 -0.2546
14929TIP3    H166202   3.279   2.536  14.270  0.0531 -0.3520 -0.0747
14929TIP3    H266203   3.373   2.591  14.376 -0.1976 -0.3652  0.1558
14930TIP3   OH266204   0.227   2.603   6.266  0.0649  0.7421 -0.0854
14930TIP3    H166205   0.174   2.661   6.321  1.8100  0.4917  2.0394
14930TIP3    H266206   0.281   2.662   6.214  0.4853  1.0613  0.6841
14931TIP3   OH266207   6.197   4.117  14.639  0.5390  0.5095  0.4257
14931TIP3    H166208   6.138   4.042  14.631 -0.0035  0.9692 -0.0039
14931TIP3    H266209   6.266   4.087  14.697  1.7535 -1.1892 -1.7535
14932TIP3   OH266210   1.357   2.016  14.936  0.0649 -0.6532  0.0723
14932TIP3    H166211   1.419   2.079  14.898 -1.3420 -0.2281 -1.7021
14932TIP3    H266212   1.273   2.040  14.897 -1.4189 -0.6831  3.0256
14933TIP3   OH266213   2.755   6.423   2.813  0.0142 -0.0274  0.6217
14933TIP3    H166214   2.849   6.435   2.813  0.0206 -0.0645  0.3326
14933TIP3    H266215   2.719   6.511   2.809  0.0405 -0.0269  0.3989
14934TIP3   OH266216   2.483   6.685   4.087 -0.3103  0.1834  0.0389
14934TIP3    H166217   2.472   6.765   4.137 -3.5487 -0.3267  0.3309
14934TIP3    H266218   2.394   6.657   4.065  0.8263 -1.5048 -3.0191
14935TIP3   OH266219   5.953   2.660  11.154 -0.0854 -0.1350  0.7720
14935TIP3    H166220   5.958   2.712  11.074  1.0383 -1.7137 -0.2392
14935TIP3    H266221   6.028   2.689  11.206  0.5671 -0.7457  0.1899
14936TIP3   OH266222   5.763   1.721   4.868 -0.0682  0.0351  0.2947
14936TIP3    H166223   5.782   1.755   4.955 -2.7350 -0.0139  0.9682
14936TIP3    H266224   5.812   1.779   4.809  2.0452 -0.1322  1.7780
14937TIP3   OH266225   0.259   1.524   5.607 -0.0327 -0.3431 -0.6585
14937TIP3    H166226   0.351   1.510   5.586  0.1175 -0.0828 -0.1809
14937TIP3    H266227   0.239   1.611   5.572 -0.8112 -1.4001 -3.1012
14938TIP3   OH266228   2.961   0.263   6.417  0.1135 -0.3907 -0.7689
14938TIP3    H166229   2.898   0.271   6.488  0.0896  0.4308 -0.8774
14938TIP3    H266230   2.915   0.297   6.340  0.6718  0.1825 -0.8543
14939TIP3   OH266231   2.644   1.249  12.445 -0.0359 -0.2362  0.0150
14939TIP3    H166232   2.659   1.241  12.539  1.8125  2.1635  0.0028
14939TIP3    H266233   2.553   1.276  12.438 -0.7769 -2.2524  0.9273
14940TIP3   OH266234   4.870   2.884  13.183  0.2404 -0.2791  0.7741
14940TIP3    H166235   4.812   2.902  13.256  0.2978  1.9093  0.3376
14940TIP3    H266236   4.958   2.907  13.215  0.4501 -0.6194  0.4577
14941TIP3   OH266237   1.623   1.394  13.928 -0.0756 -0.1539 -0.0314
14941TIP3    H166238   1.688   1.388  13.857  0.2635 -0.8601  0.3281
14941TIP3    H266239   1.659   1.339  13.997 -0.9726 -0.3978  0.2474
14942TIP3   OH266240   3.581   6.135  16.588 -0.2401  0.1347  0.4116
14942TIP3    H166241   3.494   6.116  16.553  0.1822 -0.9809 -0.0575
14942TIP3    H266242   3.613   6.208  16.534 -0.4702 -0.1450 -0.1135
14943TIP3   OH266243   5.313   1.521  15.989  0.0680  0.3801 -0.4568
14943TIP3    H166244   5.317   1.616  15.994  2.9871  0.3747 -1.2165
14943TIP3    H266245   5.397   1.495  15.953 -1.4830 -2.3917 -2.4219
14944TIP3   OH266246   4.104   6.477   2.957  0.2825  0.0871 -0.1879
14944TIP3    H166247   4.030   6.438   3.003  0.3105  0.7402  0.4167
14944TIP3    H266248   4.176   6.417   2.973  0.0684 -0.1630 -0.1491
14945TIP3   OH266249   5.007   0.097  16.531 -0.4015 -0.0305  0.0716
14945TIP3    H166250   5.053   0.054  16.459  0.8125  1.0125  0.1917
14945TIP3    H266251   4.915   0.091  16.507 -0.0050  0.6659 -1.7997
14946TIP3   OH266252   2.024   2.743  13.702 -0.1045  0.4568  0.4188
14946TIP3    H166253   1.978   2.720  13.621 -3.1533  0.7845  1.8878
14946TIP3    H266254   2.028   2.839  13.700  0.0435  0.4523  0.5241
14947TIP3   OH266255   0.993   4.904   3.283  0.3354 -0.4596 -0.1915
14947TIP3    H166256   1.064   4.878   3.225 -0.4234 -0.1638 -1.2882
14947TIP3    H266257   1.025   4.981   3.329  1.0917 -0.9291  0.0894
14948TIP3   OH266258   2.751   0.295  14.969 -0.4030  0.1570  0.3160
14948TIP3    H166259   2.813   0.314  14.899 -2.2944  1.8952 -0.9895
14948TIP3    H266260   2.806   0.290  15.048  1.6093 -0.4328 -1.0435
14949TIP3   OH266261   4.017   4.221  13.898 -0.4505 -0.0394  1.0678
14949TIP3    H166262   3.994   4.268  13.817 -0.5828 -0.0718  1.0855
14949TIP3    H266263   4.075   4.280  13.945 -0.4722  0.0311  1.0052
14950TIP3   OH266264   3.456   4.205   4.654  0.0929  0.1211 -0.4099
14950TIP3    H166265   3.396   4.279   4.650 -1.9855 -1.4732 -0.4390
14950TIP3    H266266   3.495   4.210   4.742 -0.2185  1.0751 -0.3165
14951TIP3   OH266267   0.294   1.847  15.937  0.0739  0.5073  0.5955
14951TIP3    H166268   0.369   1.807  15.981  0.4603  1.7875  1.1480
14951TIP3    H266269   0.306   1.941  15.950 -0.4306  0.8655 -1.2713
14952TIP3   OH266270   4.820   5.120   4.281 -0.4587 -0.0104 -0.1431
14952TIP3    H166271   4.728   5.113   4.307 -0.5408 -0.6377 -0.5848
14952TIP3    H266272   4.817   5.158   4.193 -0.1752  2.3023  0.7646
14953TIP3   OH266273   1.423   5.145   0.585  0.2497 -0.5582 -0.0678
14953TIP3    H166274   1.327   5.142   0.585  0.1931 -2.2383 -2.6213
14953TIP3    H266275   1.449   5.054   0.599  1.6515  0.2400  3.4889
14954TIP3   OH266276   5.408   0.589   3.766  0.6575  0.0011 -0.0592
14954TIP3    H166277   5.418   0.531   3.690 -0.0801  0.4235 -0.4949
14954TIP3    H266278   5.491   0.637   3.769  1.4669 -1.3782  0.5942
14955TIP3   OH266279   6.314   6.651  13.604 -0.0454 -0.2376 -0.2528
14955TIP3    H166280   6.256   6.688  13.538  0.9482 -0.4117 -1.2435
14955TIP3    H266281   6.389   6.617  13.555 -0.8065 -3.4695  0.5992
14956TIP3   OH266282   6.635   4.322  16.411 -0.1956  0.0682  0.3594
14956TIP3    H166283   6.553   4.319  16.462 -0.4733 -1.8933 -0.1212
14956TIP3    H266284   6.682   4.243  16.438 -0.2494 -0.9194 -2.2066
14957TIP3   OH266285   5.355   4.552   1.785 -0.1446  0.2771  0.3141
14957TIP3    H166286   5.370   4.535   1.692 -0.3787 -0.5108  0.4104
14957TIP3    H266287   5.424   4.504   1.830  2.2089  3.4964  0.4664
14958TIP3   OH266288   5.984   1.984  11.369 -0.1697  0.6698 -0.4963
14958TIP3    H166289   5.968   2.071  11.332  2.3396  1.1918 -0.5505
14958TIP3    H266290   6.029   1.936  11.300  0.2212 -0.0082  0.2178
14959TIP3   OH266291   0.704   2.385   3.177  0.2109 -0.3632  0.1530
14959TIP3    H166292   0.762   2.335   3.235 -0.8105  1.0007  2.4853
14959TIP3    H266293   0.712   2.476   3.206 -3.0059 -0.0984  0.5786
14960TIP3   OH266294   6.064   5.439   5.219 -0.0216  0.0313  0.4050
14960TIP3    H166295   6.122   5.507   5.253  0.2502 -0.9595  2.0244
14960TIP3    H266296   6.071   5.447   5.124  1.3901  1.0930  0.5679
14961TIP3   OH266297   4.013   3.934   4.674 -0.6083  0.2405  0.8700
14961TIP3    H166298   3.989   4.016   4.717  0.0632  0.7079  0.3791
14961TIP3    H266299   4.093   3.955   4.626 -0.9119 -0.4756  0.0359
14962TIP3   OH266300   3.921   5.902   1.714  0.0509 -0.0048 -0.4183
14962TIP3    H166301   3.893   5.987   1.678 -0.0518  0.5850  0.9953
14962TIP3    H266302   3.937   5.848   1.637  2.7499  2.1016 -1.5231
14963TIP3   OH266303   3.470   1.001  12.148 -0.5294 -0.5294 -0.2467
14963TIP3    H166304   3.475   1.024  12.055 -0.8806  0.6874  0.0236
14963TIP3    H266305   3.380   1.023  12.174  0.1268  1.0474  0.8416
14964TIP3   OH266306   6.642   0.849  13.530 -0.4382 -0.5244  0.2930
14964TIP3    H166307   6.674   0.825  13.443  0.3635 -1.6362  0.8680
14964TIP3    H266308   6.571   0.786  13.548 -1.2228  0.2781  0.0897
14965TIP3   OH266309   6.294   4.534  12.513 -0.3566 -0.1051 -0.1019
14965TIP3    H166310   6.206   4.523  12.549 -0.3471 -1.7452 -0.5081
14965TIP3    H266311   6.312   4.453  12.466  0.1224  1.4337 -2.7850
14966TIP3   OH266312   6.338   3.741   2.465  0.0404 -0.4007  0.0130
14966TIP3    H166313   6.258   3.689   2.472 -0.5521  0.3232 -1.0891
14966TIP3    H266314   6.376   3.739   2.553 -1.7107  0.0740  0.8162
14967TIP3   OH266315   5.938   6.221  16.592  0.3105 -0.6288  0.3757
14967TIP3    H166316   5.843   6.228  16.583  0.3774 -1.9231 -2.2572
14967TIP3    H266317   5.968   6.312  16.600 -1.0805 -0.1692  0.7052
14968TIP3   OH266318   6.575   5.963  11.807 -0.1641  0.4796  0.3388
14968TIP3    H166319   6.596   6.020  11.881  2.6191  0.9050 -0.6234
14968TIP3    H266320   6.661   5.942  11.769 -1.4452 -0.2037 -2.4011
14969TIP3   OH266321   4.811   3.664   2.249 -0.0251  0.0922 -0.4257
14969TIP3    H166322   4.737   3.724   2.236 -2.5270 -2.5320  0.5321
14969TIP3    H266323   4.818   3.617   2.166 -0.0250 -0.2645 -0.2237
14970TIP3   OH266324   2.563   5.389   5.298 -0.2721  0.6027  0.2775
14970TIP3    H166325   2.569   5.413   5.391  0.3266  0.8861  0.1690
14970TIP3    H266326   2.627   5.445   5.255  0.2561 -0.3179 -0.1581
14971TIP3   OH266327   1.025   0.739   0.542  0.1196  0.5651 -0.3386
14971TIP3    H166328   1.052   0.821   0.584  0.9315  0.3669 -0.4693
14971TIP3    H266329   1.107   0.695   0.519 -0.3106  0.5638 -1.9501
14972TIP3   OH266330   3.452   0.359  15.277 -0.0886 -0.4989 -0.2679
14972TIP3    H166331   3.432   0.300  15.205 -1.3379 -0.4089 -0.0254
14972TIP3    H266332   3.366   0.387  15.309  0.4136  2.4201 -1.1786
14973TIP3   OH266333   5.085   2.497   5.355 -0.8793 -0.2747  0.3453
14973TIP3    H166334   4.991   2.494   5.374 -1.4076 -1.0934 -2.1124
14973TIP3    H266335   5.116   2.409   5.375 -0.9487 -0.4454 -0.2974
14974TIP3   OH266336   0.908   2.464   1.595  0.2595 -0.2427  0.2416
14974TIP3    H166337   0.867   2.385   1.559 -0.6593 -1.2468  3.1641
14974TIP3    H266338   0.834   2.517   1.626  0.8868 -1.1931  3.8726
14975TIP3   OH266339   0.259   5.531   1.100  0.5322 -0.2074  0.6039
14975TIP3    H166340   0.215   5.563   1.021  0.8471  0.9393  0.8781
14975TIP3    H266341   0.188   5.516   1.163  0.3093 -0.8474  0.2148
14976TIP3   OH266342   0.163   0.815  11.619 -0.3167  0.0436  0.4437
14976TIP3    H166343   0.224   0.874  11.663  0.3834  0.7161 -1.3751
14976TIP3    H266344   0.121   0.869  11.552  0.4702 -1.5308 -1.3990
14977TIP3   OH266345   0.239   5.093  17.132 -0.1110 -0.2894  0.2508
14977TIP3    H166346   0.190   5.173  17.117 -1.8202 -1.4035 -0.4898
14977TIP3    H266347   0.183   5.042  17.191  0.1044 -1.6216 -0.6436
14978TIP3   OH266348   3.070   2.414  15.323 -0.2543  0.5460 -0.8703
14978TIP3    H166349   3.143   2.353  15.318  0.2568  1.2227 -2.1101
14978TIP3    H266350   3.109   2.500  15.304 -0.9988  1.2381  0.5796
14979TIP3   OH266351   3.595   2.378   4.709  0.0456  0.6430  0.2616
14979TIP3    H166352   3.512   2.336   4.733  0.4006  0.8716  1.9490
14979TIP3    H266353   3.572   2.469   4.693 -0.1015  0.5987  0.2141
14980TIP3   OH266354   5.853   3.815  14.818  0.3360  0.5985  0.3795
14980TIP3    H166355   5.770   3.839  14.779 -0.7257  0.1579  2.2543
14980TIP3    H266356   5.837   3.814  14.913  2.9491  2.3394  0.9819
14981TIP3   OH266357   3.966   1.832   3.508 -0.2840 -0.1423 -0.1000
14981TIP3    H166358   4.031   1.865   3.445  0.7437  0.3094  1.1446
14981TIP3    H266359   3.943   1.909   3.560 -1.3838 -0.4390 -0.1267
14982TIP3   OH266360   2.877   2.226  15.599  0.2003 -0.1555 -0.2789
14982TIP3    H166361   2.797   2.203  15.645 -0.6675  2.9365 -0.0657
14982TIP3    H266362   2.942   2.241  15.668  0.4684 -0.8193 -0.3736
14983TIP3   OH266363   2.982   1.840   3.150  0.2255  0.2554  0.3496
14983TIP3    H166364   3.055   1.879   3.199  1.4779 -0.8366 -0.5694
14983TIP3    H266365   3.021   1.765   3.105 -1.3355  0.0238 -0.6865
14984TIP3   OH266366   2.050   6.736  14.896  0.0528  0.2452 -0.1022
14984TIP3    H166367   2.006   6.683  14.830  0.6287 -0.9758  0.4705
14984TIP3    H266368   1.980   6.768  14.953 -0.5762  2.1413 -1.8087
14985TIP3   OH266369   4.545   5.909  11.232  0.0059  0.4232  0.3129
14985TIP3    H166370   4.588   5.833  11.272  0.7087 -0.4304 -1.9319
14985TIP3    H266371   4.599   5.931  11.157 -0.6727  2.6514  0.4149
14986TIP3   OH266372   5.280   2.622   4.709 -0.0325 -0.3617  0.3463
14986TIP3    H166373   5.207   2.646   4.766 -0.0308 -1.3220  0.7733
14986TIP3    H266374   5.356   2.667   4.747 -0.8534  3.5309 -2.0515
14987TIP3   OH266375   1.507   5.572  13.156  0.3036  0.2732 -0.0112
14987TIP3    H166376   1.581   5.511  13.159 -1.8943 -2.5945  0.7147
14987TIP3    H266377   1.441   5.533  13.213 -1.7227  2.7866 -0.4343
14988TIP3   OH266378   5.367   6.134  16.030  0.6559 -0.0573 -0.3794
14988TIP3    H166379   5.282   6.091  16.028  0.9347 -0.7822  1.2872
14988TIP3    H266380   5.422   6.075  16.082  1.6086  1.3666  0.2840
14989TIP3   OH266381   2.136   6.130   3.753 -0.4653 -0.4045  0.1371
14989TIP3    H166382   2.116   6.201   3.815  1.3177  1.2915 -1.1104
14989TIP3    H266383   2.190   6.070   3.804 -0.2117  0.2258  0.6378
14990TIP3   OH266384   1.483   6.605   2.965  0.3673  0.0889  0.0493
14990TIP3    H166385   1.516   6.614   2.875 -2.3617  2.0437 -0.9034
14990TIP3    H266386   1.393   6.637   2.960 -1.0362 -2.8885  2.8427
14991TIP3   OH266387   3.128   1.698   0.760 -0.6406  0.1546  0.3137
14991TIP3    H166388   3.067   1.626   0.742 -2.2918  1.2729  1.1173
14991TIP3    H266389   3.135   1.745   0.676 -1.2476  0.2481  0.3055
14992TIP3   OH266390   2.423   3.445   1.280 -0.8115 -0.8090  0.1447
14992TIP3    H166391   2.395   3.523   1.231 -1.0971 -0.3562  1.0022
14992TIP3    H266392   2.510   3.425   1.247 -1.5593 -1.4151 -1.6114
14993TIP3   OH266393   6.617   4.471   4.815  0.2087  0.1355  0.1312
14993TIP3    H166394   6.690   4.528   4.792 -0.7157  0.7910 -1.2496
14993TIP3    H266395   6.542   4.530   4.827 -0.7527 -0.7411 -1.2607
14994TIP3   OH266396   4.149   4.234  11.322  0.1467 -0.0922  0.2309
14994TIP3    H166397   4.139   4.258  11.230  0.5401  0.7424  0.4000
14994TIP3    H266398   4.112   4.308  11.371 -0.6990 -0.8326  0.7447
14995TIP3   OH266399   4.820   1.161   0.896  0.2572  0.3265  0.1983
14995TIP3    H166400   4.857   1.245   0.871  1.9690 -1.1012 -2.5277
14995TIP3    H266401   4.866   1.137   0.977  0.7786  1.3527  0.2120
14996TIP3   OH266402   2.910   2.620   6.055  0.4433  0.1080 -0.5551
14996TIP3    H166403   2.847   2.588   5.990 -2.4051  0.6250  1.7339
14996TIP3    H266404   2.930   2.709   6.026 -0.0598  0.0261 -1.1883
14997TIP3   OH266405   4.408   0.579  13.911  0.5270  0.5746  0.3096
14997TIP3    H166406   4.325   0.569  13.865  0.6647  0.1146  0.1587
14997TIP3    H266407   4.402   0.665  13.954 -0.2954  0.2521  0.8544
14998TIP3   OH266408   3.365   1.541  12.330 -0.3693 -0.0106 -0.0605
14998TIP3    H166409   3.422   1.597  12.382 -1.7206  1.4076 -0.0374
14998TIP3    H266410   3.300   1.601  12.292 -0.0410 -1.1102 -2.5767
14999TIP3   OH266411   0.852   3.833   4.349 -0.2766 -0.2123  0.0342
14999TIP3    H166412   0.892   3.910   4.388  0.0000 -1.2819  1.9789
14999TIP3    H266413   0.924   3.770   4.341 -0.6271 -0.5047 -0.9107
15000TIP3   OH266414   5.040   6.357   6.549 -0.2188  0.0225 -0.2133
15000TIP3    H166415   5.045   6.452   6.549  0.7563 -0.0164 -0.0416
15000TIP3    H266416   4.994   6.336   6.468  1.7865  0.5744 -1.5787
15001TIP3   OH266417   4.417   2.680   2.557 -0.5113  0.3240  0.2630
15001TIP3    H166418   4.370   2.749   2.602 -0.0347  0.9430 -0.1728
15001TIP3    H266419   4.350   2.615   2.535 -0.7662  0.0294  1.7784
15002TIP3   OH266420   2.879   6.068   5.838 -0.9252 -0.5196  0.5819
15002TIP3    H166421   2.892   6.160   5.861  0.8318 -0.8386  1.0586
15002TIP3    H266422   2.850   6.070   5.747  1.4863  0.4878 -0.2618
15003TIP3   OH266423   2.755   2.816   0.536 -0.4208  0.3924  0.0226
15003TIP3    H166424   2.809   2.886   0.501 -0.6779  0.3898 -0.3888
15003TIP3    H266425   2.706   2.857   0.608 -1.7943  1.0777 -1.2637
15004TIP3   OH266426   2.821   4.651  15.880 -0.0826  0.0918  0.4822
15004TIP3    H166427   2.732   4.683  15.861 -0.3552 -1.2798 -0.6996
15004TIP3    H266428   2.829   4.570  15.829  2.1586  0.6216 -0.0990
15005TIP3   OH266429   3.849   4.402  15.470  0.7026 -0.3019 -0.3913
15005TIP3    H166430   3.851   4.494  15.442 -0.4384  0.5064  1.8899
15005TIP3    H266431   3.925   4.393  15.527 -0.4876  0.0022  1.3419
15006TIP3   OH266432   2.057   2.427   1.296  0.0771  0.0860  0.1830
15006TIP3    H166433   1.969   2.460   1.282 -0.4233 -1.0296  0.5517
15006TIP3    H266434   2.099   2.431   1.210 -0.4118  0.4002 -0.0393
15007TIP3   OH266435   6.677   5.526   5.377 -0.0100  0.0495  0.3965
15007TIP3    H166436   6.740   5.524   5.448 -0.8770 -1.1010  1.1732
15007TIP3    H266437   6.596   5.557   5.417 -0.1073  0.9891 -0.4684
15008TIP3   OH266438   0.306   0.071  16.726 -0.4346 -0.1505  0.5626
15008TIP3    H166439   0.283   0.142  16.665 -2.3899  0.6531  2.1385
15008TIP3    H266440   0.394   0.092  16.755 -0.1648  0.4338 -0.5992
15009TIP3   OH266441   1.571   4.081   3.345  0.3242  0.3833  0.1830
15009TIP3    H166442   1.505   4.099   3.279  0.1681 -1.1183 -0.1082
15009TIP3    H266443   1.637   4.029   3.299  0.0615 -0.9629  1.2430
15010TIP3   OH266444   0.795   4.316  14.869  0.5682  0.5224 -0.0236
15010TIP3    H166445   0.704   4.329  14.895  0.2389  0.6185 -1.1753
15010TIP3    H266446   0.841   4.395  14.898 -0.4534  2.1946 -2.6485
15011TIP3   OH266447   0.312   1.831   5.803 -0.0363  1.2451 -0.2618
15011TIP3    H166448   0.275   1.810   5.718 -2.3713  0.3088  0.8816
15011TIP3    H266449   0.400   1.796   5.801 -0.0604  1.2126 -2.2494
15012TIP3   OH266450   1.098   1.023   0.734  0.1072 -0.1098 -0.1249
15012TIP3    H166451   1.082   1.115   0.753 -0.2430  0.2363 -1.8762
15012TIP3    H266452   1.150   1.024   0.653  1.8136 -1.4232  0.8857
15013TIP3   OH266453   6.688   3.180  14.538  0.1202 -0.1754 -0.5938
15013TIP3    H166454   6.659   3.240  14.607  0.9722  0.3002 -0.6418
15013TIP3    H266455   6.608   3.160  14.488 -0.3601  0.0671  0.0738
15014TIP3   OH266456   0.407   2.770   6.150  0.7718 -0.3955  0.7582
15014TIP3    H166457   0.382   2.826   6.223  0.0476 -1.7301  1.5818
15014TIP3    H266458   0.501   2.757   6.160  0.6346 -0.7855  1.6344
15015TIP3   OH266459   5.480   0.371   4.523  0.2833  0.3285  0.0156
15015TIP3    H166460   5.531   0.309   4.471 -0.8460  1.5419 -2.7632
15015TIP3    H266461   5.530   0.453   4.517  0.5746  0.3149  1.6900
15016TIP3   OH266462   3.722   3.054   0.379  0.1343 -0.1332  1.0434
15016TIP3    H166463   3.713   3.020   0.468 -1.1782 -1.9091  0.2988
15016TIP3    H266464   3.740   2.976   0.325  0.3475  0.8217 -0.3236
15017TIP3   OH266465   0.563   5.156  13.576 -0.5322 -0.0614 -1.0540
15017TIP3    H166466   0.643   5.206  13.560  0.9351 -2.0437 -0.2914
15017TIP3    H266467   0.581   5.070  13.539 -1.6957 -1.0186  0.4879
15018TIP3   OH266468   3.591   3.307  14.584 -0.1203  0.1924  0.5717
15018TIP3    H166469   3.522   3.242  14.568 -0.8475  1.0263  0.2635
15018TIP3    H266470   3.621   3.333  14.497  0.2728  0.1619  0.6972
15019TIP3   OH266471   0.070   5.220   3.167 -0.4759 -0.6016  0.3296
15019TIP3    H166472   0.047   5.141   3.118 -1.4457 -0.5261  0.6441
15019TIP3    H266473   0.150   5.252   3.125 -0.7329 -1.0951 -0.5567
15020TIP3   OH266474   1.511   3.807  16.959 -0.5145 -0.1008  0.4672
15020TIP3    H166475   1.593   3.823  16.911 -0.5929 -0.0433  0.3507
15020TIP3    H266476   1.463   3.890  16.953 -0.3623  0.0249  0.9662
15021TIP3   OH266477   6.519   0.138  13.188 -0.1206  1.2319  0.4394
15021TIP3    H166478   6.522   0.074  13.259  1.2998  0.5214 -0.2293
15021TIP3    H266479   6.440   0.114  13.139  0.1033  0.3189  0.5038
15022TIP3   OH266480   4.759   5.283   0.086 -0.1249  0.2645  0.5104
15022TIP3    H166481   4.715   5.201   0.107 -0.0054 -0.0725 -0.5229
15022TIP3    H266482   4.827   5.292   0.154  1.7283 -1.9259 -0.9066
15023TIP3   OH266483   4.169   6.607  11.930  0.2492  0.2423  0.1823
15023TIP3    H166484   4.255   6.573  11.904 -0.4078 -1.6081  0.2613
15023TIP3    H266485   4.143   6.552  12.003 -1.6180 -0.1940 -0.7502
15024TIP3   OH266486   3.745   6.227   0.237 -0.3311 -0.2477 -0.0752
15024TIP3    H166487   3.683   6.271   0.295 -1.1639 -1.6072  0.0942
15024TIP3    H266488   3.719   6.255   0.149  0.6386  1.4414  0.1291
15025TIP3   OH266489   1.716   4.176   4.350 -0.0476 -0.4025  0.4545
15025TIP3    H166490   1.777   4.234   4.305 -0.2321  1.0984  1.9964
15025TIP3    H266491   1.772   4.112   4.394  0.2289 -0.7704 -0.4204
15026TIP3   OH266492   2.047   3.137  10.972  0.2550  0.0996  0.0864
15026TIP3    H166493   2.062   3.206  11.036  1.8119 -0.0157 -0.1145
15026TIP3    H266494   2.074   3.175  10.888 -0.8563 -0.0635 -0.3561
15027TIP3   OH266495   0.889   0.177   6.795  0.0817  0.0892 -0.1127
15027TIP3    H166496   0.812   0.129   6.764  1.7220 -1.6331 -1.7157
15027TIP3    H266497   0.858   0.267   6.805 -2.3444 -0.6976  0.1107
15028TIP3   OH266498   1.967   0.382   4.141 -0.0731  0.0546  0.4727
15028TIP3    H166499   1.987   0.334   4.221 -2.7239  0.3030  1.3706
15028TIP3    H266500   1.993   0.472   4.159 -5.0415  1.2867  3.1814
15029TIP3   OH266501   4.403   3.132   2.837 -0.3216  0.3302 -0.5548
15029TIP3    H166502   4.318   3.172   2.859 -1.6870 -0.9591 -3.0340
15029TIP3    H266503   4.415   3.064   2.904 -2.3067 -0.7976 -1.2535
15030TIP3   OH266504   6.300   5.064   2.843  0.0127  0.2094 -0.2241
15030TIP3    H166505   6.274   5.149   2.808 -0.3376 -0.4724 -1.6944
15030TIP3    H266506   6.228   5.038   2.901 -0.5866  0.2510 -0.9408
15031TIP3   OH266507   0.099   1.179   4.362  0.4333 -0.2816  0.0088
15031TIP3    H166508   0.080   1.130   4.282 -0.3249  0.3408 -0.2042
15031TIP3    H266509   0.132   1.263   4.330 -0.8788  0.3685  0.3295
15032TIP3   OH266510   2.153   1.572  14.842 -0.3090  0.1541 -0.1467
15032TIP3    H166511   2.147   1.666  14.857  0.8265  0.3621 -0.8581
15032TIP3    H266512   2.168   1.535  14.929 -0.7558  0.6191  0.1359
15033TIP3   OH266513   0.916   6.714  14.105  0.5962 -0.0880 -0.0356
15033TIP3    H166514   0.860   6.636  14.104  1.2914 -0.7059  2.2629
15033TIP3    H266515   0.886   6.766  14.030 -2.5217 -0.7497  0.6025
15034TIP3   OH266516   0.644   5.198   3.893  0.3353 -0.4951 -0.4215
15034TIP3    H166517   0.641   5.131   3.960 -3.1230  1.6838  1.9534
15034TIP3    H266518   0.568   5.180   3.837  0.2318  0.5489 -0.6464
15035TIP3   OH266519   1.193   6.333   3.649 -0.1965  0.0642 -0.3574
15035TIP3    H166520   1.193   6.367   3.560  1.7337 -0.2374 -0.5193
15035TIP3    H266521   1.180   6.410   3.704 -0.3273  0.4050 -0.8609
15036TIP3   OH266522   2.751   0.576   5.534 -0.3550 -0.2978  0.4659
15036TIP3    H166523   2.840   0.550   5.559 -0.4527 -2.8463 -1.4694
15036TIP3    H266524   2.763   0.659   5.487  1.0369 -0.6523  0.1296
15037TIP3   OH266525   5.523   1.988  13.859 -0.0758 -0.1308  0.4666
15037TIP3    H166526   5.580   2.041  13.914 -0.3917  0.6015  0.0930
15037TIP3    H266527   5.582   1.924  13.818  0.4940  0.6863 -0.0006
15038TIP3   OH266528   4.657   4.332  15.692 -0.0757 -0.9716 -0.1680
15038TIP3    H166529   4.745   4.306  15.665 -0.0738 -1.5662  0.3893
15038TIP3    H266530   4.669   4.412  15.742 -0.2721  1.5293 -3.7251
15039TIP3   OH266531   1.188   1.250  13.814 -0.1505  0.4991  0.2150
15039TIP3    H166532   1.228   1.268  13.899 -0.7501 -0.1262  0.6416
15039TIP3    H266533   1.136   1.328  13.795  1.7556  1.6219 -0.6700
15040TIP3   OH266534   6.454   1.956  11.855 -0.1212  0.8215 -0.0822
15040TIP3    H166535   6.487   1.924  11.938 -0.6943  0.7089  0.1069
15040TIP3    H266536   6.533   1.978  11.804  0.2320  2.4094  1.0737
15041TIP3   OH266537   3.893   6.744  15.003 -0.4333  0.6298  0.4391
15041TIP3    H166538   3.948   6.669  15.026  0.3818  0.8164 -0.8091
15041TIP3    H266539   3.908   6.757  14.910 -0.4288  2.4639  0.6589
15042TIP3   OH266540   3.786   6.128   5.627 -0.3906  0.0603  0.0529
15042TIP3    H166541   3.752   6.144   5.539  0.8436  1.5863 -0.1877
15042TIP3    H266542   3.709   6.131   5.683 -1.2625 -1.3670 -0.9820
15043TIP3   OH266543   6.338   5.798  15.445 -0.4365 -0.1189 -0.1134
15043TIP3    H166544   6.297   5.820  15.361 -0.8477 -0.1940  0.0614
15043TIP3    H266545   6.408   5.862  15.455 -0.6797  0.1836 -0.2998
15044TIP3   OH266546   6.287   3.367   5.385  0.5203  0.0659  0.3817
15044TIP3    H166547   6.209   3.331   5.429  0.5564  0.1825  0.5426
15044TIP3    H266548   6.307   3.303   5.316 -0.4578  0.6553 -0.4745
15045TIP3   OH266549   0.571   5.540  12.750 -0.0143  0.1903  0.1536
15045TIP3    H166550   0.566   5.604  12.820 -0.1488 -0.5648  0.8576
15045TIP3    H266551   0.520   5.577  12.679 -2.2809 -0.2377  1.4471
15046TIP3   OH266552   0.467   0.390   6.728 -0.3407  0.3070 -0.1646
15046TIP3    H166553   0.498   0.474   6.695  0.9303 -0.8269 -2.0007
15046TIP3    H266554   0.383   0.376   6.685  0.4375 -0.2934 -1.5613
15047TIP3   OH266555   6.098   4.451  12.689  0.2474 -0.4195  0.0345
15047TIP3    H166556   6.010   4.418  12.707 -0.3017  0.3355 -1.1829
15047TIP3    H266557   6.153   4.408  12.754 -0.9466 -1.2568  0.5240
15048TIP3   OH266558   1.632   1.668  15.622 -0.2333  0.6042 -0.0943
15048TIP3    H166559   1.573   1.611  15.572 -0.6799 -1.7554  2.7709
15048TIP3    H266560   1.712   1.672  15.570  0.0337 -3.2438 -0.3042
15049TIP3   OH266561   5.937   0.323   4.351  0.0218  0.2229  0.2013
15049TIP3    H166562   5.887   0.251   4.314  0.1706  0.0265  0.3824
15049TIP3    H266563   5.893   0.344   4.433  0.3816 -0.1190  0.4857
15050TIP3   OH266564   2.173   1.018   3.085 -0.1029 -0.1621 -0.1383
15050TIP3    H166565   2.267   0.999   3.081  0.0985  0.5545  0.9306
15050TIP3    H266566   2.160   1.088   3.020  0.0439 -0.4845 -0.5148
15051TIP3   OH266567   5.831   1.583  16.555  0.7609  0.2680  0.2268
15051TIP3    H166568   5.924   1.571  16.539  1.0210 -1.3882  2.4746
15051TIP3    H266569   5.827   1.639  16.633 -0.0880 -0.4856  0.7382
15052TIP3   OH266570   0.285   0.629  13.235 -0.5234 -0.1525 -0.0490
15052TIP3    H166571   0.311   0.656  13.147  0.9093 -0.1043  0.3724
15052TIP3    H266572   0.357   0.657  13.291 -1.2379 -0.5373  1.0965
15053TIP3   OH266573   6.722   0.674   1.144 -0.6509  0.3531  0.3857
15053TIP3    H166574   6.730   0.623   1.063  0.1828  1.3015 -0.1519
15053TIP3    H266575   6.790   0.639   1.201 -0.6883  0.2436  0.3632
15054TIP3   OH266576   4.734   0.641  15.121  0.2020 -0.2268  0.6736
15054TIP3    H166577   4.664   0.611  15.181 -0.7683  1.5649  0.5103
15054TIP3    H266578   4.775   0.714  15.167  1.6587 -0.9092  0.5192
15055TIP3   OH266579   0.827   0.807  13.689 -0.0775  0.3613  0.5717
15055TIP3    H166580   0.738   0.831  13.715 -0.6195 -2.0407  1.1589
15055TIP3    H266581   0.864   0.888  13.655 -2.0423  1.7432  1.5055
15056TIP3   OH266582   2.223   3.858  15.736 -0.3191 -0.2693 -0.8491
15056TIP3    H166583   2.167   3.820  15.804  0.2194 -1.7027 -1.1879
15056TIP3    H266584   2.233   3.950  15.762 -0.4598 -0.6918  0.7875
15057TIP3   OH266585   5.430   5.958  11.596 -0.1086  0.3668  0.0078
15057TIP3    H166586   5.450   5.865  11.605 -1.2975  0.2933  2.4516
15057TIP3    H266587   5.509   6.003  11.625  1.0338  0.2273 -2.5774
15058TIP3   OH266588   4.655   0.390  10.619  0.3701 -0.1485  0.2912
15058TIP3    H166589   4.650   0.373  10.713  0.0925 -1.7339  0.0198
15058TIP3    H266590   4.659   0.486  10.612  0.0463  0.0125  1.8870
15059TIP3   OH266591   2.929   1.226   2.520  0.7183  0.3883  0.2004
15059TIP3    H166592   2.875   1.277   2.582  0.9168 -1.0148  1.5913
15059TIP3    H266593   2.865   1.179   2.466  0.5478  1.1308 -0.2596
15060TIP3   OH266594   6.085   2.286  11.060  0.0802 -0.0849 -0.0306
15060TIP3    H166595   6.140   2.344  11.008  0.2935  1.6350  1.9701
15060TIP3    H266596   6.139   2.209  11.076 -0.0542 -0.7276 -2.4086
15061TIP3   OH266597   2.615   2.288  11.364  0.3169 -0.4406  0.1095
15061TIP3    H166598   2.675   2.303  11.291 -0.5478 -0.7078 -0.6779
15061TIP3    H266599   2.532   2.325  11.335  0.1767  0.2375  1.3283
15062TIP3   OH266600   5.387   5.622   4.586 -0.4344 -0.5266  0.3877
15062TIP3    H166601   5.325   5.679   4.540 -0.9585 -0.8640  0.6768
15062TIP3    H266602   5.363   5.629   4.678 -0.6904 -1.4442  0.3966
15063TIP3   OH266603   5.755   4.304  12.062 -0.3508 -0.1862  0.0378
15063TIP3    H166604   5.746   4.375  11.999  0.6252 -0.2016 -0.1323
15063TIP3    H266605   5.742   4.345  12.148 -3.9529 -0.5425 -0.1938
15064TIP3   OH266606   4.682   6.615   0.920  0.4933  0.1275  0.0413
15064TIP3    H166607   4.647   6.552   0.982 -1.4320 -0.3779 -1.4431
15064TIP3    H266608   4.777   6.600   0.920  0.1318 -2.6900 -0.1315
15065TIP3   OH266609   1.158   2.893  16.927  0.9550  0.6995  0.1553
15065TIP3    H166610   1.252   2.880  16.923  1.4385  3.2681  1.3521
15065TIP3    H266611   1.145   2.983  16.898 -1.0939  0.5532  0.4759
15066TIP3   OH266612   1.168   1.095   5.784 -0.1221 -0.4090 -0.5700
15066TIP3    H166613   1.113   1.021   5.758 -1.5002  0.7476 -1.1112
15066TIP3    H266614   1.226   1.060   5.851 -2.1088 -1.5110  0.6666
15067TIP3   OH266615   1.197   2.086  12.249 -0.2738 -0.3975 -0.4664
15067TIP3    H166616   1.167   2.010  12.200 -0.7009  0.3118 -1.3193
15067TIP3    H266617   1.224   2.149  12.183 -0.2739  0.3379  0.2156
15068TIP3   OH266618   2.430   2.787  13.150 -0.1830 -0.6938 -0.4420
15068TIP3    H166619   2.523   2.805  13.163 -0.6208 -0.3976  3.9315
15068TIP3    H266620   2.423   2.692  13.160 -0.4318 -0.6149  0.1434
15069TIP3   OH266621   4.244   2.149  11.399  0.1849  0.0275 -0.0703
15069TIP3    H166622   4.230   2.160  11.305  0.2506 -3.8158 -0.6717
15069TIP3    H266623   4.315   2.086  11.406  0.1447  0.1490  2.5896
15070TIP3   OH266624   3.074   1.494  12.826 -0.1183 -0.5919 -0.2983
15070TIP3    H166625   3.029   1.573  12.858 -0.8480 -0.3068 -1.8980
15070TIP3    H266626   3.077   1.435  12.901 -0.4171  0.5919  0.6733
15071TIP3   OH266627   1.834   3.748  16.877 -0.1551 -0.3517 -0.2233
15071TIP3    H166628   1.928   3.759  16.868 -0.2685  0.1657 -0.8271
15071TIP3    H266629   1.796   3.808  16.813 -0.8756 -1.3118 -0.7290
15072TIP3   OH266630   0.901   2.333   1.882 -0.5599 -0.5016  0.1332
15072TIP3    H166631   0.829   2.395   1.872 -0.6244 -0.5529  0.2756
15072TIP3    H266632   0.954   2.370   1.953 -1.0628 -1.0485  0.8097
15073TIP3   OH266633   3.669   2.913  14.913  0.0006  0.4652  0.5549
15073TIP3    H166634   3.649   2.872  14.997 -1.3217 -2.5131 -1.0614
15073TIP3    H266635   3.748   2.869  14.883  0.0529  0.9736 -0.0762
15074TIP3   OH266636   4.389   2.886  10.885  0.3679  0.2358  0.6690
15074TIP3    H166637   4.382   2.898  10.791  1.4271 -0.6653  0.4487
15074TIP3    H266638   4.319   2.825  10.907 -0.4226  1.0999  0.6261
15075TIP3   OH266639   3.282   1.244  11.309  0.1150  0.6884  0.0774
15075TIP3    H166640   3.376   1.225  11.313 -0.0033 -0.3189 -1.2508
15075TIP3    H266641   3.259   1.269  11.399  1.0537 -1.9964  1.1893
15076TIP3   OH266642   3.005   0.358   3.560 -0.0604 -0.1638  0.2094
15076TIP3    H166643   2.978   0.439   3.604 -2.3585 -1.1272  0.7292
15076TIP3    H266644   3.005   0.293   3.630 -1.7223 -1.3049 -0.7919
15077TIP3   OH266645   1.268   5.215  13.933  0.4222 -1.0348 -0.4498
15077TIP3    H166646   1.312   5.271  13.869 -0.9100  0.9834  0.3103
15077TIP3    H266647   1.219   5.152  13.880  0.6635 -0.4709 -1.3702
15078TIP3   OH266648   0.165   5.144   4.690 -0.1932 -0.5198  0.5518
15078TIP3    H166649   0.136   5.235   4.683  0.0355 -0.4040  1.0857
15078TIP3    H266650   0.105   5.105   4.753 -0.1277 -0.6728  0.5186
15079TIP3   OH266651   5.519   2.743   2.451  0.3258 -0.0680  0.3283
15079TIP3    H166652   5.578   2.801   2.402  0.4970 -2.1100 -2.0847
15079TIP3    H266653   5.577   2.687   2.501  0.3846 -0.8077 -0.5440
15080TIP3   OH266654   3.425   3.722   1.390  0.4387  0.0690 -0.1467
15080TIP3    H166655   3.416   3.651   1.454 -0.6434  0.2457 -0.0835
15080TIP3    H266656   3.357   3.704   1.325  0.4046  0.8404 -0.3348
15081TIP3   OH266657   5.826   0.222  12.902 -0.0819 -0.1554  0.0680
15081TIP3    H166658   5.767   0.262  12.965 -0.7769 -0.5926 -0.2942
15081TIP3    H266659   5.783   0.140  12.877  0.9440 -0.7633  0.2245
15082TIP3   OH266660   1.255   4.082   4.477  0.7188  0.6135  0.3764
15082TIP3    H166661   1.211   4.004   4.511  0.2740 -0.2037 -1.9062
15082TIP3    H266662   1.280   4.058   4.388  1.5257  2.7451 -0.0210
15083TIP3   OH266663   1.889   3.732  11.168 -0.1490  0.1353  0.0994
15083TIP3    H166664   1.849   3.709  11.084  0.6345 -0.0003 -0.2466
15083TIP3    H266665   1.910   3.825  11.160  1.0267 -0.1436 -0.3399
15084TIP3   OH266666   2.716   3.259  11.494  0.2437  0.2057  0.4981
15084TIP3    H166667   2.745   3.262  11.403 -0.6449  0.9639  0.2320
15084TIP3    H266668   2.621   3.267  11.489  0.2094  0.4989  1.5088
15085TIP3   OH266669   0.290   2.368   5.356  0.3781 -0.4035 -0.6585
15085TIP3    H166670   0.198   2.349   5.340 -0.3082  0.7889  1.4713
15085TIP3    H266671   0.302   2.352   5.450  1.9450  0.9247 -0.5750
15086TIP3   OH266672   4.931   1.727   3.646  0.3159  0.0295 -0.0334
15086TIP3    H166673   4.894   1.685   3.723  0.7703 -0.0288  0.1587
15086TIP3    H266674   5.026   1.718   3.658  0.4142 -2.2668 -1.8516
15087TIP3   OH266675   5.293   2.725  16.638 -0.0980  0.2122  0.0786
15087TIP3    H166676   5.273   2.696  16.727  0.2567  0.3268  0.1940
15087TIP3    H266677   5.212   2.710  16.589 -0.4401  0.5840  0.5304
15088TIP3   OH266678   0.627   2.848  13.115 -0.0314  0.0992 -0.0789
15088TIP3    H166679   0.667   2.921  13.069  1.2734 -1.3020 -1.2571
15088TIP3    H266680   0.687   2.829  13.187  0.0417 -0.3281 -0.2542
15089TIP3   OH266681   3.115   0.412   3.336 -0.0535 -0.2691  0.0592
15089TIP3    H166682   3.067   0.412   3.419  0.1506  0.4317  0.1831
15089TIP3    H266683   3.113   0.503   3.307 -0.3774 -0.5577 -0.8557
15090TIP3   OH266684   3.315   0.452   6.566 -0.5118  0.8371 -0.6024
15090TIP3    H166685   3.336   0.369   6.609  0.7007  1.0941 -0.6520
15090TIP3    H266686   3.223   0.444   6.541 -1.6212  1.0408  2.8754
15091TIP3   OH266687   4.346   1.704   0.792  0.0835  0.3363 -0.1148
15091TIP3    H166688   4.356   1.678   0.884 -1.2208  1.9454  0.5320
15091TIP3    H266689   4.273   1.651   0.760 -0.7549  1.1713  0.3805
15092TIP3   OH266690   2.943   1.317   1.747 -0.2452 -0.3505  0.4474
15092TIP3    H166691   2.941   1.255   1.675 -2.7411 -1.7147  1.5424
15092TIP3    H266692   3.029   1.304   1.788  0.3913 -1.0003 -1.0367
15093TIP3   OH266693   5.075   2.682  12.672  0.1100 -0.3954 -0.2490
15093TIP3    H166694   5.086   2.777  12.682 -2.2646 -0.0784 -0.1941
15093TIP3    H266695   5.097   2.647  12.758 -1.6677  0.4187  0.5868
15094TIP3   OH266696   2.957   1.171   5.909 -0.0255  0.2126  0.2192
15094TIP3    H166697   2.901   1.095   5.890 -1.5215  1.9921 -3.2555
15094TIP3    H266698   3.041   1.150   5.868  0.0988 -0.1541  0.6420
15095TIP3   OH266699   2.825   2.371  14.992  0.2920  0.3166  0.2861
15095TIP3    H166700   2.796   2.292  15.037  1.9061 -1.3186 -1.3893
15095TIP3    H266701   2.747   2.402  14.945  0.3699 -2.3443 -1.8530
15096TIP3   OH266702   0.977   4.585   1.101 -0.5737  0.2788  0.4682
15096TIP3    H166703   1.062   4.596   1.058 -1.5065 -0.4406 -1.6767
15096TIP3    H266704   0.999   4.569   1.193  1.5154  1.8825  0.3374
15097TIP3   OH266705   3.264   3.439   3.104  0.0521 -0.1329 -0.0036
15097TIP3    H166706   3.279   3.377   3.176  1.8743  0.2604  0.0024
15097TIP3    H266707   3.317   3.515   3.126  1.6583 -0.4758 -2.3077
15098TIP3   OH266708   4.114   3.454  16.032  0.2456 -0.1528 -0.5113
15098TIP3    H166709   4.146   3.435  16.121 -0.9086  1.3075  0.2720
15098TIP3    H266710   4.192   3.475  15.982  0.9333 -1.1368  0.1119
15099TIP3   OH266711   5.231   1.111  13.238 -0.0592  0.4534 -0.3964
15099TIP3    H166712   5.289   1.047  13.196 -0.1718  0.9645 -1.3596
15099TIP3    H266713   5.143   1.085  13.210 -0.5126 -1.1525  2.1500
15100TIP3   OH266714   2.794   1.842  12.241 -0.9867 -0.0520  0.4556
15100TIP3    H166715   2.838   1.896  12.307 -0.1605  0.2987 -0.3505
15100TIP3    H266716   2.830   1.754  12.253  2.1258  0.6963 -1.8870
15101TIP3   OH266717   1.796   2.288  13.523 -0.1558  0.3329 -0.3097
15101TIP3    H166718   1.839   2.288  13.609  2.3386 -2.3885 -1.3727
15101TIP3    H266719   1.703   2.298  13.542  0.2826 -0.3708  2.7288
15102TIP3   OH266720   4.685   1.828   5.659  0.2464  0.4892 -0.0104
15102TIP3    H166721   4.767   1.819   5.708 -0.0166  0.1056  0.3716
15102TIP3    H266722   4.674   1.745   5.614  0.4467  0.8140 -0.6720
15103TIP3   OH266723   6.048   5.180  11.854 -0.4873 -0.2309 -0.4938
15103TIP3    H166724   5.968   5.232  11.869  0.6005  2.0273 -2.0049
15103TIP3    H266725   6.016   5.092  11.837 -2.5191  0.1362  0.9815
15104TIP3   OH266726   2.598   6.010  13.720  0.0251  0.2116  0.4424
15104TIP3    H166727   2.690   6.004  13.697  0.4765  0.3443  2.1266
15104TIP3    H266728   2.588   6.098  13.756 -1.1107  0.7569 -1.0469
15105TIP3   OH266729   5.882   2.341  13.624  0.3551  0.7540  0.1157
15105TIP3    H166730   5.953   2.315  13.565 -0.3910  0.4940 -0.6828
15105TIP3    H266731   5.883   2.275  13.693  0.8817  0.7545  0.1171
15106TIP3   OH266732   1.727   4.498  14.208  0.1518 -0.6132  0.6036
15106TIP3    H166733   1.794   4.501  14.276 -0.5431 -1.1609  1.3416
15106TIP3    H266734   1.697   4.589  14.200  0.6145 -0.4564  0.6381
15107TIP3   OH266735   3.572   4.701  16.960 -0.1682  0.2603 -0.2539
15107TIP3    H166736   3.540   4.681  16.871  2.0505  0.9363 -1.2713
15107TIP3    H266737   3.545   4.792  16.975  0.0088  0.3561 -0.5057
15108TIP3   OH266738   5.614   5.897  12.782  0.4323  0.2039 -0.3813
15108TIP3    H166739   5.705   5.881  12.807  0.6183 -0.0884 -1.1862
15108TIP3    H266740   5.574   5.809  12.781  0.6122  0.1120 -1.7153
15109TIP3   OH266741   6.159   4.803  12.326 -0.3690 -0.4939  0.1673
15109TIP3    H166742   6.175   4.792  12.232 -0.4770 -0.9972  0.2040
15109TIP3    H266743   6.121   4.891  12.333  0.4981 -0.0813 -0.1474
15110TIP3   OH266744   6.147   2.422  12.405 -0.0278  0.6364 -0.1472
15110TIP3    H166745   6.190   2.429  12.490 -0.8208  1.9096  0.1820
15110TIP3    H266746   6.078   2.356  12.417  0.5261  0.0560 -0.1141
15111TIP3   OH266747   5.070   6.282  11.744  0.4486 -0.1051 -0.0834
15111TIP3    H166748   4.981   6.305  11.769  0.6301  0.8035 -0.2184
15111TIP3    H266749   5.114   6.367  11.730  1.0838 -0.5384 -0.8682
15112TIP3   OH266750   6.256   5.025  11.334 -0.3086  0.4202  0.5780
15112TIP3    H166751   6.274   4.943  11.379  1.2997  1.0901  1.2425
15112TIP3    H266752   6.161   5.036  11.341 -0.7180 -1.8660 -0.4497
15113TIP3   OH266753   0.682   0.960  11.626 -0.1642 -0.1483 -0.4336
15113TIP3    H166754   0.763   1.011  11.619  0.8308 -1.4686  0.8634
15113TIP3    H266755   0.707   0.872  11.598 -1.4187 -0.3613 -0.9616
15114TIP3   OH266756   0.728   6.077   4.864  0.2892 -0.0426  0.5881
15114TIP3    H166757   0.721   6.172   4.861  1.7288  0.0673 -0.4762
15114TIP3    H266758   0.649   6.048   4.908 -0.4185  1.6166  0.4639
15115TIP3   OH266759   4.535   4.057  15.041 -0.3445  0.2362 -0.1648
15115TIP3    H166760   4.529   3.973  15.087 -0.0639  0.3850  0.1512
15115TIP3    H266761   4.445   4.083  15.025 -0.4371  0.0194  0.0102
15116TIP3   OH266762   1.135   6.580   5.548  0.0876 -0.4326 -0.2060
15116TIP3    H166763   1.134   6.634   5.470 -0.2495  0.2341  0.2570
15116TIP3    H266764   1.170   6.496   5.518 -0.2702 -0.2641 -1.1158
15117TIP3   OH266765   1.448   2.361  16.128  0.6302  0.6110  0.3036
15117TIP3    H166766   1.438   2.266  16.128  1.7481  0.4721 -0.4671
15117TIP3    H266767   1.359   2.395  16.138  0.0458 -0.5197 -0.8329
15118TIP3   OH266768   3.566   1.688   0.614 -0.3359  0.0823 -0.5452
15118TIP3    H166769   3.596   1.776   0.639 -0.3944  0.0316 -0.2980
15118TIP3    H266770   3.570   1.637   0.694  0.9059 -0.4940 -0.9472
15119TIP3   OH266771   3.712   3.556  12.256  0.4387 -0.5897 -0.1890
15119TIP3    H166772   3.638   3.596  12.210  1.0679  0.0271 -0.6771
15119TIP3    H266773   3.673   3.518  12.334  0.0941  3.0045  1.5785
15120TIP3   OH266774   3.941   2.298  14.082  0.0461 -0.0801 -0.3881
15120TIP3    H166775   3.977   2.210  14.089  0.3385 -0.0959 -1.7497
15120TIP3    H266776   3.996   2.341  14.015  0.4097  1.3828  0.7986
15121TIP3   OH266777   6.670   1.445   0.767  0.5813  0.3205 -0.7213
15121TIP3    H166778   6.660   1.443   0.672  2.0763 -0.3978 -0.8969
15121TIP3    H266779   6.678   1.353   0.792  0.8161  0.5338  0.0181
15122TIP3   OH266780   1.375   3.933   2.148 -0.2871  0.1651 -0.6204
15122TIP3    H166781   1.433   3.976   2.085  0.8963  1.4902  1.2841
15122TIP3    H266782   1.417   3.945   2.233 -1.0196 -2.9123  0.3223
15123TIP3   OH266783   0.137   1.596  16.877  0.2509  0.2648 -0.8250
15123TIP3    H166784   0.143   1.660  16.948 -0.2282 -1.3755  0.7904
15123TIP3    H266785   0.227   1.583  16.848  0.6687 -0.1412  0.5631
15124TIP3   OH266786   4.674   3.796   4.026  0.3321  0.3267 -0.3035
15124TIP3    H166787   4.593   3.834   3.993  0.1272 -0.0135 -0.1930
15124TIP3    H266788   4.743   3.851   3.989  0.0183  1.1271  0.2826
15125TIP3   OH266789   0.503   0.675  13.390  0.1062  0.0705 -0.1845
15125TIP3    H166790   0.585   0.626  13.398 -0.1526 -0.2681  0.4959
15125TIP3    H266791   0.526   0.764  13.417  0.1841 -0.0945  0.3004
15126TIP3   OH266792   0.136   3.963   5.100  0.5890 -0.3557 -0.6805
15126TIP3    H166793   0.187   3.883   5.094  1.0371 -0.9744  5.5121
15126TIP3    H266794   0.200   4.031   5.120 -0.2343  0.7888 -1.7596
15127TIP3   OH266795   2.603   1.342  10.831 -0.3794  0.1992 -0.2488
15127TIP3    H166796   2.687   1.376  10.863  0.3250 -0.9580 -0.7849
15127TIP3    H266797   2.558   1.419  10.796  1.0969  0.6458 -1.2939
15128TIP3   OH266798   6.544   2.308   0.115  0.0348  0.2424  0.0853
15128TIP3    H166799   6.624   2.352   0.089  0.1947  1.0470  1.7948
15128TIP3    H266800   6.573   2.237   0.173 -0.4036 -0.4128 -0.4803
15129TIP3   OH266801   2.184   5.638  12.553  0.1554  0.2971 -0.0689
15129TIP3    H166802   2.140   5.720  12.575  0.2233  0.2774  0.1370
15129TIP3    H266803   2.201   5.596  12.637 -2.5078 -1.3066 -0.2141
15130TIP3   OH266804   5.814   2.447  14.557 -0.0797 -0.3580 -0.4234
15130TIP3    H166805   5.745   2.451  14.492 -0.0088 -1.7125 -0.6106
15130TIP3    H266806   5.859   2.365  14.539  0.6768 -0.1877  0.6018
15131TIP3   OH266807   4.693   6.225  16.394  0.2424 -0.6621  0.1865
15131TIP3    H166808   4.665   6.179  16.314  0.1613  0.2292 -0.3022
15131TIP3    H266809   4.645   6.180  16.464 -1.6885  0.1609 -0.5320
15132TIP3   OH266810   0.992   5.591   2.062  0.0516  0.2607 -0.1302
15132TIP3    H166811   1.075   5.638   2.066 -0.4602  1.4984 -2.4003
15132TIP3    H266812   1.010   5.507   2.105  2.4025  0.5693 -0.3605
15133TIP3   OH266813   4.036   0.670   0.509 -0.0299 -0.5342  0.0380
15133TIP3    H166814   4.098   0.742   0.507 -0.9152  0.2318 -0.5731
15133TIP3    H266815   3.950   0.712   0.520 -0.9033 -1.2242 -3.1566
15134TIP3   OH266816   6.146   0.723   3.477  0.0047 -0.2643  0.1168
15134TIP3    H166817   6.194   0.790   3.429 -1.6862  0.1247 -1.1483
15134TIP3    H266818   6.096   0.676   3.410  1.1865 -2.8948  0.9458
15135TIP3   OH266819   1.945   4.090   1.672 -0.0817  0.1452  0.1238
15135TIP3    H166820   2.020   4.049   1.629 -0.3291  0.2097 -0.3655
15135TIP3    H266821   1.983   4.137   1.747  0.1474 -1.5085  1.1035
15136TIP3   OH266822   5.104   4.414   1.724  0.1665 -0.2789 -0.0537
15136TIP3    H166823   5.123   4.382   1.635  1.1139  2.2447 -0.8380
15136TIP3    H266824   5.185   4.457   1.752 -0.2893 -0.5809  1.8748
15137TIP3   OH266825   3.612   5.756  14.869  0.2657  0.0585 -0.1968
15137TIP3    H166826   3.614   5.665  14.839 -1.2163 -0.6177  1.5671
15137TIP3    H266827   3.681   5.799  14.819  3.1370 -2.6960  1.0381
15138TIP3   OH266828   4.506   4.117  11.311  0.2263 -0.3552 -0.3970
15138TIP3    H166829   4.498   4.188  11.376  0.3253 -0.8446  0.1631
15138TIP3    H266830   4.586   4.138  11.263 -0.8548  1.0564 -1.6699
15139TIP3   OH266831   3.763   2.407   1.625  0.2161 -0.0769  0.0575
15139TIP3    H166832   3.669   2.420   1.639 -0.1473 -1.5030 -0.8150
15139TIP3    H266833   3.791   2.484   1.575 -0.5218  0.2776  0.1754
15140TIP3   OH266834   4.725   1.589   6.642 -0.1731  0.0738 -0.2938
15140TIP3    H166835   4.687   1.539   6.714  0.9410 -0.5207 -0.1056
15140TIP3    H266836   4.653   1.644   6.611 -0.4947  0.8586  1.7050
15141TIP3   OH266837   3.652   1.242   0.602  0.4466 -0.3377 -0.2694
15141TIP3    H166838   3.716   1.271   0.537  1.0527 -0.8965  0.0649
15141TIP3    H266839   3.675   1.291   0.682 -0.4587  0.5431 -0.5327
15142TIP3   OH266840   1.485   0.430  15.111  0.0676 -0.0408  0.1774
15142TIP3    H166841   1.434   0.427  15.192 -0.9937  1.7550 -0.3647
15142TIP3    H266842   1.431   0.385  15.046  0.8678 -1.3786  0.3773
15143TIP3   OH266843   0.693   0.081   1.626  0.4103 -0.0201  0.1989
15143TIP3    H166844   0.763   0.061   1.563  0.1949  0.7507 -0.3032
15143TIP3    H266845   0.706   0.174   1.647 -0.9210  0.3494 -0.4955
15144TIP3   OH266846   1.987   1.870   2.797 -0.9841 -0.1547  0.5645
15144TIP3    H166847   1.969   1.961   2.822 -0.5112  0.4107 -0.9720
15144TIP3    H266848   2.074   1.852   2.832 -1.7319 -0.6102  2.2846
15145TIP3   OH266849   2.311   1.531  13.902  0.2321  0.2591  0.2299
15145TIP3    H166850   2.259   1.588  13.845  0.1518  0.0705  0.1137
15145TIP3    H266851   2.390   1.513  13.852 -0.5587 -1.2706 -0.5475
15146TIP3   OH266852   4.881   1.094   3.960 -0.5783 -0.3765  0.1553
15146TIP3    H166853   4.791   1.093   3.993  0.2285 -0.8658  2.5520
15146TIP3    H266854   4.905   1.001   3.956 -0.4288 -0.3058 -1.3838
15147TIP3   OH266855   3.136   6.289  13.878 -0.2272  0.2933 -0.3937
15147TIP3    H166856   3.231   6.294  13.867 -0.3455  1.2168 -1.1468
15147TIP3    H266857   3.104   6.373  13.845 -1.0405  1.5215  3.0370
15148TIP3   OH266858   5.673   5.006  11.362  0.0791  0.6687  0.3697
15148TIP3    H166859   5.623   5.006  11.443 -1.6246  2.6603 -0.5886
15148TIP3    H266860   5.626   4.946  11.304 -0.2507  1.2429  0.0283
15149TIP3   OH266861   2.423   3.645   5.817  0.2281  0.1121 -0.0701
15149TIP3    H166862   2.390   3.556   5.831  0.7104  0.0511  0.7316
15149TIP3    H266863   2.436   3.680   5.905 -0.5377  1.2058 -0.3611
15150TIP3   OH266864   3.952   1.520   2.136  0.0694  0.0548 -0.0033
15150TIP3    H166865   4.025   1.474   2.095 -1.0816 -0.6896 -1.3083
15150TIP3    H266866   3.952   1.489   2.227  1.6157  0.4126  0.1365
15151TIP3   OH266867   5.123   5.373  11.622  0.6622  0.2104  0.3036
15151TIP3    H166868   5.117   5.375  11.526 -3.0306 -2.1149  0.2592
15151TIP3    H266869   5.188   5.305  11.640  0.6261 -0.0799 -0.5976
15152TIP3   OH266870   1.209   0.440  16.003 -0.0100  0.4535 -0.3389
15152TIP3    H166871   1.185   0.526  16.038  0.9281  1.2480 -1.5681
15152TIP3    H266872   1.257   0.459  15.923 -1.7835 -1.2683 -1.9218
15153TIP3   OH266873   2.668   3.235  15.817 -0.5374 -0.1741 -0.1457
15153TIP3    H166874   2.592   3.262  15.868 -0.5469 -1.9955  0.8803
15153TIP3    H266875   2.735   3.299  15.838 -1.0439  0.0296  0.9038
15154TIP3   OH266876   6.311   2.248   3.148 -0.8287 -0.2135 -0.7395
15154TIP3    H166877   6.313   2.344   3.148 -1.0113 -0.2050  0.1141
15154TIP3    H266878   6.323   2.224   3.240  1.7282 -1.0612 -1.2138
15155TIP3   OH266879   1.815   5.077  12.784  0.6879 -0.1235  0.0159
15155TIP3    H166880   1.844   5.128  12.709 -1.9964 -0.2650 -1.2573
15155TIP3    H266881   1.745   5.021  12.749 -0.6486 -0.2273  2.5776
15156TIP3   OH266882   6.788   5.392  13.869  0.1098 -0.5542  0.2665
15156TIP3    H166883   6.750   5.323  13.815  0.2850  0.4305 -1.1792
15156TIP3    H266884   6.795   5.468  13.810 -1.4293  1.1840  2.1596
15157TIP3   OH266885   3.386   5.905   1.086  0.2121  0.2651 -0.4403
15157TIP3    H166886   3.435   5.856   1.020 -0.0629 -1.7400  0.7624
15157TIP3    H266887   3.426   5.880   1.169 -1.6439 -0.0167  0.4218
15158TIP3   OH266888   0.105   5.517  14.852 -0.5071 -0.3240  0.1471
15158TIP3    H166889   0.116   5.531  14.758 -0.9636  1.9682  0.3737
15158TIP3    H266890   0.138   5.598  14.892  0.0338 -1.4058  1.9961
15159TIP3   OH266891   0.141   2.776  16.724 -0.4585  0.1917  0.4671
15159TIP3    H166892   0.190   2.811  16.650 -0.5111  0.4795  0.5685
15159TIP3    H266893   0.094   2.851  16.760  0.6011  0.3390  1.6191
15160TIP3   OH266894   0.882   2.096   4.993  0.6067 -0.2688  0.3886
15160TIP3    H166895   0.942   2.122   4.922 -2.2738  3.9744 -0.9013
15160TIP3    H266896   0.802   2.069   4.948 -0.5136  0.2611  1.9817
15161TIP3   OH266897   1.447   0.417  13.918 -0.2582  0.0611  0.4491
15161TIP3    H166898   1.439   0.485  13.985 -3.4551 -0.8265  1.1223
15161TIP3    H266899   1.527   0.370  13.941  1.4163  2.7738  0.6431
15162TIP3   OH266900   5.882   0.195   5.602 -0.3193 -0.0825  0.5927
15162TIP3    H166901   5.967   0.237   5.606 -0.7031  1.2051 -2.3210
15162TIP3    H266902   5.896   0.116   5.549 -0.8480 -0.1206  0.5035
15163TIP3   OH266903   2.855   6.744   6.709  0.0322  0.1241  0.8423
15163TIP3    H166904   2.800   6.744   6.787 -2.9781  0.9628 -1.0739
15163TIP3    H266905   2.835   6.827   6.666  2.8452  0.4386 -0.0544
15164TIP3   OH266906   1.064   1.903   1.217 -0.9644  0.0541 -0.4133
15164TIP3    H166907   1.085   1.948   1.299 -0.1776  1.3590 -1.2942
15164TIP3    H266908   1.098   1.815   1.229 -0.6183  0.3078  0.5635
15165TIP3   OH266909   4.740   4.981  10.816 -0.0892 -0.1237 -0.1399
15165TIP3    H166910   4.781   5.034  10.749 -0.4967 -0.5709 -0.7528
15165TIP3    H266911   4.646   4.995  10.805 -0.1822 -0.6275 -0.0231
15166TIP3   OH266912   0.302   6.533  15.828 -0.0255  0.0624 -0.2402
15166TIP3    H166913   0.299   6.622  15.862  0.3014 -0.3745  1.0033
15166TIP3    H266914   0.233   6.530  15.762 -0.8227  0.9116  0.5288
15167TIP3   OH266915   1.180   2.825   5.960 -0.4106 -0.5178  0.2228
15167TIP3    H166916   1.258   2.795   5.914 -0.7385 -2.7289  0.9902
15167TIP3    H266917   1.210   2.849   6.047 -0.4055 -0.2575  0.1488
15168TIP3   OH266918   3.109   4.061   0.226 -0.4049 -0.1505 -0.2031
15168TIP3    H166919   3.192   4.109   0.229  0.1534 -1.0907 -0.4107
15168TIP3    H266920   3.134   3.969   0.219 -1.4537 -0.3378 -2.3682
15169TIP3   OH266921   1.376   2.639   2.488  0.2075  0.5524  0.5112
15169TIP3    H166922   1.451   2.629   2.429  0.5124  2.7672  0.4271
15169TIP3    H266923   1.414   2.638   2.576  0.4246  2.0378  0.4560
15170TIP3   OH266924   6.386   0.530   3.832 -0.5776 -0.6389 -0.3943
15170TIP3    H166925   6.378   0.506   3.739  1.0976  0.2675 -0.8039
15170TIP3    H266926   6.397   0.625   3.831  3.5121 -0.9196  0.3471
15171TIP3   OH266927   1.851   0.384   3.800  0.0069  0.3410  0.2593
15171TIP3    H166928   1.858   0.477   3.820  1.1030  0.0941  1.1232
15171TIP3    H266929   1.759   0.363   3.817 -0.0259  1.0490  1.0149
15172TIP3   OH266930   3.984   6.388   1.778 -0.2893 -0.0855 -0.8622
15172TIP3    H166931   4.033   6.390   1.861  0.1518  0.5918 -1.1330
15172TIP3    H266932   4.031   6.323   1.725  0.7697  1.0535 -1.3762
15173TIP3   OH266933   6.131   5.375   1.889 -0.6216  0.3591  0.2847
15173TIP3    H166934   6.072   5.370   1.965 -0.6759 -1.8667  0.1543
15173TIP3    H266935   6.219   5.371   1.927 -0.6532 -1.1934  0.2441
15174TIP3   OH266936   6.036   2.394   0.473  0.1324 -0.2429  0.1382
15174TIP3    H166937   5.961   2.452   0.464  0.8461  0.8464  0.9432
15174TIP3    H266938   6.044   2.380   0.568  2.3216  1.5917  0.3150
15175TIP3   OH266939   0.425   3.847   3.028 -0.3809 -0.6457 -0.1970
15175TIP3    H166940   0.388   3.789   3.094 -0.9489  0.6073  0.6237
15175TIP3    H266941   0.358   3.851   2.959 -0.4862 -0.6930 -0.0970
15176TIP3   OH266942   3.950   5.377  13.873  0.1322  0.0094 -0.1035
15176TIP3    H166943   3.914   5.362  13.960 -0.6051 -4.1804 -0.9434
15176TIP3    H266944   3.901   5.453  13.840 -2.1337 -0.5125  1.8003
15177TIP3   OH266945   1.640   1.390  12.944 -0.1180 -0.1752 -0.5292
15177TIP3    H166946   1.638   1.366  12.851 -0.8382  0.3326 -0.6517
15177TIP3    H266947   1.564   1.346  12.982 -0.1231  0.0370 -0.2896
15178TIP3   OH266948   2.951   4.662  15.124 -0.4533  0.2787 -0.0517
15178TIP3    H166949   2.978   4.676  15.033 -2.0350 -0.6642 -0.7061
15178TIP3    H266950   2.915   4.573  15.125 -2.0902  0.9195  1.0913
15179TIP3   OH266951   4.099   4.745  13.236  0.2325 -0.3258 -0.1015
15179TIP3    H166952   4.021   4.797  13.216 -0.1640  0.7590  3.5800
15179TIP3    H266953   4.171   4.793  13.196 -0.6636  0.2237 -1.1062
15180TIP3   OH266954   4.633   0.184  16.476 -0.0014 -0.4668  0.3225
15180TIP3    H166955   4.550   0.146  16.506  0.3464 -0.7575  0.9523
15180TIP3    H266956   4.690   0.108  16.463 -0.4344 -0.4559 -2.1443
15181TIP3   OH266957   0.650   2.667   1.339  0.0467  0.6804 -0.1200
15181TIP3    H166958   0.597   2.729   1.288 -0.1338  0.6840  0.0734
15181TIP3    H266959   0.609   2.582   1.323  1.0761  0.4060 -1.4468
15182TIP3   OH266960   0.358   0.142  13.686 -0.0759  0.2002 -0.5881
15182TIP3    H166961   0.395   0.219  13.728 -1.0578  1.2725 -1.6029
15182TIP3    H266962   0.414   0.127  13.610  1.2783 -1.3123  0.6383
15183TIP3   OH266963   1.622   5.905  12.038 -0.2695 -0.3096  0.1064
15183TIP3    H166964   1.584   5.824  12.006  1.5227 -0.8032 -0.9225
15183TIP3    H266965   1.716   5.895  12.023  0.1272  1.4454  1.1271
15184TIP3   OH266966   0.277   4.446  13.761 -0.2322  0.4712  0.2010
15184TIP3    H166967   0.278   4.473  13.852 -1.7501  2.4360 -0.3144
15184TIP3    H266968   0.218   4.371  13.758  2.1265 -1.5587  1.2475
15185TIP3   OH266969   3.163   1.514  12.061  0.4896  0.2503  0.1955
15185TIP3    H166970   3.127   1.436  12.103  2.0041 -0.5803  0.0355
15185TIP3    H266971   3.120   1.587  12.106 -0.7188 -0.6561  0.5767
15186TIP3   OH266972   3.981   0.162  16.345 -0.0014 -0.1380 -0.3979
15186TIP3    H166973   4.033   0.238  16.318 -1.4232  1.2672  0.5673
15186TIP3    H266974   3.940   0.190  16.427 -3.0368 -0.7303 -1.5660
15187TIP3   OH266975   3.826   6.544   6.864 -0.2558 -0.2151 -0.0045
15187TIP3    H166976   3.848   6.451   6.868 -1.6697 -0.5981 -0.7266
15187TIP3    H266977   3.797   6.558   6.774 -0.8664  0.7323  0.3327
15188TIP3   OH266978   5.087   1.595   6.003 -0.1002  0.1105  0.2613
15188TIP3    H166979   5.169   1.553   5.980  0.4932  0.9031  0.8748
15188TIP3    H266980   5.053   1.545   6.077 -0.1687 -0.2108  0.0128
15189TIP3   OH266981   0.630   0.815  12.295  0.0315  0.4529  0.5799
15189TIP3    H166982   0.597   0.728  12.318  0.2186  0.9253  2.8880
15189TIP3    H266983   0.557   0.874  12.312  0.4000  0.9153  0.5744
15190TIP3   OH266984   6.461   1.511   5.570 -0.3543  0.3486  0.1709
15190TIP3    H166985   6.397   1.513   5.499  0.2406 -2.8459 -0.6215
15190TIP3    H266986   6.429   1.442   5.629  2.2392 -1.3844 -0.2727
15191TIP3   OH266987   4.710   2.104   1.935 -0.5313 -0.2728  0.4713
15191TIP3    H166988   4.757   2.163   1.876  0.4384 -1.7255 -0.2590
15191TIP3    H266989   4.629   2.083   1.889 -0.4323 -0.2719  0.2983
15192TIP3   OH266990   3.350   4.152   0.362  0.2913 -0.5648 -0.2099
15192TIP3    H166991   3.392   4.108   0.435  0.5873  0.2720  0.1407
15192TIP3    H266992   3.413   4.219   0.335  0.4964 -1.3355 -1.7126
15193TIP3   OH266993   6.742   3.298   5.861 -0.0705  0.2267  0.3024
15193TIP3    H166994   6.813   3.329   5.917 -0.0313  0.2563  0.2369
15193TIP3    H266995   6.765   3.208   5.840  0.8300  0.7579 -1.1173
15194TIP3   OH266996   3.336   5.410   5.651  0.0770  1.1768  0.0317
15194TIP3    H166997   3.358   5.414   5.744 -0.2002  1.6683  0.0822
15194TIP3    H266998   3.385   5.335   5.617  0.0996  0.9352  0.5959
15195TIP3   OH266999   6.754   5.564  13.384 -0.2380 -0.2100  0.0296
15195TIP3    H167000   6.777   5.629  13.317 -1.9698 -0.1162 -0.5292
15195TIP3    H267001   6.753   5.614  13.466 -0.9637  0.3580 -0.3069
15196TIP3   OH267002   6.213   4.136   5.019 -0.5890  0.8159 -0.2090
15196TIP3    H167003   6.122   4.110   5.034 -0.4335  0.1228 -0.4491
15196TIP3    H267004   6.217   4.157   4.926 -0.8367  2.2315  0.0783
15197TIP3   OH267005   1.925   3.338   0.297 -0.1208  0.4754 -0.4640
15197TIP3    H167006   1.941   3.421   0.253  0.0673 -0.1986 -1.7138
15197TIP3    H267007   1.908   3.276   0.226  2.3589 -1.1597  0.2309
15198TIP3   OH267008   0.144   4.796  17.059  0.1727 -0.0820  0.1051
15198TIP3    H167009   0.094   4.835  17.131  1.3900  2.4784 -0.3130
15198TIP3    H267010   0.089   4.807  16.982  0.5012  0.9146 -0.0077
15199TIP3   OH267011   6.379   4.151   3.794 -0.9428  0.0129  0.0128
15199TIP3    H167012   6.362   4.182   3.705  1.1286  1.8437  0.1633
15199TIP3    H267013   6.358   4.058   3.792  2.4069 -0.9320 -3.4367
15200TIP3   OH267014   6.588   3.009  11.059  0.1028 -0.3262  0.4629
15200TIP3    H167015   6.544   2.971  10.983  1.7316  0.5191 -0.9986
15200TIP3    H267016   6.680   2.985  11.047  0.7438  1.6906  0.9408
15201TIP3   OH267017   0.461   5.229   1.315 -0.0239 -0.5651 -0.2518
15201TIP3    H167018   0.387   5.208   1.259 -0.4030 -1.8432  0.6911
15201TIP3    H267019   0.514   5.149   1.317  0.9412  0.0546 -0.2399
15202TIP3   OH267020   4.884   6.176  13.256 -0.6293  0.2646  0.5634
15202TIP3    H167021   4.929   6.093  13.270  1.2375 -0.0630 -4.8640
15202TIP3    H267022   4.948   6.243  13.280 -0.0332 -0.0418 -0.1333
15203TIP3   OH267023   2.567   6.466  15.548 -0.5047 -0.3445 -0.6380
15203TIP3    H167024   2.558   6.530  15.619 -0.4811  0.6684 -1.5296
15203TIP3    H267025   2.605   6.389  15.590  0.5087  0.6107  0.2549
15204TIP3   OH267026   2.880   0.475  16.557 -0.0702 -0.0746  0.3659
15204TIP3    H167027   2.912   0.448  16.471  0.0951 -0.9119  0.6760
15204TIP3    H267028   2.834   0.398  16.591 -0.6006  0.4216  0.8067
15205TIP3   OH267029   1.836   5.547  13.911  0.4952  0.3221 -0.0037
15205TIP3    H167030   1.745   5.560  13.937  0.2973  1.7775 -1.2818
15205TIP3    H267031   1.831   5.494  13.831  0.8900 -0.9498  0.7788
15206TIP3   OH267032   3.875   1.416  12.449 -0.4122 -0.0848 -0.0399
15206TIP3    H167033   3.817   1.371  12.387  0.5172  0.5430 -1.4196
15206TIP3    H267034   3.944   1.352  12.468 -0.1701  0.0594 -0.4282
15207TIP3   OH267035   6.794   6.077   3.962 -0.4409  0.4596  0.3498
15207TIP3    H167036   6.811   6.112   3.874  2.0017 -0.5271  0.3533
15207TIP3    H267037   6.744   6.146   4.005 -1.9970  0.8327 -1.8810
15208TIP3   OH267038   6.108   0.716  14.201 -0.0443  0.5970  0.0621
15208TIP3    H167039   6.066   0.800  14.186  0.1423  0.9741  1.4499
15208TIP3    H267040   6.111   0.674  14.115  2.5453  3.2271 -1.2913
15209TIP3   OH267041   2.745   0.143  15.679 -0.2428 -0.2626 -0.0063
15209TIP3    H167042   2.833   0.182  15.678 -0.5363  0.4574  0.9368
15209TIP3    H267043   2.692   0.202  15.626 -0.5738  0.3677  1.0026
15210TIP3   OH267044   3.620   1.292  15.113 -0.0029 -0.9239 -0.1070
15210TIP3    H167045   3.616   1.201  15.083  3.6546 -1.0445 -0.6960
15210TIP3    H267046   3.670   1.287  15.195  0.5837  0.5709 -0.3556
15211TIP3   OH267047   3.590   6.734  14.883  0.6490 -0.3358 -0.1409
15211TIP3    H167048   3.661   6.784  14.923  0.0650  0.6159 -0.2419
15211TIP3    H267049   3.514   6.753  14.938  0.2266 -0.4207 -0.6886
15212TIP3   OH267050   1.207   1.362   1.520 -0.0758 -0.1615  0.0234
15212TIP3    H167051   1.146   1.343   1.449 -0.4416 -0.0233  0.3030
15212TIP3    H267052   1.256   1.439   1.490 -1.7366  1.2727  0.8485
15213TIP3   OH267053   1.374   3.672   3.300 -0.4986  0.0414 -0.0143
15213TIP3    H167054   1.371   3.613   3.225  0.6038  0.2203 -0.2172
15213TIP3    H267055   1.308   3.739   3.280  1.6421  1.7005 -2.2535
15214TIP3   OH267056   2.235   1.792   0.602  0.0406  0.0856 -0.1505
15214TIP3    H167057   2.200   1.703   0.595  0.6513 -0.1192 -0.7439
15214TIP3    H267058   2.161   1.848   0.583 -0.2614 -0.3127 -0.1625
15215TIP3   OH267059   1.316   5.799  13.462 -0.3366  0.1497  0.1362
15215TIP3    H167060   1.228   5.819  13.428 -1.7130 -1.0076  2.7164
15215TIP3    H267061   1.349   5.882  13.495 -1.1696  0.2980  0.6212
15216TIP3   OH267062   3.332   5.063   0.393  0.8258  0.7508  0.4567
15216TIP3    H167063   3.257   5.118   0.369  1.4423  1.3174 -0.2225
15216TIP3    H267064   3.339   4.999   0.321  0.1875 -0.1652  1.1810
15217TIP3   OH267065   3.716   1.564   3.782  0.8356  0.1517  0.3826
15217TIP3    H167066   3.759   1.529   3.704  0.5134  1.2429 -0.3066
15217TIP3    H267067   3.694   1.487   3.834  1.0601 -0.5950 -0.6007
15218TIP3   OH267068   1.264   2.154   5.475 -0.5155 -0.1060 -0.1170
15218TIP3    H167069   1.274   2.205   5.555 -0.7291  0.5831 -0.5179
15218TIP3    H267070   1.233   2.069   5.504 -1.6162  0.4702  0.4482
15219TIP3   OH267071   0.349   0.060   5.531  0.1731  0.0944  0.3341
15219TIP3    H167072   0.361  -0.019   5.479  0.2583 -0.1225  0.6792
15219TIP3    H267073   0.402   0.127   5.487  0.2566 -0.0906  0.1548
15220TIP3   OH267074   4.032   0.707   3.699 -0.4308 -0.7869  0.3411
15220TIP3    H167075   4.022   0.643   3.629 -0.8743 -0.1612 -0.1681
15220TIP3    H267076   3.946   0.712   3.740 -0.2426 -0.9480  0.7713
15221TIP3   OH267077   2.653   5.184  11.413 -0.8427 -0.4152 -0.1365
15221TIP3    H167078   2.688   5.152  11.496  0.6797 -0.3015 -0.6998
15221TIP3    H267079   2.616   5.107  11.371 -1.3126 -0.5361  0.4771
15222TIP3   OH267080   3.055   0.974   0.990  0.0651 -0.5900  0.7878
15222TIP3    H167081   3.017   0.934   0.912 -0.7018  1.7746 -0.1288
15222TIP3    H267082   3.138   0.928   1.002  2.2519  1.4755 -3.8554
15223TIP3   OH267083   2.478   1.763  14.630  0.7067  0.2018  0.2344
15223TIP3    H167084   2.431   1.793  14.708 -0.2004  0.5225 -0.4245
15223TIP3    H267085   2.429   1.800  14.557  0.0749 -2.1181 -0.5993
15224TIP3   OH267086   5.727   1.960   3.103  0.0722 -0.2807  0.2470
15224TIP3    H167087   5.809   1.962   3.153  0.9594 -3.4520 -0.8394
15224TIP3    H267088   5.667   1.912   3.160 -0.2294 -0.1946 -0.0013
15225TIP3   OH267089   6.795   2.002   4.076  0.0382  0.4688 -0.1475
15225TIP3    H167090   6.728   2.060   4.041 -0.1290 -0.9410 -2.3456
15225TIP3    H267091   6.869   2.009   4.015 -0.0831 -1.7230 -0.6532
15226TIP3   OH267092   6.134   5.222   0.782 -0.0679 -0.2873 -0.1026
15226TIP3    H167093   6.199   5.154   0.798 -1.7059 -1.8147  0.4334
15226TIP3    H267094   6.066   5.179   0.731 -1.5635  0.6868  0.9701
15227TIP3   OH267095   0.648   4.091   1.691 -0.1425 -0.2670  0.5557
15227TIP3    H167096   0.583   4.160   1.703  0.2820  0.1720  0.3606
15227TIP3    H267097   0.728   4.125   1.731 -0.1086 -0.9370  1.0884
15228TIP3   OH267098   2.689   2.996  16.852  0.3558 -0.0979  0.2419
15228TIP3    H167099   2.738   3.018  16.931  2.1762 -1.0616 -0.5646
15228TIP3    H267100   2.670   3.080  16.811  1.9815  0.2811  0.2223
15229TIP3   OH267101   0.361   5.525  13.594 -0.0933 -0.1685  0.1110
15229TIP3    H167102   0.336   5.433  13.608  1.9097 -0.9228 -0.8335
15229TIP3    H267103   0.418   5.523  13.517 -0.8904  2.0619 -0.6172
15230TIP3   OH267104   4.469   2.637   1.322 -0.0528 -0.7103  1.0150
15230TIP3    H167105   4.486   2.606   1.233 -2.0115 -0.6560  0.5872
15230TIP3    H267106   4.537   2.595   1.375  1.3880 -0.4467 -0.5270
15231TIP3   OH267107   0.329   3.279   0.882 -0.0982  0.4955 -0.2144
15231TIP3    H167108   0.318   3.369   0.851 -0.0521  0.0813 -1.4906
15231TIP3    H267109   0.423   3.268   0.892  0.1544 -0.2099 -2.6978
15232TIP3   OH267110   5.135   2.637  12.265  0.6082 -0.1274  0.7034
15232TIP3    H167111   5.174   2.673  12.185 -0.9228 -2.0246 -0.9724
15232TIP3    H267112   5.178   2.553  12.278 -0.1575 -0.4783  1.0563
15233TIP3   OH267113   2.824   0.743   3.128 -0.4916  1.0260  0.5148
15233TIP3    H167114   2.754   0.678   3.125  1.0565 -0.6876 -0.4327
15233TIP3    H267115   2.780   0.826   3.113 -2.2409 -0.1025 -1.0694
15234TIP3   OH267116   5.899   6.064   4.595  0.3944 -0.6119  0.7468
15234TIP3    H167117   5.921   6.119   4.520 -0.3175 -1.2565  0.0435
15234TIP3    H267118   5.804   6.077   4.606  0.6179  0.0673  2.0249
15235TIP3   OH267119   3.346   3.224  11.715  0.2670 -0.3983  0.2909
15235TIP3    H167120   3.387   3.196  11.633  0.0893  1.8125 -0.6245
15235TIP3    H267121   3.415   3.213  11.781  1.5973  1.0198 -0.8017
15236TIP3   OH267122   0.174   6.560  14.933  0.0895 -0.0846  0.7202
15236TIP3    H167123   0.114   6.513  14.875  2.2425 -0.2188 -1.5926
15236TIP3    H267124   0.254   6.506  14.933  0.5442  0.4900  3.0121
15237TIP3   OH267125   4.467   4.073  12.770 -0.3343 -0.1323 -0.2508
15237TIP3    H167126   4.439   4.142  12.710 -1.7067  1.2359  1.8063
15237TIP3    H267127   4.495   4.120  12.849  0.3344 -1.8784  0.6042
15238TIP3   OH267128   6.497   5.754  12.952  0.4231  0.7606  0.1553
15238TIP3    H167129   6.490   5.833  13.005 -1.6463  1.7441 -1.4549
15238TIP3    H267130   6.538   5.783  12.870 -1.3829  0.4660 -0.9041
15239TIP3   OH267131   2.306   3.182   1.895  0.1705 -0.1604 -0.5096
15239TIP3    H167132   2.288   3.110   1.835 -2.3741 -0.2241  0.1911
15239TIP3    H267133   2.311   3.260   1.840 -1.2737 -0.3360 -0.9305
15240TIP3   OH267134   3.834   3.331   5.000  0.2724  0.0685  0.0085
15240TIP3    H167135   3.817   3.257   4.941  0.3375 -0.7958  1.0464
15240TIP3    H267136   3.924   3.357   4.980  0.1020  0.1640 -0.6678
15241TIP3   OH267137   1.840   3.417  15.229  0.0321  0.1843 -0.0769
15241TIP3    H167138   1.816   3.326  15.249  0.6881  0.0245 -0.0044
15241TIP3    H267139   1.923   3.410  15.182 -0.1317  0.7245 -0.4560
15242TIP3   OH267140   4.883   2.256   0.057  0.3964 -0.6429 -0.0531
15242TIP3    H167141   4.806   2.241   0.001 -2.5912  5.4194  1.5471
15242TIP3    H267142   4.850   2.242   0.146  1.0618  1.9148  0.6668
15243TIP3   OH267143   6.786   0.168   6.174 -0.9066  0.3558 -0.7252
15243TIP3    H167144   6.705   0.121   6.155  0.5714 -1.3677 -3.3704
15243TIP3    H267145   6.855   0.115   6.134  1.2662  3.0298 -0.8152
15244TIP3   OH267146   2.724   6.197   6.054  0.5537 -0.2602  0.2904
15244TIP3    H167147   2.743   6.177   6.146 -0.6644  0.9053  0.8281
15244TIP3    H267148   2.664   6.271   6.057  0.2022 -0.4235 -1.4491
15245TIP3   OH267149   5.340   0.073   5.238  0.2615 -0.0024  0.1783
15245TIP3    H167150   5.291   0.007   5.188 -0.5774  1.0664 -0.4558
15245TIP3    H267151   5.376   0.025   5.312  1.1081 -1.5433 -1.1544
15246TIP3   OH267152   1.844   4.343  12.444 -0.6712  0.7467 -0.2313
15246TIP3    H167153   1.785   4.369  12.373  0.1689 -0.4291 -1.4024
15246TIP3    H267154   1.797   4.274  12.491 -1.1513  1.3969  0.2600
15247TIP3   OH267155   6.154   2.512  13.408 -0.4738 -0.4412 -0.0091
15247TIP3    H167156   6.205   2.517  13.327  1.0571  0.0078  0.9349
15247TIP3    H267157   6.098   2.589  13.406  1.1498  0.8181  0.3491
15248TIP3   OH267158   4.698   3.753   4.299  0.0507 -0.6178 -0.3408
15248TIP3    H167159   4.667   3.839   4.269 -0.8256 -0.4237  1.0454
15248TIP3    H267160   4.729   3.710   4.219 -0.2978  0.6516 -1.1950
15249TIP3   OH267161   6.121   4.136   5.958  0.1855  0.2362 -0.1328
15249TIP3    H167162   6.060   4.180   6.016 -0.0144 -0.1354 -0.0572
15249TIP3    H267163   6.198   4.120   6.012 -0.0002 -0.1086  0.0316
15250TIP3   OH267164   6.787   4.877   1.082 -0.3046 -0.4106  0.0019
15250TIP3    H167165   6.876   4.892   1.050 -1.1395  1.6831 -1.4920
15250TIP3    H267166   6.733   4.938   1.034 -2.4404 -0.8491  1.6880
15251TIP3   OH267167   3.136   6.745   0.380 -0.3099  0.6165  0.1973
15251TIP3    H167168   3.182   6.828   0.372  1.2387 -0.3024 -0.7896
15251TIP3    H267169   3.152   6.699   0.298 -0.6150 -0.9083  0.9352
15252TIP3   OH267170   3.953   5.521   1.836  0.0053  0.2342  0.3178
15252TIP3    H167171   3.870   5.558   1.867  1.1970  1.8622  1.7905
15252TIP3    H267172   3.946   5.428   1.854 -1.8020  0.2178 -0.3303
15253TIP3   OH267173   3.643   5.513   5.142  0.5356 -0.3990 -0.3054
15253TIP3    H167174   3.595   5.450   5.196  0.7783  0.3393  0.8074
15253TIP3    H267175   3.577   5.550   5.084  0.4946 -2.0737 -1.3930
15254TIP3   OH267176   2.991   4.334   2.844 -0.3289 -0.0663  0.0581
15254TIP3    H167177   2.946   4.313   2.925 -1.0096  1.1792  0.0271
15254TIP3    H267178   2.924   4.374   2.788  0.2486 -0.4191 -0.9194
15255TIP3   OH267179   4.313   6.713   4.378  0.2867  0.1174  0.0895
15255TIP3    H167180   4.323   6.760   4.461  0.5019  0.1646  0.0351
15255TIP3    H267181   4.335   6.777   4.311 -0.3660  0.2264 -0.0304
15256TIP3   OH267182   3.777   2.796   2.305  0.0500 -0.4266 -0.2775
15256TIP3    H167183   3.857   2.848   2.310 -0.3500  0.3253 -1.2512
15256TIP3    H267184   3.709   2.854   2.340 -0.6517  0.2998 -2.6678
15257TIP3   OH267185   6.571   2.269  13.780 -0.5738  0.3008 -0.6676
15257TIP3    H167186   6.616   2.189  13.803 -1.7684 -0.7288 -1.7312
15257TIP3    H267187   6.639   2.327  13.745 -0.0392 -1.1922 -2.2109
15258TIP3   OH267188   0.529   3.136   1.817 -0.1925  0.2037 -0.1786
15258TIP3    H167189   0.532   3.063   1.755  1.3217  0.6119 -0.6131
15258TIP3    H267190   0.516   3.213   1.763 -1.1632  0.3426  0.2285
15259TIP3   OH267191   1.859   3.152   4.215 -0.1161  0.0211  0.3958
15259TIP3    H167192   1.807   3.073   4.198 -0.6636  0.9012 -2.6378
15259TIP3    H267193   1.940   3.138   4.166 -1.0139  2.0263 -1.8565
15260TIP3   OH267194   1.253   4.244  13.984  0.2204 -0.4339 -0.5670
15260TIP3    H167195   1.230   4.297  13.908  1.4669  0.4119 -0.3737
15260TIP3    H267196   1.168   4.221  14.023 -0.3858  2.6030  0.1585
15261TIP3   OH267197   0.677   5.660  10.717  0.1226  0.0538 -0.4213
15261TIP3    H167198   0.606   5.595  10.716  0.3315 -0.1734 -0.6857
15261TIP3    H267199   0.756   5.609  10.701  0.5122  0.1101  1.2084
15262TIP3   OH267200   5.484   3.117   1.184 -0.1997 -0.4175 -0.1325
15262TIP3    H167201   5.489   3.022   1.176 -0.8550 -0.3881 -1.1655
15262TIP3    H267202   5.451   3.146   1.098 -0.3914  0.7039  0.3035
15263TIP3   OH267203   0.281   5.702   4.167 -0.0462  0.1480 -0.5861
15263TIP3    H167204   0.323   5.690   4.082 -0.0808  1.5761 -0.8383
15263TIP3    H267205   0.340   5.759   4.216 -0.0603 -0.5963  0.3377
15264TIP3   OH267206   0.995   4.127   4.084 -0.0278 -0.1723 -0.0521
15264TIP3    H167207   0.907   4.147   4.051 -0.6641 -1.0521  1.0391
15264TIP3    H267208   0.988   4.140   4.179  1.6728  2.0528 -0.1437
15265TIP3   OH267209   4.200   0.675   3.280 -0.0663 -0.7520  0.3872
15265TIP3    H167210   4.189   0.747   3.217 -0.5548 -0.9388  0.2548
15265TIP3    H267211   4.124   0.683   3.338  0.6856 -0.2109  1.3388
15266TIP3   OH267212   5.053   5.375   5.586 -0.1532 -0.0735  0.1335
15266TIP3    H167213   5.028   5.369   5.679 -1.2032 -0.1357 -0.1327
15266TIP3    H267214   5.138   5.332   5.582 -0.3343 -0.5556  0.9882
15267TIP3   OH267215   2.741   3.229   1.415  0.0961 -0.4309  0.1385
15267TIP3    H167216   2.708   3.157   1.468 -1.9153 -0.2292 -0.7492
15267TIP3    H267217   2.830   3.243   1.445 -0.5079 -1.2482  2.4695
15268TIP3   OH267218   1.316   1.216  15.770  0.3436  0.0113 -0.1456
15268TIP3    H167219   1.391   1.209  15.711  1.5756 -0.7108  1.4464
15268TIP3    H267220   1.320   1.138  15.825 -2.3202 -0.6906 -0.7813
15269TIP3   OH267221   3.197   6.208   0.178 -0.1512  0.4483 -0.9417
15269TIP3    H167222   3.169   6.152   0.105  0.6906 -1.2203 -0.0296
15269TIP3    H267223   3.280   6.170   0.208 -0.4807  1.0716  0.9072
15270TIP3   OH267224   3.250   3.039   0.333 -0.1520 -0.4010 -0.0659
15270TIP3    H167225   3.225   3.131   0.329 -0.8766 -0.6550 -2.2714
15270TIP3    H267226   3.293   3.021   0.250 -1.8202 -2.5382 -0.5592
15271TIP3   OH267227   2.364   6.178  16.539 -0.2967 -0.2786  0.0692
15271TIP3    H167228   2.450   6.149  16.570  0.0808 -0.4800 -1.1170
15271TIP3    H267229   2.342   6.251  16.596 -0.3714 -1.6131  1.8535
15272TIP3   OH267230   4.970   1.501   2.800 -0.1670  0.3726  0.2872
15272TIP3    H167231   5.029   1.427   2.786 -2.5047 -1.5181 -0.0620
15272TIP3    H267232   4.883   1.462   2.806 -1.4500  3.0696  0.5676
15273TIP3   OH267233   5.218   1.891   5.651 -0.0299  0.4944  0.0021
15273TIP3    H167234   5.245   1.857   5.737 -1.3636 -0.1252  0.2036
15273TIP3    H267235   5.300   1.904   5.603  0.7232  0.5654  1.2604
15274TIP3   OH267236   2.240   5.055   3.146  0.2411  0.0442  0.5001
15274TIP3    H167237   2.322   5.070   3.098 -0.4206 -0.6810 -0.9053
15274TIP3    H267238   2.258   4.981   3.203 -0.5536 -2.9735 -2.8481
15275TIP3   OH267239   5.299   3.218  16.397  0.0163 -0.3031  0.2933
15275TIP3    H167240   5.385   3.175  16.394  0.8828  1.3930 -0.0144
15275TIP3    H267241   5.299   3.276  16.321 -0.9695  0.5327  0.9200
15276TIP3   OH267242   6.475   2.588  13.492 -0.1289  0.1846 -0.0369
15276TIP3    H167243   6.505   2.678  13.479  1.1395 -0.1443  0.5026
15276TIP3    H267244   6.493   2.570  13.584 -1.3941 -0.2652  0.1385
15277TIP3   OH267245   0.292   4.053  12.405  0.3481  0.3787  0.1508
15277TIP3    H167246   0.221   4.111  12.375  2.2259  2.2436 -1.0130
15277TIP3    H267247   0.304   4.077  12.497 -0.9788 -0.5116  0.5924
15278TIP3   OH267248   5.244   3.554  13.485 -0.4764 -0.3819 -0.0663
15278TIP3    H167249   5.328   3.592  13.513 -0.3783 -2.9051  3.7499
15278TIP3    H267250   5.178   3.602  13.536 -0.8416 -1.5526  0.6021
15279TIP3   OH267251   4.122   5.936  13.539  0.7431  0.6519 -0.1193
15279TIP3    H167252   4.208   5.946  13.579  1.3962  1.8158 -1.7053
15279TIP3    H267253   4.085   6.024  13.539 -0.4062  0.1898  0.4098
15280TIP3   OH267254   6.525   4.733   4.540  0.0542 -0.2544 -0.4723
15280TIP3    H167255   6.534   4.644   4.506  0.5707 -0.7863  0.9800
15280TIP3    H267256   6.433   4.756   4.526 -0.8381 -2.1564  1.7063
15281TIP3   OH267257   5.591   3.129   1.931 -0.1881 -0.3539 -0.0781
15281TIP3    H167258   5.679   3.124   1.968 -1.0107 -1.2531  1.8853
15281TIP3    H267259   5.574   3.223   1.924  1.0077 -0.1616 -0.7478
15282TIP3   OH267260   5.573   3.544  15.773 -0.2031  0.2243 -0.4162
15282TIP3    H167261   5.548   3.455  15.798  1.9388 -0.4763 -0.6083
15282TIP3    H267262   5.527   3.559  15.690  1.5396 -1.8092 -1.8446
15283TIP3   OH267263   4.943   6.148   2.958 -0.2173  0.2928 -0.5962
15283TIP3    H167264   5.007   6.219   2.953  0.2498  0.0348  0.9956
15283TIP3    H267265   4.992   6.075   2.998 -1.6305  0.3065  1.3164
15284TIP3   OH267266   0.804   1.165  16.283 -0.2784  0.0927 -0.5903
15284TIP3    H167267   0.788   1.077  16.251 -0.5638  0.2031 -0.7540
15284TIP3    H267268   0.720   1.210  16.275 -0.5175 -0.0431  0.8851
15285TIP3   OH267269   1.080   2.133   1.713 -0.5421 -0.0061  0.1999
15285TIP3    H167270   1.053   2.052   1.756 -0.4429  0.1171  0.4956
15285TIP3    H267271   1.022   2.200   1.749  0.4495  0.3522  1.2168
15286TIP3   OH267272   3.116   6.030   3.714  0.2346 -0.3250 -0.7103
15286TIP3    H167273   3.029   6.043   3.753  0.5751 -3.4402  1.4091
15286TIP3    H267274   3.176   6.073   3.775  0.4416 -1.6082  0.0215
15287TIP3   OH267275   3.154   4.548   4.439 -0.3673 -0.4443 -0.0043
15287TIP3    H167276   3.157   4.603   4.360  0.0234  0.6439  0.7399
15287TIP3    H267277   3.074   4.497   4.430 -0.8459  0.4003 -0.6339
15288TIP3   OH267278   2.939   4.751   0.548  0.0854 -0.5967 -0.2013
15288TIP3    H167279   2.971   4.840   0.563 -0.6887 -0.1324 -1.1601
15288TIP3    H267280   3.018   4.700   0.532  0.4881  0.1473 -0.6841
15289TIP3   OH267281   4.930   2.751  13.517  0.3194 -0.2347 -0.1899
15289TIP3    H167282   4.894   2.746  13.606  0.1552 -0.9406 -0.2928
15289TIP3    H267283   4.977   2.835  13.516 -0.7711  0.4029  0.1413
15290TIP3   OH267284   2.491   0.119   1.491  0.2597  0.2135 -0.2483
15290TIP3    H167285   2.555   0.049   1.496 -1.3240 -1.3775 -1.0100
15290TIP3    H267286   2.436   0.108   1.568 -0.2195  0.3950 -0.5548
15291TIP3   OH267287   0.225   2.828  14.192  0.2385 -0.5997  0.5081
15291TIP3    H167288   0.187   2.808  14.277  2.1203 -1.4501  1.1812
15291TIP3    H267289   0.162   2.793  14.129 -1.3567  0.3654  1.4958
15292TIP3   OH267290   2.270   0.541   0.004  0.3837 -0.8517  0.5307
15292TIP3    H167291   2.176   0.559   0.014  0.3497  0.3952 -1.4675
15292TIP3    H267292   2.312   0.605   0.060  0.0672 -1.8883  2.0087
15293TIP3   OH267293   5.369   1.736   2.736  0.5356  0.3117 -0.2525
15293TIP3    H167294   5.346   1.801   2.801  1.5823  0.9630 -0.4982
15293TIP3    H267295   5.465   1.733   2.738  0.5455 -0.4047 -1.0274
15294TIP3   OH267296   2.057   2.247   1.048 -0.0972  0.1287 -0.8638
15294TIP3    H167297   2.038   2.173   1.105  1.5128  0.8020  0.6461
15294TIP3    H267298   2.121   2.213   0.986 -1.4060 -0.4414 -1.9546
15295TIP3   OH267299   0.463   3.660  14.352 -0.3628  0.1959  0.1404
15295TIP3    H167300   0.520   3.643  14.428 -2.9314  1.0335  2.4309
15295TIP3    H267301   0.409   3.582  14.345  0.6778 -0.4131 -1.7347
15296TIP3   OH267302   3.742   3.760  14.722 -0.2911  0.0737 -0.3694
15296TIP3    H167303   3.681   3.762  14.796 -0.0998  0.0306 -0.2100
15296TIP3    H267304   3.713   3.686  14.669 -0.4630  0.1384 -0.3689
15297TIP3   OH267305   3.462   6.709   0.174  0.2441 -1.0153 -0.2451
15297TIP3    H167306   3.535   6.649   0.159  1.7336  0.1035  1.9834
15297TIP3    H267307   3.497   6.795   0.151 -1.1727 -0.6896 -1.3507
15298TIP3   OH267308   5.803   0.120  14.257  0.0304 -0.1828 -0.0825
15298TIP3    H167309   5.823   0.090  14.346  0.8548  0.2295 -0.1188
15298TIP3    H267310   5.884   0.161  14.227 -1.1212  2.3447  0.0584
15299TIP3   OH267311   0.366   6.636   0.703  0.3487 -0.1460 -0.2211
15299TIP3    H167312   0.449   6.627   0.655  0.4741 -1.3057  0.1768
15299TIP3    H267313   0.319   6.555   0.686 -0.3057  0.1062  0.3168
15300TIP3   OH267314   0.924   4.839   0.290 -1.0727 -0.6657  0.2074
15300TIP3    H167315   0.887   4.759   0.250 -2.1415 -0.3877  0.5994
15300TIP3    H267316   0.873   4.910   0.250 -2.1553 -0.3745  2.0116
15301TIP3   OH267317   0.826   4.013  14.014 -0.2480 -0.3455  0.0791
15301TIP3    H167318   0.858   4.085  13.959 -0.9924 -0.6593 -0.7917
15301TIP3    H267319   0.866   4.029  14.099  2.1347 -0.6724 -0.8943
15302TIP3   OH267320   2.710   2.267  14.288  0.3395  0.5567 -0.5552
15302TIP3    H167321   2.783   2.227  14.241 -1.4778 -2.0261 -1.4578
15302TIP3    H267322   2.682   2.199  14.350 -1.2734  1.4523 -0.2508
15303TIP3   OH267323   1.246   3.257  13.908 -0.4089 -0.0662 -0.0306
15303TIP3    H167324   1.234   3.245  14.003 -0.2288  1.0480  0.1477
15303TIP3    H267325   1.332   3.300  13.901  0.5102 -1.9260 -0.8393
15304TIP3   OH267326   5.644   0.333   5.610  0.0905  0.6413 -0.0920
15304TIP3    H167327   5.678   0.419   5.635  0.5492  0.3423  0.3130
15304TIP3    H267328   5.717   0.273   5.624 -0.7667 -0.1045  1.3507
15305TIP3   OH267329   3.554   2.749   2.582 -1.0206 -0.4926 -0.0183
15305TIP3    H167330   3.620   2.680   2.569  0.0287  0.2958  0.8927
15305TIP3    H267331   3.493   2.737   2.510 -0.0201 -1.4265 -0.7552
15306TIP3   OH267332   3.740   1.880  16.977  0.1424  0.6146  0.0678
15306TIP3    H167333   3.671   1.945  16.961  1.4328  2.0095  0.0466
15306TIP3    H267334   3.703   1.822  17.043 -0.5559  2.1429  1.0626
15307TIP3   OH267335   5.601   6.619   2.681  0.1434  0.3463 -0.2878
15307TIP3    H167336   5.612   6.705   2.723  0.2731 -0.4047  1.2648
15307TIP3    H267337   5.680   6.571   2.705 -1.5696 -1.5049  2.1323
15308TIP3   OH267338   0.382   5.287  14.824  0.0479 -0.2025 -0.7844
15308TIP3    H167339   0.328   5.242  14.890  1.8286 -1.9740 -0.4117
15308TIP3    H267340   0.324   5.298  14.749 -0.7563 -2.4331 -0.5723
15309TIP3   OH267341   4.524   4.109   0.798 -0.0331 -0.4618 -0.0876
15309TIP3    H167342   4.456   4.101   0.731 -0.1751  1.0202 -0.1538
15309TIP3    H267343   4.601   4.138   0.750 -0.3229  1.3074  0.4391
15310TIP3   OH267344   1.994   1.760  16.075  0.5227  0.3009  0.2960
15310TIP3    H167345   2.077   1.719  16.053 -0.1486 -1.3013  0.6025
15310TIP3    H267346   2.018   1.840  16.121  1.9758 -1.8063  3.5582
15311TIP3   OH267347   6.438   3.897  14.006  1.0284 -0.4964  0.6638
15311TIP3    H167348   6.416   3.985  13.976 -0.6626 -1.1897 -0.2742
15311TIP3    H267349   6.444   3.905  14.101  2.1137  0.8572  0.5041
15312TIP3   OH267350   5.000   3.658   4.683  0.3411 -0.5984 -0.4933
15312TIP3    H167351   5.051   3.577   4.678  0.6468 -0.3360 -2.0296
15312TIP3    H267352   5.050   3.722   4.633  0.4823  0.7841  1.3300
15313TIP3   OH267353   4.321   3.836   0.700 -0.2306 -0.0430  0.2238
15313TIP3    H167354   4.274   3.850   0.618  0.9257  1.9800 -0.1497
15313TIP3    H267355   4.314   3.919   0.746 -0.4632 -0.9963  2.0084
15314TIP3   OH267356   6.638   0.029  11.489  0.1571 -0.3672 -0.4563
15314TIP3    H167357   6.638   0.044  11.395  0.9164 -0.1952 -0.4406
15314TIP3    H267358   6.584   0.100  11.525  0.1438 -0.2354 -0.7337
15315TIP3   OH267359   1.145   4.417  16.930  0.0394  0.3306  0.0193
15315TIP3    H167360   1.204   4.458  16.992 -0.7208  0.2736  0.8090
15315TIP3    H267361   1.073   4.384  16.984 -0.3960 -0.1677 -0.8364
15316TIP3   OH267362   2.287   5.480   2.359  0.1467 -0.4097  0.5605
15316TIP3    H167363   2.339   5.558   2.374 -0.1310 -0.1558  0.2297
15316TIP3    H267364   2.197   5.507   2.379 -0.0780 -0.3746 -0.4412
15317TIP3   OH267365   4.081   4.633  16.152  0.1393  0.0926  0.1486
15317TIP3    H167366   4.047   4.640  16.241  0.3916 -0.7669  0.3253
15317TIP3    H267367   4.017   4.579  16.105  0.7196 -0.6744  0.2106
15318TIP3   OH267368   1.338   4.677  10.837  0.0592  0.1783  0.1600
15318TIP3    H167369   1.305   4.695  10.749  0.9444 -0.2872 -0.2864
15318TIP3    H267370   1.375   4.589  10.832  0.0406  0.1106  1.0223
15319TIP3   OH267371   0.057   5.449  16.006 -0.1326 -0.4652  1.3050
15319TIP3    H167372   0.018   5.373  16.047  0.0791  0.1014  2.6110
15319TIP3    H267373   0.006   5.523  16.037  1.6605  0.2537  2.7451
15320TIP3   OH267374   6.438   0.718  15.050  0.2086 -0.6930  0.6182
15320TIP3    H167375   6.405   0.806  15.034  1.4505 -0.2891  0.1983
15320TIP3    H267376   6.397   0.664  14.982  0.4432 -0.1966  0.0788
15321TIP3   OH267377   1.570   6.517  14.634  0.6281  0.3500  0.2865
15321TIP3    H167378   1.515   6.549  14.563  0.9786  0.2210 -0.0464
15321TIP3    H267379   1.618   6.595  14.664 -0.4623  0.6715  1.2490
15322TIP3   OH267380   3.969   5.500   3.708  0.3628 -0.1346  0.3087
15322TIP3    H167381   3.915   5.490   3.786  0.5296  1.7279  0.7101
15322TIP3    H267382   4.051   5.539   3.741  1.0946 -0.8780 -0.5824
15323TIP3   OH267383   3.469   6.633   1.349  0.0012 -0.5998  0.4768
15323TIP3    H167384   3.447   6.704   1.288  0.6723  0.4885  1.4596
15323TIP3    H267385   3.393   6.627   1.407 -0.3016 -1.0919  0.0340
15324TIP3   OH267386   2.734   6.248  16.309 -0.0946 -0.3113 -0.1528
15324TIP3    H167387   2.730   6.156  16.334  2.8133 -0.1764  1.2433
15324TIP3    H267388   2.827   6.265  16.294 -0.0203  3.0966  2.6866
15325TIP3   OH267389   5.685   6.201  13.118  0.0275 -0.1703 -0.5332
15325TIP3    H167390   5.759   6.177  13.062  0.1203 -0.6957 -0.1979
15325TIP3    H267391   5.609   6.192  13.062 -0.0244 -2.0696 -0.2252
15326TIP3   OH267392   5.931   4.215   0.732  0.1698  0.5172  0.4618
15326TIP3    H167393   6.012   4.217   0.782 -0.7365  1.1707  1.9441
15326TIP3    H267394   5.960   4.219   0.640  1.8153  0.1604  0.9284
15327TIP3   OH267395   0.803   0.288  12.359 -0.3130  0.0340  0.4058
15327TIP3    H167396   0.791   0.342  12.281  2.4804  1.5335  0.8729
15327TIP3    H267397   0.878   0.232  12.338  0.9426  0.9454  2.1621
15328TIP3   OH267398   6.390   3.276   0.408 -0.0420 -0.4814  0.4198
15328TIP3    H167399   6.416   3.190   0.375 -0.9528 -1.6716  2.6211
15328TIP3    H267400   6.403   3.271   0.502 -2.2290  1.0220  0.8822
15329TIP3   OH267401   6.005   2.734  10.881  0.0766 -0.4622 -0.0912
15329TIP3    H167402   5.989   2.661  10.821  0.1260  0.8935 -1.8447
15329TIP3    H267403   6.095   2.762  10.860  1.1002 -1.5461  2.4550
15330TIP3   OH267404   4.166   1.304   4.452 -0.7733  0.2162  0.1913
15330TIP3    H167405   4.160   1.227   4.395 -4.2740  1.1031 -0.8855
15330TIP3    H267406   4.095   1.293   4.515 -0.9295  2.2523  0.4235
15331TIP3   OH267407   5.110   5.902   6.784 -0.0141  0.4928  0.3670
15331TIP3    H167408   5.204   5.901   6.802  0.0013  0.5787  0.2914
15331TIP3    H267409   5.097   5.976   6.724 -0.0488  0.1527 -0.0571
15332TIP3   OH267410   6.285   2.532  15.443 -0.0114  0.7180 -0.9523
15332TIP3    H167411   6.207   2.586  15.456 -0.3131  0.2152 -0.6494
15332TIP3    H267412   6.355   2.595  15.430 -0.2943  1.2013 -0.2305
15333TIP3   OH267413   6.615   5.436  10.861  0.2056 -0.0700  0.0104
15333TIP3    H167414   6.693   5.462  10.812  0.7288  0.3973  1.0548
15333TIP3    H267415   6.545   5.492  10.826  0.8470  1.1783  0.6500
15334TIP3   OH267416   0.120   3.527  10.477  0.1903  0.4025 -0.4471
15334TIP3    H167417   0.161   3.613  10.469  1.1213 -0.1758 -2.6113
15334TIP3    H267418   0.192   3.467  10.498 -0.3438  0.0319  0.3973
15335TIP3   OH267419   6.218   1.449  12.416  0.1288  0.2551  0.2358
15335TIP3    H167420   6.143   1.498  12.449  0.1829  0.1839  0.4672
15335TIP3    H267421   6.294   1.503  12.441  0.0702  1.1290 -1.3879
15336TIP3   OH267422   3.580   3.726   6.233  0.1384  0.3756  0.0305
15336TIP3    H167423   3.543   3.685   6.311  0.3725  0.7778  0.3545
15336TIP3    H267424   3.672   3.740   6.255  0.1026  0.9005 -0.1519
15337TIP3   OH267425   0.436   4.896   0.019 -0.0623 -0.2373  0.2117
15337TIP3    H167426   0.388   4.979   0.024 -0.6236 -0.3451 -2.1148
15337TIP3    H267427   0.368   4.829   0.018  0.3512 -0.6849  1.1520
15338TIP3   OH267428   4.420   4.053  13.852  0.3424 -0.1031  0.1660
15338TIP3    H167429   4.453   4.126  13.905 -0.6132  0.0801  0.5377
15338TIP3    H267430   4.499   4.010  13.819  0.9842  2.1596 -1.5661
15339TIP3   OH267431   6.348   0.611  12.476 -0.2597  0.4053  0.0020
15339TIP3    H167432   6.353   0.700  12.441 -0.3826  0.4503  0.0972
15339TIP3    H267433   6.399   0.558  12.415 -2.1023  0.1341 -1.3827
15340TIP3   OH267434   0.545   1.231   0.976  0.1571  0.1207 -0.1331
15340TIP3    H167435   0.498   1.148   0.975  0.1268  0.1396 -0.2924
15340TIP3    H267436   0.484   1.291   1.020 -0.5864  0.5029 -1.6238
15341TIP3   OH267437   0.038   2.502   1.494  0.3930 -0.0198 -0.1963
15341TIP3    H167438  -0.008   2.479   1.575  1.7853  2.1616  1.3240
15341TIP3    H267439  -0.030   2.541   1.438 -0.4078 -0.6866  0.2832
15342TIP3   OH267440   3.711   0.785   2.642  0.2635 -0.2530 -0.1101
15342TIP3    H167441   3.794   0.780   2.595 -1.1937 -0.6274 -2.8270
15342TIP3    H267442   3.693   0.879   2.649  0.3899 -0.1981 -0.5185
15343TIP3   OH267443   3.881   3.893  15.340  0.0384 -0.2007  0.1618
15343TIP3    H167444   3.959   3.870  15.389 -0.1877 -0.0075  0.6235
15343TIP3    H267445   3.808   3.862  15.395 -0.2035 -0.5268 -0.3372
15344TIP3   OH267446   1.764   0.878   4.100 -0.0546  0.6996  0.4381
15344TIP3    H167447   1.834   0.916   4.153  2.1100 -0.6349 -1.2862
15344TIP3    H267448   1.776   0.917   4.013 -0.0191 -1.2148 -0.4602
15345TIP3   OH267449   2.970   5.438  14.038 -0.0852 -0.1064  1.1877
15345TIP3    H167450   2.908   5.366  14.029  0.4655 -0.5959  1.1803
15345TIP3    H267451   2.928   5.513  13.996  0.4977 -1.1360 -1.4396
15346TIP3   OH267452   6.709   4.686  15.342 -0.2027  0.0580 -0.4425
15346TIP3    H167453   6.691   4.641  15.259 -0.4668  0.0461 -0.3791
15346TIP3    H267454   6.695   4.620  15.409  1.2338 -0.2953 -0.4481
15347TIP3   OH267455   2.418   5.462  14.574 -0.1567  0.3386 -0.0760
15347TIP3    H167456   2.403   5.555  14.592  0.3035  0.6873 -1.3730
15347TIP3    H267457   2.488   5.437  14.634  0.0757  0.9704 -0.0799
15348TIP3   OH267458   1.278   3.476  13.040  0.0382  0.0825  0.6706
15348TIP3    H167459   1.207   3.540  13.035  0.8522  1.1016  1.7396
15348TIP3    H267460   1.282   3.451  13.132  0.5433 -0.5964  0.4755
15349TIP3   OH267461   5.865   4.678   3.028  0.0938 -0.1292 -0.2019
15349TIP3    H167462   5.782   4.647   2.990 -0.3492 -1.2773  1.5912
15349TIP3    H267463   5.878   4.764   2.989 -0.9234 -0.7433 -2.0166
15350TIP3   OH267464   3.616   4.783  11.879  0.1436  0.3820  0.3269
15350TIP3    H167465   3.568   4.866  11.876 -0.9146 -0.2263 -0.4261
15350TIP3    H267466   3.638   4.765  11.787  2.2120  0.8397  0.6876
15351TIP3   OH267467   0.184   0.827  12.716  0.0375  0.0339  0.4015
15351TIP3    H167468   0.186   0.822  12.812 -0.3533  0.6647  0.4519
15351TIP3    H267469   0.128   0.755  12.689 -2.4914  1.7092  0.8488
15352TIP3   OH267470   6.320   0.821   6.321 -0.1569  0.0556 -0.3118
15352TIP3    H167471   6.275   0.736   6.331 -0.9912  0.4568 -0.5434
15352TIP3    H267472   6.281   0.876   6.389 -0.8288  0.7341 -1.2167
15353TIP3   OH267473   6.373   0.348  16.715 -0.0170 -0.0940 -0.3901
15353TIP3    H167474   6.349   0.316  16.628  0.2713  0.3503 -0.6382
15353TIP3    H267475   6.388   0.442  16.702 -0.7863  0.1352  0.3082
15354TIP3   OH267476   3.187   6.670   4.418 -0.3766 -0.6937 -0.4770
15354TIP3    H167477   3.244   6.741   4.449  0.0887 -1.1892 -0.2006
15354TIP3    H267478   3.177   6.687   4.324  0.3880 -0.7268 -0.5648
15355TIP3   OH267479   1.838   6.623   5.825  0.7400  0.5362  0.5463
15355TIP3    H167480   1.869   6.680   5.754 -1.1328  0.5925 -0.2714
15355TIP3    H267481   1.897   6.548   5.823  0.1998  0.1018 -1.6938
15356TIP3   OH267482   2.051   0.852   6.575 -0.2028 -0.6230  0.1525
15356TIP3    H167483   2.025   0.943   6.558  1.0506 -0.0980  0.8983
15356TIP3    H267484   2.143   0.858   6.598 -0.3472 -1.9794  1.1998
15357TIP3   OH267485   4.515   5.898  10.876  0.0189  0.3325 -0.3536
15357TIP3    H167486   4.507   5.986  10.837  2.5984  1.3729  1.1857
15357TIP3    H267487   4.596   5.902  10.927 -1.1574 -2.1349  1.9558
15358TIP3   OH267488   0.740   2.851  12.315 -0.3071  0.1260  0.0160
15358TIP3    H167489   0.668   2.887  12.264 -0.0641  1.1883  0.3741
15358TIP3    H267490   0.809   2.833  12.251  0.0631  1.6154 -0.0384
15359TIP3   OH267491   2.983   4.015   0.721 -0.7484 -0.1310 -0.3091
15359TIP3    H167492   2.911   4.078   0.719  0.4863  1.3049 -1.5795
15359TIP3    H267493   2.988   3.982   0.632 -0.1849 -0.6320 -0.0974
15360TIP3   OH267494   3.992   1.634  16.965  0.4548  0.2767  0.0215
15360TIP3    H167495   3.912   1.614  17.014  0.1672  0.5250 -0.3411
15360TIP3    H267496   4.048   1.677  17.029  1.2816 -2.0429  0.9616
15361TIP3   OH267497   2.680   1.568   1.541 -0.2715 -0.0918 -0.1754
15361TIP3    H167498   2.764   1.580   1.498  0.4063  0.2080  1.1870
15361TIP3    H267499   2.672   1.642   1.601 -1.3274 -0.3338  0.0111
15362TIP3   OH267500   0.573   1.618  14.424 -0.5615  0.3480  0.1654
15362TIP3    H167501   0.543   1.559  14.493  0.0588  0.3229  0.4238
15362TIP3    H267502   0.494   1.661  14.392 -1.0597 -0.7482 -0.1430
15363TIP3   OH267503   5.223   1.355   4.098 -0.1292 -0.6619  0.2809
15363TIP3    H167504   5.162   1.427   4.117 -1.2503 -1.3832 -0.4776
15363TIP3    H267505   5.189   1.281   4.149  1.3634 -0.5330  1.5333
15364TIP3   OH267506   0.762   5.487   5.493  0.2463 -0.9277 -0.2964
15364TIP3    H167507   0.711   5.552   5.541  0.0033 -1.6137  0.3820
15364TIP3    H267508   0.853   5.515   5.505  0.1208 -0.4684 -0.3801
15365TIP3   OH267509   1.023   4.225   0.415  0.0212  0.1277 -0.0031
15365TIP3    H167510   0.961   4.297   0.425 -1.5072 -1.0869 -0.4581
15365TIP3    H267511   1.054   4.232   0.324  0.5245  0.6974  0.2064
15366TIP3   OH267512   4.184   5.039  15.644  0.0268 -0.5157  0.6862
15366TIP3    H167513   4.186   4.943  15.646  1.1775 -0.5572 -0.6756
15366TIP3    H267514   4.217   5.066  15.729 -0.3198 -1.3190  1.0897
15367TIP3   OH267515   0.800   0.472   6.028  0.3094  0.4550  0.1675
15367TIP3    H167516   0.778   0.513   6.111  2.2777  0.5581  0.6763
15367TIP3    H267517   0.759   0.385   6.032 -2.2570  1.5466 -0.1261
15368TIP3   OH267518   1.082   4.158  12.950 -0.3686  0.2184 -0.4002
15368TIP3    H167519   1.143   4.201  12.890  0.3440 -0.3062 -0.0604
15368TIP3    H267520   1.116   4.069  12.959  0.0549  0.5242  1.4596
15369TIP3   OH267521   3.265   2.508   5.584  0.0457 -0.3108 -0.0758
15369TIP3    H167522   3.301   2.436   5.531  0.8488  0.1959 -0.2529
15369TIP3    H267523   3.190   2.539   5.534  0.9063  0.2806 -1.0522
15370TIP3   OH267524   4.312   1.736   2.172  0.6116 -0.5106  0.0212
15370TIP3    H167525   4.364   1.816   2.182  0.6608 -0.7060  1.6224
15370TIP3    H267526   4.253   1.755   2.099 -0.2405  1.4991  1.1238
15371TIP3   OH267527   0.813   1.959   5.489 -0.2495 -0.2332 -0.0029
15371TIP3    H167528   0.819   2.021   5.416  0.6758  1.4151  1.3793
15371TIP3    H267529   0.856   2.004   5.562  0.2473 -2.4420  1.1609
15372TIP3   OH267530   0.251   0.870   2.064 -0.1452  0.1090 -0.3143
15372TIP3    H167531   0.256   0.925   1.986  1.7612  2.4585  1.3187
15372TIP3    H267532   0.341   0.839   2.077 -0.4967 -0.5056  0.7752
15373TIP3   OH267533   4.703   5.677   3.216 -0.0824  0.3933 -0.0610
15373TIP3    H167534   4.735   5.719   3.296 -2.0412  1.4760  0.2253
15373TIP3    H267535   4.679   5.588   3.243  0.7584  0.2303  0.1668
15374TIP3   OH267536   5.270   5.061  16.353 -0.1409  0.4498  0.6988
15374TIP3    H167537   5.300   5.152  16.351 -0.3008  0.4939  0.2674
15374TIP3    H267538   5.349   5.010  16.334 -0.4798  0.6040 -1.3249
15375TIP3   OH267539   0.918   5.184  13.389 -0.0069 -0.4340 -0.2377
15375TIP3    H167540   0.914   5.093  13.416  0.4617 -0.0818  1.1078
15375TIP3    H267541   0.894   5.183  13.296 -3.2668 -1.5528  0.4762
15376TIP3   OH267542   0.083   6.744   1.079 -0.4886  0.0264  0.1225
15376TIP3    H167543   0.145   6.688   1.126 -0.2402  0.2122  0.0194
15376TIP3    H267544   0.123   6.759   0.994 -0.3990  0.6182  0.2599
15377TIP3   OH267545   2.392   5.338   4.744  0.1444  0.4543 -0.0178
15377TIP3    H167546   2.372   5.325   4.652 -0.5464 -0.9516  0.2970
15377TIP3    H267547   2.481   5.303   4.754  0.0716  0.2499 -0.0813
15378TIP3   OH267548   2.270   2.902   0.115 -0.5091 -0.6496 -0.2969
15378TIP3    H167549   2.190   2.864   0.079 -0.9784  1.6198 -1.7907
15378TIP3    H267550   2.331   2.904   0.041  0.5918 -1.3250  0.5563
15379TIP3   OH267551   2.502   1.958   1.761 -0.1410 -0.1133  0.0802
15379TIP3    H167552   2.460   1.905   1.694 -0.8012 -0.0233  0.4100
15379TIP3    H267553   2.504   2.047   1.725  2.6086 -0.6086 -1.2436
15380TIP3   OH267554   2.699   3.386   1.200  0.3104 -0.1776 -0.4164
15380TIP3    H167555   2.783   3.431   1.208 -0.1828  0.6545  0.2638
15380TIP3    H267556   2.694   3.331   1.279 -1.2470  2.3594  1.4042
15381TIP3   OH267557   1.551   2.730   1.413  0.0270  0.2961 -0.3647
15381TIP3    H167558   1.633   2.755   1.456 -0.0232  1.3609 -0.8486
15381TIP3    H267559   1.499   2.690   1.482  0.6491  0.3385  0.1358
15382TIP3   OH267560   1.234   1.201   2.728 -0.1336  0.2575  0.6420
15382TIP3    H167561   1.301   1.255   2.687  0.4988 -0.9684  0.0065
15382TIP3    H267562   1.155   1.255   2.727  0.9291  1.9283  1.8892
15383TIP3   OH267563   0.622   0.166   6.670 -0.0176  0.4680 -0.7448
15383TIP3    H167564   0.554   0.191   6.607 -0.0161  0.9422 -0.5634
15383TIP3    H267565   0.578   0.170   6.755 -0.2656 -1.0280 -0.7748
15384TIP3   OH267566   2.746   1.780  14.502 -0.0211 -0.1692 -0.2866
15384TIP3    H167567   2.748   1.691  14.535 -1.7045 -0.9893 -2.2059
15384TIP3    H267568   2.653   1.804  14.501  0.3936  1.7119  0.3487
15385TIP3   OH267569   2.948   4.359   2.183 -0.1660 -0.2704 -0.0149
15385TIP3    H167570   2.949   4.274   2.227  0.5611 -0.5521 -0.5544
15385TIP3    H267571   3.027   4.359   2.128 -1.0568  0.0395 -1.3530
15386TIP3   OH267572   0.630   0.368  15.041  0.0210  0.0676 -0.0209
15386TIP3    H167573   0.639   0.289  15.093 -1.0480  0.0046  0.0876
15386TIP3    H267574   0.574   0.343  14.967  1.1400  0.2697 -0.9750
15387TIP3   OH267575   1.886   6.002   1.593 -0.1246  0.3950  0.3988
15387TIP3    H167576   1.980   6.012   1.574 -0.2937  0.4140 -0.5026
15387TIP3    H267577   1.843   6.053   1.525 -0.8942 -2.6486 -1.6253
15388TIP3   OH267578   2.216   2.869  12.986 -0.2140 -0.3624 -0.2730
15388TIP3    H167579   2.290   2.818  13.019 -1.5559 -1.4683  1.1830
15388TIP3    H267580   2.253   2.956  12.968  1.8512 -1.4036 -1.5483
15389TIP3   OH267581   2.489   3.174  16.531  0.1099  0.6799  0.1942
15389TIP3    H167582   2.421   3.241  16.539  1.0696  1.7677 -0.4227
15389TIP3    H267583   2.514   3.176  16.438  0.4558 -0.2414  0.2556
15390TIP3   OH267584   1.108   2.100   4.541 -0.2672 -0.5758 -0.1955
15390TIP3    H167585   1.074   2.154   4.612  2.0461  0.3001  0.3454
15390TIP3    H267586   1.061   2.017   4.549 -1.3685  0.1461  1.1883
15391TIP3   OH267587   0.153   0.023   2.211  0.5978 -0.4582  0.4182
15391TIP3    H167588   0.189   0.082   2.278 -0.3872  0.9327 -0.2333
15391TIP3    H267589   0.159   0.073   2.130 -1.5313 -0.6888  0.0689
15392TIP3   OH267590   1.343   6.472  11.180 -0.2625 -0.0051 -0.5258
15392TIP3    H167591   1.269   6.524  11.209  0.2085 -0.2485  1.2289
15392TIP3    H267592   1.367   6.509  11.095 -0.7696  1.7669  0.0572
15393TIP3   OH267593   1.843   2.327  13.795 -0.0092  0.2342  0.1956
15393TIP3    H167594   1.887   2.396  13.845  0.8911 -0.0026 -0.2627
15393TIP3    H267595   1.793   2.278  13.861  0.9936  0.0625  0.8455
15394TIP3   OH267596   5.453   5.718   0.116  0.0688  0.1549 -0.0838
15394TIP3    H167597   5.440   5.664   0.038 -2.8809  0.2988  0.1976
15394TIP3    H267598   5.470   5.656   0.187  0.1604 -0.1555 -0.3794
15395TIP3   OH267599   6.089   3.761  14.357 -0.0340 -0.3426  0.2780
15395TIP3    H167600   6.050   3.678  14.383 -3.0981  0.4733 -1.3215
15395TIP3    H267601   6.079   3.817  14.434 -0.8406 -0.5307  0.3134
15396TIP3   OH267602   3.009   1.284  12.652 -0.2836  0.2643 -0.1671
15396TIP3    H167603   3.062   1.305  12.576 -0.4705  2.4356  0.2197
15396TIP3    H267604   3.022   1.359  12.711 -2.3286 -0.0053  0.7115
15397TIP3   OH267605   5.372   4.591   3.584  0.1008 -0.2336 -0.3736
15397TIP3    H167606   5.326   4.511   3.607  1.3706 -0.7645  0.4366
15397TIP3    H267607   5.406   4.624   3.668  0.6433  0.4789 -0.8567
15398TIP3   OH267608   0.487   0.745  14.892 -0.1410 -0.2587  0.0487
15398TIP3    H167609   0.548   0.681  14.855  0.3422  0.6755 -0.8118
15398TIP3    H267610   0.405   0.731  14.843 -0.2630 -0.6944  0.3681
15399TIP3   OH267611   4.916   1.477  11.359  0.0748 -0.3780 -0.7103
15399TIP3    H167612   4.831   1.440  11.333 -0.1326  0.2318 -0.9181
15399TIP3    H267613   4.977   1.444  11.293 -0.1350 -0.2406 -0.9764
15400TIP3   OH267614   3.777   0.415  15.523  0.7940 -0.3181 -0.5565
15400TIP3    H167615   3.777   0.362  15.443 -1.2675 -2.9616  1.0261
15400TIP3    H267616   3.788   0.351  15.593  1.3693  1.7894  1.3624
15401TIP3   OH267617   6.527   5.560  15.979  0.9168  0.9672 -0.3027
15401TIP3    H167618   6.601   5.600  16.026  2.6619 -1.3485 -0.9021
15401TIP3    H267619   6.489   5.499  16.042  1.5626 -0.1553 -0.9595
15402TIP3   OH267620   2.664   4.114  14.477  0.4033 -0.1349  0.1277
15402TIP3    H167621   2.633   4.024  14.482  1.9385 -0.7204 -0.2677
15402TIP3    H267622   2.720   4.124  14.554 -0.4270  0.7574  0.6241
15403TIP3   OH267623   1.524   5.982  13.273 -0.1460 -0.0689  0.4929
15403TIP3    H167624   1.562   5.989  13.360 -0.3601 -2.4168  0.8384
15403TIP3    H267625   1.435   6.014  13.283 -0.2335 -0.5157  1.1978
15404TIP3   OH267626   3.394   2.961   3.287 -0.7239  0.1797 -0.0329
15404TIP3    H167627   3.391   2.985   3.379 -0.5606 -0.1488  0.0601
15404TIP3    H267628   3.479   2.917   3.277  0.2409  2.1057 -0.8007
15405TIP3   OH267629   1.518   2.986  14.001  0.4566  0.4048  0.3970
15405TIP3    H167630   1.482   2.913  14.051 -1.5772  0.5091 -0.7955
15405TIP3    H267631   1.540   2.949  13.915 -0.2325  1.0971 -0.0907
15406TIP3   OH267632   5.376   2.349  10.504  0.8120 -0.8765 -0.1055
15406TIP3    H167633   5.414   2.273  10.460  2.6322 -1.3851  2.1456
15406TIP3    H267634   5.308   2.312  10.560  1.4026 -0.8354  0.6608
15407TIP3   OH267635   5.297   3.908   6.485 -0.7166 -0.3909 -0.5712
15407TIP3    H167636   5.310   3.851   6.561 -0.2658 -0.5839 -0.7855
15407TIP3    H267637   5.310   3.850   6.409 -0.8200 -0.1272 -0.7916
15408TIP3   OH267638   2.047   0.136   0.629 -0.3077 -0.5217  0.5787
15408TIP3    H167639   1.984   0.177   0.688  0.1841 -0.2208  0.8974
15408TIP3    H267640   2.132   0.159   0.665  0.0299  0.5254 -0.8120
15409TIP3   OH267641   6.767   6.159  11.910 -0.1369  0.5200  0.4066
15409TIP3    H167642   6.730   6.237  11.952 -0.1615  0.2383  0.9183
15409TIP3    H267643   6.773   6.182  11.817 -0.9578  0.8096  0.4179
15410TIP3   OH267644   1.269   5.089   5.673 -0.1519  0.6076 -0.0459
15410TIP3    H167645   1.212   5.149   5.624 -1.4169 -0.7442 -0.2767
15410TIP3    H267646   1.274   5.011   5.619  1.7419  0.5831  0.1055
15411TIP3   OH267647   1.781   6.528   0.610 -0.1105 -0.4366 -0.0255
15411TIP3    H167648   1.739   6.478   0.680 -1.5083  0.5721 -0.0945
15411TIP3    H267649   1.756   6.619   0.627 -0.2516 -0.1322 -1.6435
15412TIP3   OH267650   0.576   4.766   4.146  0.0568  0.5763  0.1859
15412TIP3    H167651   0.637   4.694   4.128  0.2943  0.6522  0.6655
15412TIP3    H267652   0.546   4.749   4.235  0.2414  1.1622  0.3628
15413TIP3   OH267653   1.124   1.732  11.840  0.3731 -0.0466 -0.2303
15413TIP3    H167654   1.146   1.641  11.860  1.0752 -0.3949 -2.3302
15413TIP3    H267655   1.039   1.728  11.797 -0.1697  0.4576  0.7478
15414TIP3   OH267656   5.212   6.327   2.562  0.1619 -0.0171  0.2578
15414TIP3    H167657   5.244   6.387   2.494 -0.9974 -1.3106 -1.5166
15414TIP3    H267658   5.288   6.273   2.584  0.9030  1.2869  1.0224
15415TIP3   OH267659   1.713   6.044   3.431 -0.2398 -0.5867  0.3107
15415TIP3    H167660   1.654   5.968   3.433 -1.4385  0.3225  2.0582
15415TIP3    H267661   1.763   6.033   3.350 -0.7126 -2.9724  0.2558
15416TIP3   OH267662   1.924   2.658  10.454 -0.3238 -0.1266  0.0155
15416TIP3    H167663   2.001   2.713  10.438 -0.6221  0.6505  1.0984
15416TIP3    H267664   1.954   2.569  10.438  0.7964  0.1680  0.3908
15417TIP3   OH267665   2.029   1.591  11.260  0.1393 -0.3248 -0.2147
15417TIP3    H167666   1.970   1.518  11.242 -1.3004  0.4962  0.9847
15417TIP3    H267667   2.024   1.646  11.182  0.2898 -0.8789 -0.6199
15418TIP3   OH267668   4.744   2.075  12.169  0.2121 -0.5650 -0.3109
15418TIP3    H167669   4.699   2.114  12.244  1.1370 -0.6989  0.3320
15418TIP3    H267670   4.686   2.005  12.140 -0.7487  0.3049 -0.5222
15419TIP3   OH267671   3.585   5.538   4.374 -0.3770  0.3600  0.1914
15419TIP3    H167672   3.619   5.622   4.343 -2.3122  1.9098  1.9945
15419TIP3    H267673   3.490   5.548   4.373 -0.6199 -0.8494  2.9057
15420TIP3   OH267674   4.369   0.177  16.594 -0.5915 -0.7303 -0.4840
15420TIP3    H167675   4.347   0.090  16.628 -1.7237 -0.4583 -0.4799
15420TIP3    H267676   4.359   0.235  16.670  1.6968 -0.7604 -0.0643
15421TIP3   OH267677   3.031   0.570   6.471 -0.2847 -0.4559 -0.7213
15421TIP3    H167678   2.958   0.534   6.521 -1.9576  0.1145 -2.5745
15421TIP3    H267679   3.015   0.664   6.470 -0.3803 -0.4544 -2.3317
15422TIP3   OH267680   2.090   3.388  12.105  0.2026 -0.7406  0.0613
15422TIP3    H167681   2.056   3.314  12.156  1.0441 -0.6930  0.7189
15422TIP3    H267682   2.184   3.371  12.099  0.4600  0.4624  0.5480
15423TIP3   OH267683   0.673   2.740   5.436  0.4097  0.0958  0.7780
15423TIP3    H167684   0.664   2.815   5.378  1.2366  0.1525  0.7171
15423TIP3    H267685   0.636   2.667   5.386  0.7267  0.2266  0.3493
15424TIP3   OH267686   1.806   6.293  15.600  0.7010 -0.3643  0.2202
15424TIP3    H167687   1.803   6.374  15.651  0.4749 -0.9124  1.1057
15424TIP3    H267688   1.779   6.320  15.512 -0.7542  0.2955  0.8211
15425TIP3   OH267689   2.816   0.327   6.195  0.0622 -0.3013 -0.2379
15425TIP3    H167690   2.733   0.303   6.237  1.8486  0.8384  4.6872
15425TIP3    H267691   2.813   0.423   6.189  0.7965 -0.3011 -0.6479
15426TIP3   OH267692   0.124   2.747   0.955  0.5837  0.5813  0.1204
15426TIP3    H167693   0.029   2.752   0.946  0.6481  0.0689 -0.9232
15426TIP3    H267694   0.152   2.839   0.955  0.2110  0.7153 -1.0703
15427TIP3   OH267695   2.679   3.626  16.666  0.2966  0.3408  0.0181
15427TIP3    H167696   2.743   3.557  16.649 -0.7918 -0.5511 -0.5946
15427TIP3    H267697   2.661   3.664  16.580 -1.7667 -1.0626 -0.2475
15428TIP3   OH267698   5.352   0.831   1.460 -0.4008 -0.5502 -0.0104
15428TIP3    H167699   5.292   0.775   1.510 -0.1931  0.3614  1.3140
15428TIP3    H267700   5.323   0.920   1.480  0.4065 -0.1314 -0.6428
15429TIP3   OH267701   4.111   2.597  12.612 -0.3169  0.1112  0.2021
15429TIP3    H167702   4.092   2.551  12.693 -0.0932  1.7184  1.2169
15429TIP3    H267703   4.047   2.564  12.549  0.9493 -2.8339  0.3261
15430TIP3   OH267704   2.250   6.030  16.343  0.8501 -0.1746 -0.6419
15430TIP3    H167705   2.307   6.094  16.387 -0.5283  0.3255  0.4764
15430TIP3    H267706   2.311   5.976  16.292  2.1743  1.2593 -0.6598
15431TIP3   OH267707   2.462   1.269  11.725  0.3956 -0.0832 -0.0363
15431TIP3    H167708   2.372   1.274  11.694 -1.6757  0.6523  5.0183
15431TIP3    H267709   2.480   1.176  11.732 -0.2778 -0.2426 -0.3633
15432TIP3   OH267710   1.166   3.384   0.944 -0.2649  0.6807 -0.5530
15432TIP3    H167711   1.194   3.317   0.882 -1.9600 -0.2373 -0.3828
15432TIP3    H267712   1.085   3.419   0.907 -0.4803  1.2006  0.3803
15433TIP3   OH267713   0.904   5.077  16.113  0.0380  0.0019 -0.2114
15433TIP3    H167714   0.859   5.088  16.196 -0.5905  0.9771 -0.6621
15433TIP3    H267715   0.965   5.150  16.107  0.4142 -0.3202 -0.4050
15434TIP3   OH267716   4.164   3.651   5.789  0.0519 -0.3402 -0.9013
15434TIP3    H167717   4.076   3.674   5.758 -0.4186 -0.0672  0.5672
15434TIP3    H267718   4.220   3.721   5.755 -0.3877 -0.2233 -1.4058
15435TIP3   OH267719   0.228   5.173  14.601  0.1955  0.2250 -0.0325
15435TIP3    H167720   0.215   5.230  14.525  1.1967 -0.1594 -0.5098
15435TIP3    H267721   0.139   5.150  14.629 -0.2102 -0.2012 -1.5398
15436TIP3   OH267722   1.522   5.895   6.080  0.5716 -0.1684  0.2143
15436TIP3    H167723   1.563   5.936   6.004 -1.3719  1.2144 -0.1896
15436TIP3    H267724   1.475   5.820   6.045  2.4573 -1.6312  0.6466
15437TIP3   OH267725   1.337   1.826  12.866  0.3198 -0.0202 -0.6808
15437TIP3    H167726   1.396   1.853  12.936 -0.0036  0.2735 -0.5175
15437TIP3    H267727   1.253   1.813  12.909  0.6337 -2.1547 -0.5854
15438TIP3   OH267728   4.219   0.849   5.888 -0.3456 -0.5317 -0.4084
15438TIP3    H167729   4.164   0.923   5.914 -1.1402 -1.2409 -0.0392
15438TIP3    H267730   4.255   0.875   5.803  2.1822  1.7711  1.1867
15439TIP3   OH267731   6.464   3.594  11.590 -0.3797  0.2903  0.1854
15439TIP3    H167732   6.556   3.618  11.600 -0.9000  3.1411 -0.9359
15439TIP3    H267733   6.416   3.652  11.649 -1.5559 -0.2724 -0.1704
15440TIP3   OH267734   0.795   3.680   0.764  0.0601  0.7186  0.6316
15440TIP3    H167735   0.835   3.762   0.792  0.2850  0.2821  1.6047
15440TIP3    H267736   0.702   3.691   0.781  0.3149  0.0025  2.8144
15441TIP3   OH267737   1.194   3.773  15.178  0.2214 -0.7349  0.4841
15441TIP3    H167738   1.237   3.750  15.096  0.2073 -2.4770  0.9112
15441TIP3    H267739   1.262   3.757  15.245  0.1970  0.5333  0.8296
15442TIP3   OH267740   2.643   0.019   1.955 -0.5099 -0.4411 -0.4915
15442TIP3    H167741   2.591   0.043   2.032  1.2813 -2.5577  1.5593
15442TIP3    H267742   2.685   0.100   1.928  0.3309  0.0801  2.0683
15443TIP3   OH267743   0.079   3.651  13.658  0.1289 -0.2451  0.2943
15443TIP3    H167744   0.052   3.657  13.750 -0.4397  0.5082  0.0823
15443TIP3    H267745   0.065   3.559  13.635  1.0249 -0.6299  1.1800
15444TIP3   OH267746   4.059   6.408  11.563 -0.5544 -0.6084  0.4807
15444TIP3    H167747   3.999   6.357  11.509 -0.1012  0.4352 -1.0831
15444TIP3    H267748   4.013   6.418  11.647 -1.9107 -1.0618 -0.1714
15445TIP3   OH267749   5.699   6.586  13.333  0.2398 -0.1937 -0.2032
15445TIP3    H167750   5.696   6.491  13.350 -1.2250  0.3268  3.1572
15445TIP3    H267751   5.609   6.608  13.309  0.2649  0.5129  0.3216
15446TIP3   OH267752   2.035   2.913  14.879 -0.1521  0.3229 -0.6919
15446TIP3    H167753   2.006   2.822  14.880 -1.1081  0.4367  3.4700
15446TIP3    H267754   2.131   2.908  14.884 -0.2487 -0.5893  1.1236
15447TIP3   OH267755   1.163   3.297  10.741 -0.1184 -0.0405 -0.5276
15447TIP3    H167756   1.229   3.364  10.755  0.0635  0.0276 -1.6534
15447TIP3    H267757   1.208   3.215  10.757  0.3781 -0.0184 -1.6981
15448TIP3   OH267758   6.605   1.521  12.936  0.4857  0.0825 -0.9326
15448TIP3    H167759   6.657   1.489  13.009  0.3595  1.3339 -0.2623
15448TIP3    H267760   6.663   1.515  12.860  1.5638  1.2338 -0.2466
15449TIP3   OH267761   2.290   5.393   0.668  0.3581  0.0628 -0.1040
15449TIP3    H167762   2.291   5.417   0.760 -0.2572  0.2868 -0.1544
15449TIP3    H267763   2.346   5.458   0.625  0.0515  0.3968  0.0037
15450TIP3   OH267764   2.081   3.796  16.838  0.4177  0.1635  0.7177
15450TIP3    H167765   2.138   3.727  16.873 -0.3392 -0.9925 -0.2147
15450TIP3    H267766   2.087   3.786  16.743 -0.2255  0.9634  0.5804
15451TIP3   OH267767   0.933   1.084   3.741 -0.2889  0.1980  0.2706
15451TIP3    H167768   0.960   1.106   3.652  0.1506 -0.1542  0.3178
15451TIP3    H267769   0.890   0.999   3.733 -1.3141  0.7042  0.2102
15452TIP3   OH267770   0.310   0.548   0.600 -0.2291 -0.0700  0.9017
15452TIP3    H167771   0.405   0.541   0.592 -0.3786 -0.2990 -1.1816
15452TIP3    H267772   0.284   0.610   0.532 -1.6189 -0.4117  1.0750
15453TIP3   OH267773   5.197   6.170   4.324  0.5385 -0.1181  0.2303
15453TIP3    H167774   5.134   6.098   4.316  0.7364 -0.1185 -1.7841
15453TIP3    H267775   5.151   6.246   4.288  1.6597 -0.1281 -1.2985
15454TIP3   OH267776   1.353   6.212   2.172  0.0020  0.5459 -0.2367
15454TIP3    H167777   1.292   6.282   2.151 -0.0269  0.3891 -0.6956
15454TIP3    H267778   1.299   6.133   2.178  0.2586  0.2357 -1.5820
15455TIP3   OH267779   4.125   5.527   2.995 -0.2528  0.0610 -0.4501
15455TIP3    H167780   4.113   5.444   3.042 -0.8671  0.0430 -0.6264
15455TIP3    H267781   4.131   5.502   2.903  1.2332  0.0722 -0.3842
15456TIP3   OH267782   3.918   2.897   1.878 -0.3496 -0.0298  0.2069
15456TIP3    H167783   3.950   2.984   1.903 -0.6225  0.3871 -0.8611
15456TIP3    H267784   3.933   2.843   1.956  1.5668  0.5051  0.2794
15457TIP3   OH267785   2.906   0.989  14.322  0.0782 -0.1228  0.2374
15457TIP3    H167786   2.981   1.017  14.375 -0.1738  0.8268  0.1092
15457TIP3    H267787   2.941   0.984  14.233  0.6482 -2.2667  0.5210
15458TIP3   OH267788   4.013   5.733  16.727  0.0499  0.3631  0.0509
15458TIP3    H167789   4.016   5.761  16.819  2.6603  3.2135 -0.7162
15458TIP3    H267790   3.920   5.732  16.706 -0.5280  1.7484  2.1764
15459TIP3   OH267791   1.397   0.364  13.252  0.1350  0.0401 -0.1788
15459TIP3    H167792   1.425   0.397  13.167 -0.2374 -1.8208 -1.0740
15459TIP3    H267793   1.409   0.269  13.247  0.9502 -0.0549  2.1789
15460TIP3   OH267794   5.294   5.250  12.721  0.0241 -0.1529  0.0419
15460TIP3    H167795   5.225   5.275  12.659 -1.1592 -0.0899  1.3414
15460TIP3    H267796   5.289   5.155  12.726  0.4871 -0.2033 -0.3483
15461TIP3   OH267797   2.846   5.277   4.384 -0.4028 -0.0648 -0.6527
15461TIP3    H167798   2.826   5.205   4.443 -0.6778  1.6257  1.4095
15461TIP3    H267799   2.769   5.334   4.387 -0.5128  0.0096 -2.8345
15462TIP3   OH267800   3.124   4.218  12.925 -0.3576  0.4654  0.3005
15462TIP3    H167801   3.169   4.274  12.861 -1.5978 -0.6851 -1.6889
15462TIP3    H267802   3.186   4.146  12.940  0.2436  1.1134  0.9956
15463TIP3   OH267803   5.723   2.930  14.086 -0.2927  0.3917  0.3111
15463TIP3    H167804   5.648   2.876  14.062  1.0602 -1.2045 -0.5734
15463TIP3    H267805   5.741   2.981  14.007 -0.2434  0.5024  0.3952
15464TIP3   OH267806   0.783   3.817  16.000 -0.3939 -0.4853  0.8246
15464TIP3    H167807   0.785   3.726  16.030  1.7865 -0.7081  0.1441
15464TIP3    H267808   0.697   3.827  15.959 -1.1992 -1.8195  2.0768
15465TIP3   OH267809   6.665   3.911   3.947 -0.4475  0.0640  0.7311
15465TIP3    H167810   6.585   3.869   3.978 -0.1057 -1.0000  0.2577
15465TIP3    H267811   6.735   3.864   3.992 -0.0752  0.6105  0.7231
15466TIP3   OH267812   2.310   2.192  12.474 -0.0015 -0.4976 -0.1278
15466TIP3    H167813   2.402   2.191  12.447 -0.1169 -2.3909 -0.6060
15466TIP3    H267814   2.294   2.282  12.502  2.3410 -0.4133  1.2122
15467TIP3   OH267815   0.038   5.101   3.726 -0.4989 -0.3699 -0.2555
15467TIP3    H167816   0.052   5.061   3.812 -0.1155  0.5781  0.1307
15467TIP3    H267817   0.063   5.193   3.738 -1.5027  0.0262 -1.0845
15468TIP3   OH267818   1.875   4.033   1.090  0.0630 -0.0368 -0.1325
15468TIP3    H167819   1.866   4.116   1.044  2.0627  0.1031 -0.3307
15468TIP3    H267820   1.787   3.995   1.086 -0.8225  1.8779 -0.3434
15469TIP3   OH267821   5.754   4.558   4.729  0.0218 -0.0833  0.2342
15469TIP3    H167822   5.749   4.463   4.722 -0.7507 -0.0719  0.5007
15469TIP3    H267823   5.719   4.577   4.816 -1.4995  0.5592 -0.4745
15470TIP3   OH267824   5.704   6.346  14.611 -0.0479  0.1797 -0.3957
15470TIP3    H167825   5.702   6.430  14.656  1.8759 -0.1916  0.4945
15470TIP3    H267826   5.740   6.365  14.524 -1.7501  0.5704 -1.0591
15471TIP3   OH267827   6.666   1.016  16.257  0.1187 -0.0987 -0.1223
15471TIP3    H167828   6.649   1.107  16.229 -0.5062 -0.1784 -0.0243
15471TIP3    H267829   6.746   0.991  16.211  0.3132  0.5149 -0.1266
15472TIP3   OH267830   6.354   4.405  16.814 -0.7182 -0.2664 -0.1969
15472TIP3    H167831   6.432   4.352  16.828  0.3485  1.5258  1.0774
15472TIP3    H267832   6.344   4.410  16.719  0.6896 -0.5616 -0.3753
15473TIP3   OH267833   5.471   0.508   3.486  0.7820 -0.3643 -0.2027
15473TIP3    H167834   5.561   0.539   3.487  1.0345 -1.0674 -0.2379
15473TIP3    H267835   5.464   0.455   3.407  0.6456 -1.1617  0.3231
15474TIP3   OH267836   0.510   5.406  15.997 -0.3020  0.3445  0.2845
15474TIP3    H167837   0.580   5.401  16.063 -1.2524 -0.7558  1.2685
15474TIP3    H267838   0.555   5.397  15.913  0.7373 -0.3223  0.8920
15475TIP3   OH267839   5.611   6.423   4.463  0.2459 -0.0187 -0.3357
15475TIP3    H167840   5.560   6.378   4.396 -0.1740 -0.3033  0.1747
15475TIP3    H267841   5.568   6.508   4.473  0.2183 -0.0357 -0.3125
15476TIP3   OH267842   0.148   1.279  11.476 -1.0259 -0.6598  0.7457
15476TIP3    H167843   0.238   1.309  11.493 -1.6151  0.6022  1.8622
15476TIP3    H267844   0.098   1.310  11.552 -2.5547 -0.6649 -0.2117
15477TIP3   OH267845   5.982   3.097   0.423  0.0130  0.3190 -0.3396
15477TIP3    H167846   5.973   3.007   0.393  0.2615 -0.2424  1.1720
15477TIP3    H267847   6.002   3.090   0.516 -1.4043  1.9591  0.1541
15478TIP3   OH267848   5.736   3.085  12.069 -0.3561  0.3307 -0.4041
15478TIP3    H167849   5.682   3.057  11.995 -1.6130 -2.9340  1.5166
15478TIP3    H267850   5.675   3.097  12.141  1.1372 -0.5878  1.1012
15479TIP3   OH267851   5.119   6.522  13.815 -0.2351 -0.6458 -0.1205
15479TIP3    H167852   5.157   6.502  13.901 -0.1016 -1.6516 -0.4143
15479TIP3    H267853   5.117   6.439  13.769  0.7237  0.0803 -1.5207
15480TIP3   OH267854   0.938   1.643  17.055 -0.0711  0.4005  0.3724
15480TIP3    H167855   0.951   1.630  17.150  0.3638 -2.1795  0.0469
15480TIP3    H267856   0.985   1.569  17.015  0.2821  1.7772 -1.9206
15481TIP3   OH267857   0.395   4.733   1.269 -0.1906  0.1637  0.0609
15481TIP3    H167858   0.303   4.721   1.293  0.0366 -1.6099  0.1550
15481TIP3    H267859   0.430   4.790   1.338 -1.3591  1.4943 -0.3814
15482TIP3   OH267860   0.314   2.338   6.204  0.6682  0.0914  0.2051
15482TIP3    H167861   0.294   2.419   6.251 -0.9111  1.0542 -1.9296
15482TIP3    H267862   0.230   2.312   6.166  1.6670 -1.1583 -1.2307
15483TIP3   OH267863   3.723   1.675  16.675  0.0490  0.2950 -0.3494
15483TIP3    H167864   3.736   1.582  16.696  2.5413 -0.1240 -3.0178
15483TIP3    H267865   3.779   1.721  16.737 -0.1708 -0.0801  0.1376
15484TIP3   OH267866   0.419   3.043  12.941  0.4723  0.2214 -0.4664
15484TIP3    H167867   0.465   3.047  13.026 -0.3352 -0.9369  0.0520
15484TIP3    H267868   0.417   2.950  12.920  0.9016  0.5265 -1.9137
15485TIP3   OH267869   2.400   1.068  13.589  0.0087  0.3442 -0.0077
15485TIP3    H167870   2.322   1.022  13.560  0.3855  0.0726 -0.6118
15485TIP3    H267871   2.368   1.153  13.621 -0.4242  0.6634 -1.2374
15486TIP3   OH267872   5.076   2.444   0.306  0.1378  0.0480  0.5957
15486TIP3    H167873   5.167   2.440   0.276  0.9344  1.5195  2.6446
15486TIP3    H267874   5.064   2.364   0.357 -0.1551 -0.7507 -0.6630
15487TIP3   OH267875   2.481   0.631  13.656 -0.2667  0.3327  0.5629
15487TIP3    H167876   2.473   0.611  13.563 -0.3613  2.0866  0.1707
15487TIP3    H267877   2.496   0.546  13.697  1.0725 -0.3245 -1.1754
15488TIP3   OH267878   0.145   5.480  15.562  0.7460 -0.0035 -0.0736
15488TIP3    H167879   0.080   5.551  15.561 -0.5321 -1.1480 -1.0926
15488TIP3    H267880   0.173   5.472  15.471  0.1453 -1.4300 -0.1570
15489TIP3   OH267881   4.433   3.491   4.525 -0.4805 -0.2107  0.0401
15489TIP3    H167882   4.475   3.474   4.441  0.2696  0.5960  0.2463
15489TIP3    H267883   4.407   3.583   4.521 -1.6587 -0.5194  0.1719
15490TIP3   OH267884   1.130   6.605   4.128  0.2302 -0.7663 -0.6342
15490TIP3    H167885   1.088   6.574   4.208 -0.4017 -0.6783 -0.9289
15490TIP3    H267886   1.129   6.701   4.137  2.9907 -0.7526  0.7001
15491TIP3   OH267887   1.354   5.745  14.064  0.4276 -0.0290 -0.6106
15491TIP3    H167888   1.321   5.771  13.978 -0.5907  0.7390 -0.0199
15491TIP3    H267889   1.285   5.689  14.100  0.6912 -0.0688 -0.1616
15492TIP3   OH267890   1.414   0.756   5.069  0.7865  0.7198  0.2335
15492TIP3    H167891   1.452   0.840   5.045  1.2646  0.3536 -0.3072
15492TIP3    H267892   1.372   0.772   5.153  1.4582  1.3282  0.4619
15493TIP3   OH267893   2.426   4.059  14.210 -0.4058 -0.1434  0.2671
15493TIP3    H167894   2.381   4.076  14.292  1.8004 -0.3211  1.5750
15493TIP3    H267895   2.505   4.012  14.234  1.5971  1.9740 -1.6463
15494TIP3   OH267896   3.623   4.002   6.529 -0.0778 -0.1512  0.0572
15494TIP3    H167897   3.566   4.077   6.543 -1.2012 -1.0190  0.2529
15494TIP3    H267898   3.570   3.926   6.555  1.0044 -1.0184 -0.1926
15495TIP3   OH267899   1.400   5.520  11.516  1.2213  0.0344 -0.4122
15495TIP3    H167900   1.412   5.612  11.538  2.8878 -0.1257 -0.5149
15495TIP3    H267901   1.460   5.473  11.574 -0.5841 -1.1369  0.5984
15496TIP3   OH267902   3.033   2.415   1.037 -0.2161  0.0276 -0.6425
15496TIP3    H167903   3.072   2.330   1.054 -1.5932 -0.5948 -0.4732
15496TIP3    H267904   2.949   2.396   0.996  0.6619  1.3718 -3.2774
15497TIP3   OH267905   5.355   2.882   1.701  0.2380 -0.4964 -0.2498
15497TIP3    H167906   5.412   2.871   1.625  2.4387  1.2178  1.0398
15497TIP3    H267907   5.405   2.846   1.774 -1.3948 -1.1790  0.5730
15498TIP3   OH267908   5.366   2.672  15.553  0.0111  0.0714  0.3224
15498TIP3    H167909   5.361   2.708  15.465  0.3282  0.3310  0.4083
15498TIP3    H267910   5.285   2.622  15.564 -0.2698  0.4773  0.0806
15499TIP3   OH267911   0.105   2.769  10.504  0.7301  0.1197  0.2853
15499TIP3    H167912   0.130   2.687  10.547 -0.2970 -1.2134 -1.5322
15499TIP3    H267913   0.012   2.779  10.522  0.3223 -0.3685 -1.3892
15500TIP3   OH267914   4.954   5.099   1.504  0.5146 -0.2912  0.2771
15500TIP3    H167915   4.959   5.024   1.445 -0.0299 -0.8873  0.9684
15500TIP3    H267916   5.001   5.169   1.458  0.2164 -0.7741 -0.7946
15501TIP3   OH267917   1.367   1.321  11.358 -0.4226 -0.5949  0.0115
15501TIP3    H167918   1.423   1.271  11.298 -0.7361 -0.6356 -0.2527
15501TIP3    H267919   1.309   1.370  11.300  0.1656  0.4204  0.2556
15502TIP3   OH267920   6.547   0.415   4.916 -0.7745  0.5253  0.9659
15502TIP3    H167921   6.609   0.343   4.904 -0.4865  0.8593  0.3938
15502TIP3    H267922   6.491   0.412   4.838  1.4710  3.0753 -0.9787
15503TIP3   OH267923   2.950   3.759   5.674 -0.1100  0.1653  0.0770
15503TIP3    H167924   3.042   3.783   5.678 -0.3329  1.2557 -0.8218
15503TIP3    H267925   2.949   3.675   5.627  0.3892  0.4405 -0.4397
15504TIP3   OH267926   0.047   5.599   4.286 -0.0219 -0.3448 -0.1778
15504TIP3    H167927   0.106   5.648   4.229  1.2500 -1.4570  0.1016
15504TIP3    H267928   0.060   5.637   4.372 -2.3902  1.7363 -0.6325
15505TIP3   OH267929   5.427   6.436  11.838  0.1403 -0.1286  0.2315
15505TIP3    H167930   5.424   6.445  11.933  0.4230  2.3677  0.0694
15505TIP3    H267931   5.451   6.344  11.823  1.8193 -0.1542  2.6060
15506TIP3   OH267932   1.302   3.300  11.245 -0.0237  0.1026 -0.2316
15506TIP3    H167933   1.301   3.395  11.233  1.2924  0.1069 -0.4734
15506TIP3    H267934   1.213   3.278  11.273  0.2864  1.7384  2.4180
15507TIP3   OH267935   4.074   0.318  16.600  0.5410  0.1646  0.1602
15507TIP3    H167936   4.159   0.273  16.594 -0.7006 -2.3405 -0.0691
15507TIP3    H267937   4.059   0.352  16.512  1.1506  0.3166  0.1128
15508TIP3   OH267938   3.112   4.664   2.987 -0.0466 -0.4468 -0.8927
15508TIP3    H167939   3.049   4.721   2.944  0.2494 -0.2340 -1.0474
15508TIP3    H267940   3.078   4.652   3.076  0.5665  1.0506 -0.4296
15509TIP3   OH267941   5.137   4.085  13.409 -0.3618  0.1905 -0.6941
15509TIP3    H167942   5.148   4.053  13.499 -1.4300  0.0420 -0.6011
15509TIP3    H267943   5.121   4.007  13.357 -0.5926  0.3517 -0.8683
15510TIP3   OH267944   4.403   4.106   0.550  0.1530  0.0459  0.0510
15510TIP3    H167945   4.412   4.198   0.523 -1.1019  0.4786  0.9970
15510TIP3    H267946   4.366   4.062   0.473 -3.3264  1.2537  0.8500
15511TIP3   OH267947   6.053   5.528  15.361 -0.3005  0.2317  0.3980
15511TIP3    H167948   5.982   5.515  15.299 -0.5412  1.4236  0.3944
15511TIP3    H267949   6.009   5.547  15.444  0.0210 -0.3989  0.7217
15512TIP3   OH267950   1.607   3.452  11.588  0.1383 -0.2608  0.4947
15512TIP3    H167951   1.555   3.373  11.572 -0.7274  0.4490 -0.2329
15512TIP3    H267952   1.555   3.504  11.648  0.2592  0.2080  0.1949
15513TIP3   OH267953   4.096   6.544   2.703 -0.0254 -0.6155  0.1309
15513TIP3    H167954   4.012   6.511   2.673 -0.2710 -0.3905  0.5636
15513TIP3    H267955   4.092   6.539   2.799  0.4779 -0.6713  0.1537
15514TIP3   OH267956   0.752   3.813  16.778 -0.4462 -0.0792  0.3156
15514TIP3    H167957   0.697   3.772  16.711 -1.1864 -0.0524  0.8877
15514TIP3    H267958   0.703   3.890  16.806  0.5282  0.7260 -0.1212
15515TIP3   OH267959   6.731   4.108   1.122 -0.1544 -0.3309 -0.0708
15515TIP3    H167960   6.739   4.119   1.027 -0.9262 -0.8357 -0.2054
15515TIP3    H267961   6.775   4.025   1.140  4.0221  1.7607  0.6871
15516TIP3   OH267962   3.130   0.511  13.799  0.1826  0.7252  0.2586
15516TIP3    H167963   3.051   0.456  13.807  1.7790 -1.6366  0.6604
15516TIP3    H267964   3.122   0.574  13.870 -1.7618  1.1749 -0.2692
15517TIP3   OH267965   5.285   3.454   3.693  0.2541 -0.9710  0.1593
15517TIP3    H167966   5.225   3.514   3.649  0.8981 -1.2794 -1.1993
15517TIP3    H267967   5.255   3.367   3.666 -1.1515 -1.3764  2.7124
15518TIP3   OH267968   1.080   0.123  11.361 -0.0766  0.2348  0.0174
15518TIP3    H167969   1.132   0.050  11.328 -0.3620 -0.9718  2.0749
15518TIP3    H267970   0.990   0.102  11.334  0.1284  1.1747 -1.5692
15519TIP3   OH267971   4.646   5.472   2.475  0.5522 -0.0287  0.0224
15519TIP3    H167972   4.731   5.440   2.503  2.5140  2.9604 -1.9144
15519TIP3    H267973   4.618   5.531   2.545 -0.7536 -2.0677  1.3325
15520TIP3   OH267974   5.498   1.929  11.687 -0.2185  0.3414  0.0650
15520TIP3    H167975   5.505   1.836  11.706  0.8816  0.7394  1.8236
15520TIP3    H267976   5.420   1.937  11.633 -1.4834 -1.3677  1.5347
15521TIP3   OH267977   3.938   5.913  15.265 -0.1704  0.1740 -0.2683
15521TIP3    H167978   3.901   5.886  15.181  0.3143  1.1207 -0.8043
15521TIP3    H267979   3.990   5.991  15.245 -0.1325  0.4869  0.9258
15522TIP3   OH267980   1.559   4.839   5.678  0.1962 -0.2419 -0.1052
15522TIP3    H167981   1.565   4.744   5.672 -1.8935 -0.5123  1.1424
15522TIP3    H267982   1.556   4.869   5.587  1.7159 -1.2583 -0.5229
15523TIP3   OH267983   1.700   2.614  16.989 -0.2331 -0.0765 -0.1859
15523TIP3    H167984   1.770   2.661  16.945  0.7713 -1.6884 -0.3777
15523TIP3    H267985   1.743   2.568  17.061 -1.4284  0.4149  0.9131
15524TIP3   OH267986   1.972   2.604   0.400 -0.2815  0.0375 -0.1858
15524TIP3    H167987   2.018   2.686   0.418  1.7186 -1.0195 -0.2420
15524TIP3    H267988   2.009   2.573   0.318 -1.4290 -0.6529 -0.4604
15525TIP3   OH267989   1.129   3.383   1.777  0.1508  0.6974 -0.0452
15525TIP3    H167990   1.205   3.327   1.787 -1.3336 -1.4463 -0.0939
15525TIP3    H267991   1.151   3.442   1.705  1.4449 -0.4028 -0.5808
15526TIP3   OH267992   4.472   6.221  17.067  0.1291 -0.4898 -0.4533
15526TIP3    H167993   4.412   6.286  17.104  0.0355 -0.2360 -1.0347
15526TIP3    H267994   4.426   6.138  17.075  0.1215 -0.4418  0.0177
15527TIP3   OH267995   0.553   6.205  12.320 -0.2004  0.2515  0.3903
15527TIP3    H167996   0.548   6.285  12.267  0.6022 -0.1338 -0.2864
15527TIP3    H267997   0.538   6.134  12.258  3.7348 -0.4216 -0.0794
15528TIP3   OH267998   6.573   1.796   3.504  0.3158 -0.3092 -0.0242
15528TIP3    H167999   6.666   1.801   3.480  0.6208  1.7187  1.2993
15528TIP3    H268000   6.565   1.854   3.581 -2.4328  1.3432 -1.4004
15529TIP3   OH268001   2.526   2.749  15.805 -0.3237  0.5076  0.5881
15529TIP3    H168002   2.475   2.815  15.851  0.1444 -0.0486  1.9553
15529TIP3    H268003   2.464   2.677  15.790 -0.2365  0.2800  1.2741
15530TIP3   OH268004   2.309   1.822   3.182 -0.0620  0.6292 -0.6935
15530TIP3    H168005   2.392   1.868   3.189  1.3919 -1.6285 -1.9530
15530TIP3    H268006   2.296   1.810   3.088 -0.6706 -0.9821 -0.4249
15531TIP3   OH268007   2.656   3.462  10.986  1.1182 -0.0272  0.7402
15531TIP3    H168008   2.713   3.386  10.981  1.4433  0.2142  0.7100
15531TIP3    H268009   2.710   3.535  10.953  0.2089 -0.1042 -1.0146
15532TIP3   OH268010   6.372   1.704   4.062  0.3887 -0.3579 -0.6545
15532TIP3    H168011   6.326   1.620   4.068  2.1150 -1.2961  0.3914
15532TIP3    H268012   6.464   1.680   4.054  0.8423  1.4559 -1.3724
15533TIP3   OH268013   2.029   6.424   4.211 -0.3669  0.1198  0.3018
15533TIP3    H168014   1.970   6.481   4.161 -1.6532 -1.4222 -0.0150
15533TIP3    H268015   2.050   6.475   4.289  0.8741  2.1738 -1.2573
15534TIP3   OH268016   2.947   4.481   6.532  0.5544 -0.2556 -0.1048
15534TIP3    H168017   3.043   4.478   6.529  0.5764  0.2866 -0.0136
15534TIP3    H268018   2.923   4.538   6.459  0.2654 -0.9470 -0.5560
15535TIP3   OH268019   1.058   0.639   4.227 -0.0453  0.1357  0.4683
15535TIP3    H168020   1.013   0.607   4.305 -0.2495  1.4898  0.9288
15535TIP3    H268021   1.061   0.563   4.169  0.1668 -0.9224  1.8022
15536TIP3   OH268022   2.727   1.353   3.835  0.6794  0.0343 -0.0225
15536TIP3    H168023   2.773   1.404   3.902 -1.1643  0.1829  1.2147
15536TIP3    H268024   2.712   1.415   3.763 -0.2104  0.8542  0.8391
15537TIP3   OH268025   3.168   0.181   6.571 -0.3743  0.1019 -0.3857
15537TIP3    H168026   3.158   0.086   6.558  0.9602  0.1794 -2.2932
15537TIP3    H268027   3.093   0.219   6.525 -0.4049  0.0184 -0.4052
15538TIP3   OH268028   3.399   2.567  15.615  0.3085  0.5129  0.3374
15538TIP3    H168029   3.478   2.603  15.574  0.2447  0.7661  0.4354
15538TIP3    H268030   3.393   2.478  15.581  0.7170  0.4445  0.4399
15539TIP3   OH268031   5.579   4.521  16.767 -0.4575 -0.4896 -0.1904
15539TIP3    H168032   5.654   4.473  16.801  0.3279  0.9418  0.2040
15539TIP3    H268033   5.566   4.593  16.829 -0.1247  1.1516 -1.9026
15540TIP3   OH268034   1.452   4.066   5.391  0.3662  0.3895  0.3763
15540TIP3    H168035   1.484   3.978   5.369 -0.9561 -0.8888  2.9708
15540TIP3    H268036   1.522   4.104   5.444 -0.3535 -0.5159  2.0657
15541TIP3   OH268037   6.167   1.769  13.821 -0.2610 -0.2846 -0.8338
15541TIP3    H168038   6.108   1.784  13.895 -1.5832 -0.3314 -1.8458
15541TIP3    H268039   6.224   1.846  13.819 -1.1482  0.3889 -0.6249
15542TIP3   OH268040   4.031   2.113   0.408 -0.2244  0.1187 -0.0482
15542TIP3    H168041   4.008   2.130   0.317 -2.7059  1.1595  0.7033
15542TIP3    H268042   4.014   2.196   0.454 -0.0010 -0.6729  1.5479
15543TIP3   OH268043   2.329   6.048   5.770  0.2774  0.2910 -0.2551
15543TIP3    H168044   2.412   6.051   5.817  0.0497  1.8941  0.0994
15543TIP3    H268045   2.272   5.994   5.825  0.6628  0.3227  0.1822
15544TIP3   OH268046   4.871   3.504  12.286  0.6354  0.2523  0.6106
15544TIP3    H168047   4.945   3.532  12.341  1.3747 -0.6110  0.0816
15544TIP3    H268048   4.803   3.478  12.349  1.4980 -0.7883  1.1456
15545TIP3   OH268049   5.932   0.313   2.258  0.1063  0.1033  0.2240
15545TIP3    H168050   5.946   0.315   2.163 -0.7772  0.0939  0.0812
15545TIP3    H268051   5.882   0.392   2.276  1.1883  0.6609  0.8553
15546TIP3   OH268052   0.911   2.746  16.231  0.2048  0.3391  0.1648
15546TIP3    H168053   0.900   2.718  16.322  1.3202  1.3438  0.6388
15546TIP3    H268054   0.900   2.666  16.180  0.5489 -0.4422  1.2637
15547TIP3   OH268055   4.554   3.835  15.217  0.5110 -0.3571 -0.1753
15547TIP3    H168056   4.615   3.764  15.240  0.1192 -0.9117 -0.7938
15547TIP3    H268057   4.576   3.906  15.278  1.3333 -0.7787  0.0445
15548TIP3   OH268058   0.957   6.159  14.851  0.5838  0.7174  0.2800
15548TIP3    H168059   0.908   6.120  14.923 -0.2636  0.7637 -0.2641
15548TIP3    H268060   1.043   6.178  14.888  0.2060  0.6010  1.2348
15549TIP3   OH268061   4.746   1.043   1.597  0.2718  0.8731  0.4817
15549TIP3    H168062   4.656   1.017   1.618  0.3655 -0.1550 -0.3091
15549TIP3    H268063   4.769   1.106   1.665 -1.1795  1.4482  0.4772
15550TIP3   OH268064   3.235   5.185  14.605 -0.1989 -0.0768 -0.8556
15550TIP3    H168065   3.170   5.198  14.536 -0.5314  0.1011 -0.5139
15550TIP3    H268066   3.246   5.272  14.645  0.8673  0.0770 -1.4458
15551TIP3   OH268067   5.561   3.462   0.686 -0.4289  0.4368  0.1685
15551TIP3    H168068   5.564   3.393   0.753  0.4277  1.0254  0.7557
15551TIP3    H268069   5.623   3.528   0.717 -1.0512  1.3613 -0.5147
15552TIP3   OH268070   5.292   4.577  14.162 -0.4199  0.5577 -0.5779
15552TIP3    H168071   5.272   4.610  14.250 -0.4760  0.0074 -0.3786
15552TIP3    H268072   5.314   4.655  14.111  1.0679  0.7540  0.3081
15553TIP3   OH268073   3.622   6.678   6.548  0.3820 -0.1306  0.0593
15553TIP3    H168074   3.547   6.619   6.554  0.6290 -0.4913 -0.3300
15553TIP3    H268075   3.698   6.620   6.552  0.6524  0.2646  0.8586
15554TIP3   OH268076   2.241   3.748   3.998  0.3218  0.0103 -0.4287
15554TIP3    H168077   2.213   3.839   3.991  0.7726  0.0932 -1.2634
15554TIP3    H268078   2.160   3.699   4.012 -0.0623  0.4143 -1.1777
15555TIP3   OH268079   2.786   5.583   2.575 -0.5303  0.2600  0.0278
15555TIP3    H168080   2.728   5.651   2.609  0.1130  0.7330  0.1945
15555TIP3    H268081   2.745   5.501   2.603 -1.5553  0.5467 -0.5565
15556TIP3   OH268082   1.711   6.642   2.123 -0.1823  0.3150 -0.1731
15556TIP3    H168083   1.756   6.679   2.047 -1.5331 -0.8294 -1.5858
15556TIP3    H268084   1.745   6.553   2.130 -1.4492 -0.2323 -0.6546
15557TIP3   OH268085   2.881   5.573   3.694  0.0033  0.6556 -0.5184
15557TIP3    H168086   2.823   5.499   3.711 -0.0716  0.9015  0.3035
15557TIP3    H268087   2.824   5.640   3.657 -0.2097  0.8438  0.1503
15558TIP3   OH268088   3.110   3.048  17.060  0.5961  0.3286 -0.6362
15558TIP3    H168089   3.137   3.026  16.971 -0.0655  0.3804 -0.8540
15558TIP3    H268090   3.042   3.114  17.049 -0.2404 -0.4271 -0.1452
15559TIP3   OH268091   5.995   2.348  14.992  0.3603  0.3603  0.4398
15559TIP3    H168092   5.942   2.276  14.957 -0.6719  1.0504  0.5320
15559TIP3    H268093   6.019   2.320  15.079  2.7987 -1.2998 -0.6750
15560TIP3   OH268094   1.307   1.816   4.085 -0.3812  0.1439  0.8374
15560TIP3    H168095   1.282   1.731   4.123  0.7305 -0.9055 -0.6470
15560TIP3    H268096   1.237   1.835   4.022 -0.7557  0.4701  1.3427
15561TIP3   OH268097   2.925   0.535   0.611 -0.1845  0.6731 -0.3212
15561TIP3    H168098   2.897   0.512   0.522 -0.6600  2.3405 -0.6348
15561TIP3    H268099   2.844   0.559   0.656 -0.2476 -1.9907  1.2195
15562TIP3   OH268100   5.778   2.556   4.754 -0.1917  0.3827 -0.4531
15562TIP3    H168101   5.822   2.629   4.798  0.9626 -0.3523 -0.3196
15562TIP3    H268102   5.728   2.514   4.823  1.7874 -0.8968  0.3023
15563TIP3   OH268103   3.139   5.572  16.492 -0.0294  0.1501 -0.2036
15563TIP3    H168104   3.069   5.583  16.556 -0.4127  0.1891 -0.6225
15563TIP3    H268105   3.163   5.480  16.499 -1.5275 -0.3905 -1.4615
15564TIP3   OH268106   0.076   5.618  11.627  0.0729  0.1252  0.4504
15564TIP3    H168107   0.062   5.531  11.589 -0.3074 -0.0139  0.8980
15564TIP3    H268108   0.167   5.617  11.658 -0.5257 -0.8627  2.3259
15565TIP3   OH268109   3.180   3.189  11.204 -0.1171 -0.3490  0.0057
15565TIP3    H168110   3.171   3.196  11.109 -1.2798 -0.0357  0.1177
15565TIP3    H268111   3.254   3.130  11.217 -0.8825 -1.6179 -1.1100
15566TIP3   OH268112   3.041   1.116  15.124 -0.2284  0.0632 -0.7601
15566TIP3    H168113   3.118   1.119  15.181 -1.4312 -0.6130  1.0173
15566TIP3    H268114   3.027   1.206  15.097 -0.2130  0.6008  0.9084
15567TIP3   OH268115   4.580   5.261   5.735 -0.0503  0.7454  0.0690
15567TIP3    H168116   4.628   5.301   5.663  1.0018  1.5188  1.1661
15567TIP3    H268117   4.513   5.326   5.758 -0.7219  0.2805 -0.5186
15568TIP3   OH268118   2.698   6.755   2.319  0.3145  0.0339 -0.0347
15568TIP3    H168119   2.689   6.673   2.368  1.6382 -1.2946 -1.8780
15568TIP3    H268120   2.791   6.760   2.298  0.5202  2.7227  1.1165
15569TIP3   OH268121   4.961   3.917  17.124 -0.1886  0.6026  0.4229
15569TIP3    H168122   5.008   3.983  17.174  1.3960 -1.0570  1.2207
15569TIP3    H268123   5.030   3.871  17.075 -1.1081 -1.1357  0.7063
15570TIP3   OH268124   4.962   6.612  11.720  0.3215 -0.1772 -0.3369
15570TIP3    H168125   4.886   6.556  11.705 -0.0896  0.3684 -0.3248
15570TIP3    H268126   5.022   6.592  11.648  0.0904 -0.4808 -0.4467
15571TIP3   OH268127   0.022   6.453  14.017 -0.4487 -0.1539 -0.3753
15571TIP3    H168128  -0.035   6.450  14.094  0.4427  0.9520  0.3655
15571TIP3    H268129  -0.033   6.493  13.949 -0.6601  0.6242  0.2382
15572TIP3   OH268130   0.122   5.092  15.298  1.2286 -0.2783 -0.0064
15572TIP3    H168131   0.056   5.131  15.356  0.4317 -0.2636 -0.9061
15572TIP3    H268132   0.159   5.167  15.250  2.3692 -0.2036  0.9228
15573TIP3   OH268133   1.593   1.069  13.731 -0.0351  0.4478 -0.0878
15573TIP3    H168134   1.503   1.039  13.747  0.1759  1.0331  2.5555
15573TIP3    H268135   1.648   0.999  13.765  0.5931 -0.1196 -2.1117
15574TIP3   OH268136   6.062   3.698   0.159 -0.3171  0.0858 -0.5366
15574TIP3    H168137   6.067   3.658   0.246 -2.3973 -0.2670 -0.5262
15574TIP3    H268138   6.104   3.634   0.101 -2.7175 -1.8078 -0.3784
15575TIP3   OH268139   3.802   2.396  11.068 -0.0657  0.0944 -0.5977
15575TIP3    H168140   3.746   2.332  11.022 -0.6775 -0.8651  1.3713
15575TIP3    H268141   3.881   2.347  11.090 -0.5048 -0.0165  0.8515
15576TIP3   OH268142   0.686   5.280  11.161  0.8886 -0.7927  0.6130
15576TIP3    H168143   0.604   5.231  11.161 -0.1914  0.9022 -1.0199
15576TIP3    H268144   0.677   5.344  11.090  1.6185  2.7386  3.3893
15577TIP3   OH268145   5.266   2.379  14.673 -0.2348 -0.6225  0.1115
15577TIP3    H168146   5.341   2.403  14.726 -0.1654  2.8678 -1.2590
15577TIP3    H268147   5.198   2.356  14.736  0.8074  0.1280  1.5614
15578TIP3   OH268148   6.572   3.400  12.303  0.5934  0.7409 -0.1885
15578TIP3    H168149   6.631   3.327  12.318 -0.0341  0.2260 -0.1929
15578TIP3    H268150   6.628   3.478  12.308  0.9980  0.3827  1.4374
15579TIP3   OH268151   0.436   3.355  14.273 -0.1008 -0.3075  0.1145
15579TIP3    H168152   0.352   3.323  14.305  0.2062 -0.3322  0.9153
15579TIP3    H268153   0.418   3.384  14.183 -1.2394  0.7793  0.6559
15580TIP3   OH268154   0.991   3.845  12.983 -0.3284 -0.1758 -0.3883
15580TIP3    H168155   1.031   3.847  12.896 -0.7749  0.8637 -0.5864
15580TIP3    H268156   1.022   3.763  13.022  0.9448 -0.0139 -1.0165
15581TIP3   OH268157   5.330   0.663  13.886 -0.3606 -0.3195  0.0837
15581TIP3    H168158   5.300   0.717  13.813  0.2917 -1.1375 -0.8220
15581TIP3    H268159   5.250   0.633  13.928 -0.9214  4.0327  2.8148
15582TIP3   OH268160   6.109   0.324  13.591 -0.8319 -0.3987  0.1788
15582TIP3    H168161   6.092   0.265  13.517  1.3191  1.3369 -1.8308
15582TIP3    H268162   6.051   0.399  13.576  0.2395  0.3599 -0.2950
15583TIP3   OH268163   2.549   6.549  12.330  0.3168  0.7322  0.8571
15583TIP3    H168164   2.460   6.522  12.355  0.5479 -2.1006 -0.9397
15583TIP3    H268165   2.606   6.485  12.372  1.4065  1.5987  0.7349
15584TIP3   OH268166   4.453   3.937   4.781  0.3743 -0.3217  0.3566
15584TIP3    H168167   4.436   4.028   4.755  0.4311 -0.2432  0.5914
15584TIP3    H268168   4.535   3.914   4.737  2.0906  0.7830  2.7645
15585TIP3   OH268169   2.213   6.667   4.040 -0.6823  0.9298 -0.6003
15585TIP3    H168170   2.188   6.684   3.949 -1.4598 -0.7831 -0.7519
15585TIP3    H268171   2.131   6.640   4.083  0.2313 -1.5934 -0.2769
15586TIP3   OH268172   5.562   2.978  14.357  0.4824  0.1296 -0.8834
15586TIP3    H168173   5.535   2.895  14.396  0.2570  0.3062 -0.6609
15586TIP3    H268174   5.554   2.964  14.262  1.9946 -0.6415 -0.9397
15587TIP3   OH268175   1.639   4.511  14.610  0.4708 -0.0435 -0.4759
15587TIP3    H168176   1.709   4.506  14.676 -0.3295  0.6153  0.4473
15587TIP3    H268177   1.609   4.601  14.614 -0.1084 -0.1931 -1.2205
15588TIP3   OH268178   1.109   6.686  15.690 -0.0511 -0.0206 -0.3411
15588TIP3    H168179   1.179   6.738  15.651  0.8304 -0.3822  0.7075
15588TIP3    H268180   1.034   6.746  15.694  0.2132  0.4000 -1.3726
15589TIP3   OH268181   4.860   3.726   5.166 -0.3639  0.0258  0.4887
15589TIP3    H168182   4.917   3.737   5.089 -2.2200 -0.1861 -0.9702
15589TIP3    H268183   4.852   3.815   5.201  2.8616 -0.2343  2.3350
15590TIP3   OH268184   2.477   0.760   1.880 -0.1152 -0.4872 -0.5796
15590TIP3    H168185   2.455   0.703   1.807 -1.4641 -0.0139 -0.5719
15590TIP3    H268186   2.513   0.838   1.839  0.2254 -0.6921 -0.6736
15591TIP3   OH268187   6.687   3.909   2.411  0.4063  0.3445 -0.0988
15591TIP3    H168188   6.643   3.920   2.495 -1.7678  1.0820 -1.2419
15591TIP3    H268189   6.622   3.867   2.355  2.1780 -1.1745 -1.1306
15592TIP3   OH268190   6.648   6.624   5.038  0.0475  0.1939 -0.3052
15592TIP3    H168191   6.643   6.595   4.947  0.0727  0.1771 -0.3015
15592TIP3    H268192   6.720   6.687   5.039 -1.7514  2.4069 -0.8891
15593TIP3   OH268193   0.980   5.567   5.199 -0.6420  0.2904 -0.1107
15593TIP3    H168194   1.046   5.632   5.176  0.6804 -0.1572  2.1421
15593TIP3    H268195   0.898   5.617   5.203 -0.0224  1.3643 -0.4966
15594TIP3   OH268196   3.637   5.742   0.232  0.1398  0.2703  0.1874
15594TIP3    H168197   3.551   5.710   0.204 -0.1432  0.5404  0.7277
15594TIP3    H268198   3.687   5.662   0.248  0.1743  0.1148 -0.6731
15595TIP3   OH268199   4.107   5.956   2.724 -0.4675 -0.5910 -0.1115
15595TIP3    H168200   4.109   6.026   2.659 -0.9770 -1.2939 -0.9031
15595TIP3    H268201   4.126   6.000   2.807  0.1362  0.3285 -0.7168
15596TIP3   OH268202   5.591   3.594  16.800  0.4000  0.0889 -0.1237
15596TIP3    H168203   5.570   3.508  16.837 -0.8741 -0.6980 -2.4670
15596TIP3    H268204   5.622   3.576  16.711  0.7784  2.0112 -0.4383
15597TIP3   OH268205   5.148   2.671   3.949  0.1299  0.5977  0.1430
15597TIP3    H168206   5.104   2.597   3.990 -0.6339  1.3264  0.6744
15597TIP3    H268207   5.211   2.701   4.015  0.1598  0.6638  0.0842
15598TIP3   OH268208   6.270   5.964  13.093  0.2638 -0.0798 -0.2460
15598TIP3    H168209   6.215   5.889  13.118  0.4530  0.2692  1.3459
15598TIP3    H268210   6.339   5.965  13.159 -0.0034  1.7611  0.0395
15599TIP3   OH268211   0.856   0.450   4.016  0.3146  0.2365 -0.1961
15599TIP3    H168212   0.927   0.386   4.009 -0.4560 -0.6773  0.1354
15599TIP3    H268213   0.876   0.516   3.949  1.4004 -0.0746 -0.1861
15600TIP3   OH268214   2.229   5.423  13.858 -0.0122 -0.7605 -0.0844
15600TIP3    H168215   2.293   5.376  13.806 -0.8675 -2.4639  0.3177
15600TIP3    H268216   2.222   5.373  13.939 -1.1351 -0.0738  0.2756
15601TIP3   OH268217   6.241   6.501  11.495  0.0339  0.4106 -0.6387
15601TIP3    H168218   6.315   6.527  11.441 -0.6511 -0.1559 -1.8761
15601TIP3    H268219   6.164   6.518  11.441 -0.6146 -1.1627 -0.2613
15602TIP3   OH268220   1.197   5.804   2.965  0.1233 -0.6659 -0.5821
15602TIP3    H168221   1.189   5.896   2.939  2.4787 -0.3325 -0.3463
15602TIP3    H268222   1.165   5.801   3.055  1.9460  0.4172  0.1638
15603TIP3   OH268223   1.726   6.805  16.774 -0.3292  0.1750 -0.4433
15603TIP3    H168224   1.676   6.821  16.854 -1.1241  0.9831 -1.0828
15603TIP3    H268225   1.664   6.761  16.716  0.7348 -1.9740 -0.0551
15604TIP3   OH268226   5.355   4.030   0.010  0.4487  0.2416  0.4280
15604TIP3    H168227   5.315   4.091   0.072 -1.4719  0.6414 -1.1267
15604TIP3    H268228   5.318   4.055  -0.075 -3.4402 -5.2423  0.0203
15605TIP3   OH268229   1.322   0.292  14.960 -0.3123 -0.1577  0.6214
15605TIP3    H168230   1.256   0.224  14.974  0.0994 -1.3638 -2.4746
15605TIP3    H268231   1.277   0.358  14.906  0.4380  0.0224  0.2113
15606TIP3   OH268232   6.787   4.380  10.603 -0.0363 -0.6801  0.5402
15606TIP3    H168233   6.726   4.310  10.578  1.7528 -1.8327 -0.8053
15606TIP3    H268234   6.730   4.448  10.639 -1.8680 -2.7710  1.9021
15607TIP3   OH268235   1.121   0.402   2.857  0.4497  0.0351 -0.0611
15607TIP3    H168236   1.214   0.420   2.871  0.0509  1.0510  1.6194
15607TIP3    H268237   1.082   0.488   2.842 -0.1661 -0.4322 -1.2883
15608TIP3   OH268238   1.540   4.090   0.276 -0.3049 -0.0694 -0.0987
15608TIP3    H168239   1.493   4.159   0.229 -0.9875  0.9413  1.9750
15608TIP3    H268240   1.484   4.013   0.267 -1.4541  0.6377  0.7277
15609TIP3   OH268241   5.766   0.504   1.037  0.3181 -0.2891  0.1554
15609TIP3    H168242   5.676   0.477   1.057  0.8497 -0.8196  1.9644
15609TIP3    H268243   5.791   0.451   0.961 -0.7334 -0.4444 -0.1017
15610TIP3   OH268244   6.678   6.764  14.803  0.0143 -0.0157  0.1958
15610TIP3    H168245   6.691   6.710  14.725 -0.4708 -1.2156  0.9108
15610TIP3    H268246   6.761   6.810  14.814  0.8921 -1.5108  0.1966
15611TIP3   OH268247   0.175   4.778   2.455  0.1157 -0.2376 -0.1937
15611TIP3    H168248   0.212   4.709   2.509 -0.2224 -0.1815  0.1097
15611TIP3    H268249   0.080   4.764   2.458  0.1399 -1.2214 -2.0811
15612TIP3   OH268250   3.184   6.729   1.956  0.3201 -0.3619 -0.0100
15612TIP3    H168251   3.159   6.654   1.902 -0.7634  0.4002 -0.5971
15612TIP3    H268252   3.119   6.796   1.935  0.3211  0.2021  1.6957
15613TIP3   OH268253   5.208   1.319  14.140 -0.4557 -0.1708  0.0574
15613TIP3    H168254   5.288   1.311  14.089 -0.1250 -3.1745  0.8779
15613TIP3    H268255   5.137   1.306  14.076 -0.3623  2.2423 -0.6216
15614TIP3   OH268256   1.942   5.983  16.449  0.4478  0.4023 -0.2197
15614TIP3    H168257   2.029   5.995  16.410  0.9579 -1.6574  0.1722
15614TIP3    H268258   1.907   6.072  16.455  2.5239  1.3058 -0.3579
15615TIP3   OH268259   4.154   1.074   5.207 -0.1001 -0.4107  0.1685
15615TIP3    H168260   4.205   1.153   5.226 -1.1688  0.1029  1.0761
15615TIP3    H268261   4.212   1.019   5.155  0.7477  0.8859 -0.3094
15616TIP3   OH268262   0.025   4.300  11.321  0.1757  0.2989 -0.1026
15616TIP3    H168263  -0.017   4.380  11.288  1.4061  0.2274 -1.9770
15616TIP3    H268264   0.117   4.325  11.333  0.2084 -0.3378  1.1400
15617TIP3   OH268265   5.130   3.563   5.106 -0.5118 -0.2883  0.3070
15617TIP3    H168266   5.209   3.519   5.136  0.1768  0.1655 -0.8005
15617TIP3    H268267   5.156   3.610   5.027 -1.1153  2.4260  1.6011
15618TIP3   OH268268   6.102   4.733  15.234  0.0628 -0.0291 -0.3078
15618TIP3    H168269   6.039   4.801  15.212 -1.3571 -1.5229 -1.0224
15618TIP3    H268270   6.124   4.749  15.326  0.0451  1.5851 -0.5664
15619TIP3   OH268271   6.178   6.359   4.217 -0.1004 -0.1704 -0.6048
15619TIP3    H168272   6.113   6.427   4.200  0.0599 -0.3456 -2.1042
15619TIP3    H268273   6.168   6.299   4.143  2.5620  0.4422 -1.5752
15620TIP3   OH268274   4.283   5.998  17.066 -0.1279  0.1638  0.7430
15620TIP3    H168275   4.271   5.924  17.125  0.3643 -3.0802 -2.7819
15620TIP3    H268276   4.196   6.037  17.058 -0.5224 -0.3291  2.3047
15621TIP3   OH268277   3.679   1.614   5.068 -0.0523 -0.0901  0.3603
15621TIP3    H168278   3.654   1.701   5.038 -1.2059 -0.8443 -0.9831
15621TIP3    H268279   3.732   1.630   5.146 -2.4953  1.7403  1.7916
15622TIP3   OH268280   3.075   3.837  14.533  0.0843 -0.6381 -0.3645
15622TIP3    H168281   3.105   3.925  14.556  0.9655 -0.6356 -1.4156
15622TIP3    H268282   3.124   3.816  14.454  0.1264 -2.2157  0.0572
15623TIP3   OH268283   1.373   4.207  15.097 -0.2525  0.1957 -0.0019
15623TIP3    H168284   1.397   4.126  15.143 -0.9521 -0.2801 -0.4490
15623TIP3    H268285   1.450   4.229  15.046 -0.2444 -0.5001 -0.3013
15624TIP3   OH268286   6.090   3.579   0.663 -0.3901 -0.0113  0.3149
15624TIP3    H168287   6.083   3.491   0.698  0.5030  0.3944  1.5921
15624TIP3    H268288   6.164   3.618   0.709 -0.6511  1.3513 -0.3417
15625TIP3   OH268289   1.864   1.225  14.383 -0.4171 -0.0880 -0.1904
15625TIP3    H168290   1.956   1.252  14.375  0.0986 -1.1777  1.5421
15625TIP3    H268291   1.835   1.210  14.293  0.7040  1.5007 -0.8530
15626TIP3   OH268292   1.665   3.845   1.453 -0.1429  0.3317  0.0245
15626TIP3    H168293   1.700   3.814   1.370  0.5878  0.6020  0.2243
15626TIP3    H268294   1.687   3.938   1.454 -0.4376  0.3997  0.3825
15627TIP3   OH268295   0.495   1.884  11.933 -0.3038 -0.3751 -0.0478
15627TIP3    H168296   0.442   1.922  11.863 -1.1645 -0.9969  0.2470
15627TIP3    H268297   0.540   1.810  11.892  1.4682  0.9757 -0.6518
15628TIP3   OH268298   4.736   0.373  10.291  0.0027  0.2382 -0.1153
15628TIP3    H168299   4.642   0.388  10.281  0.0504  0.8702  0.3511
15628TIP3    H268300   4.762   0.427  10.365  0.7961  0.3347 -0.4460
15629TIP3   OH268301   1.929   3.654   1.877  0.5512  0.1336  0.1833
15629TIP3    H168302   1.875   3.598   1.933  0.8117 -1.6512 -1.2612
15629TIP3    H268303   1.869   3.723   1.848 -0.1383 -0.1121  0.9775
15630TIP3   OH268304   0.314   2.708  12.818  0.2450  0.1996 -0.2088
15630TIP3    H168305   0.258   2.660  12.879 -0.3686 -0.0319 -0.9482
15630TIP3    H268306   0.403   2.694  12.851 -0.1174  0.5148  0.9349
15631TIP3   OH268307   0.536   2.868   2.000 -0.2366  0.3326  0.1920
15631TIP3    H168308   0.476   2.869   1.926  0.2467  0.6952 -0.2004
15631TIP3    H268309   0.563   2.959   2.011 -0.1130  0.2431  0.6544
15632TIP3   OH268310   0.494   4.720  11.617  0.4301  0.3811 -0.0946
15632TIP3    H168311   0.402   4.708  11.638  0.5861  1.5980  1.4570
15632TIP3    H268312   0.528   4.777  11.686  3.0408 -2.3049  1.0789
15633TIP3   OH268313   2.127   2.903  14.247 -0.4508  0.2545  0.1064
15633TIP3    H168314   2.122   2.998  14.257 -0.0037  0.2852  0.0870
15633TIP3    H268315   2.221   2.886  14.238 -0.5976 -0.1040 -0.7506
15634TIP3   OH268316   4.887   2.938   2.911 -0.0977 -0.5492 -0.1188
15634TIP3    H168317   4.822   2.868   2.901 -1.9111  1.0010  0.2362
15634TIP3    H268318   4.951   2.921   2.842 -2.3950 -0.5678 -2.3687
15635TIP3   OH268319   2.305   5.318  14.112  0.1952  0.0072  0.1147
15635TIP3    H168320   2.342   5.251  14.169  1.8053 -0.7896 -1.7297
15635TIP3    H268321   2.379   5.349  14.060 -0.5998  2.8924  0.5091
15636TIP3   OH268322   4.649   1.039  16.657  0.0546 -1.0593  0.2492
15636TIP3    H168323   4.694   1.021  16.574  0.5040  1.0637 -0.0327
15636TIP3    H268324   4.716   1.026  16.724  0.8966  1.1332 -0.0912
15637TIP3   OH268325   5.225   1.006  14.089 -0.3525  0.1852  0.1555
15637TIP3    H168326   5.247   1.046  14.173  2.4583  3.0960 -1.7262
15637TIP3    H268327   5.301   0.952  14.068 -1.0529 -0.5663 -0.4955
15638TIP3   OH268328   0.625   4.857   5.648  0.3269 -0.5607 -0.3688
15638TIP3    H168329   0.578   4.938   5.630  2.1124  0.6826  0.3670
15638TIP3    H268330   0.677   4.841   5.570 -0.6322 -1.4840 -0.8454
15639TIP3   OH268331   5.559   1.782   3.298 -0.1241 -0.1542 -0.3868
15639TIP3    H168332   5.557   1.812   3.389  0.3263 -1.6038  0.1281
15639TIP3    H268333   5.621   1.709   3.298 -0.9241 -0.8671 -1.6343
15640TIP3   OH268334   2.978   0.845   2.326  0.4941 -0.7965  0.8461
15640TIP3    H168335   3.002   0.890   2.407 -0.8985  0.9253  0.3700
15640TIP3    H268336   2.926   0.771   2.354 -0.9276  0.4082  1.5424
15641TIP3   OH268337   6.694   4.032  14.553 -0.6488 -0.1002 -0.8395
15641TIP3    H168338   6.673   3.965  14.619 -0.6925 -0.2678 -1.0230
15641TIP3    H268339   6.702   4.113  14.603 -0.0294 -0.3450 -0.5310
15642TIP3   OH268340   1.099   5.152   1.429 -0.1931 -0.6420  0.2229
15642TIP3    H168341   1.026   5.199   1.471 -0.4915  0.0892 -1.0481
15642TIP3    H268342   1.060   5.071   1.397  0.4290 -2.0443  2.8417
15643TIP3   OH268343   1.715   2.916   2.235  0.4101 -0.4132 -0.1169
15643TIP3    H168344   1.696   2.996   2.186  0.2714 -1.6164 -2.1633
15643TIP3    H268345   1.651   2.915   2.306 -1.3123  0.0177 -1.6084
15644TIP3   OH268346   3.285   1.743  10.803  0.1503 -0.1596  0.0197
15644TIP3    H168347   3.299   1.652  10.829  0.4740  0.0679  0.6540
15644TIP3    H268348   3.194   1.761  10.828 -0.0247 -0.4195 -0.4353
15645TIP3   OH268349   6.070   0.787   2.362  0.2525 -0.1330 -0.2445
15645TIP3    H168350   6.037   0.812   2.448 -0.8465 -1.7075 -0.1599
15645TIP3    H268351   6.139   0.850   2.343 -0.7099  1.3564  0.9839
15646TIP3   OH268352   3.488   6.535  11.774 -0.3772  0.3973 -0.3185
15646TIP3    H168353   3.405   6.522  11.820 -0.5783 -1.4566 -1.1181
15646TIP3    H268354   3.544   6.579  11.838 -1.7774  1.1903  0.4236
15647TIP3   OH268355   5.717   1.900   2.832 -0.1479  0.2095 -0.0766
15647TIP3    H168356   5.736   1.935   2.919  1.3584 -1.1203  0.1680
15647TIP3    H268357   5.702   1.977   2.777 -0.6544  1.0784  1.2380
15648TIP3   OH268358   2.703   2.263   3.192  0.7656  0.1533  0.0944
15648TIP3    H168359   2.715   2.220   3.277 -1.0131  0.2688  0.4489
15648TIP3    H268360   2.636   2.210   3.149  0.2235  1.2336 -0.4171
15649TIP3   OH268361   6.763   0.256   4.889  0.1479 -0.4226  0.4029
15649TIP3    H168362   6.791   0.225   4.975 -0.5395 -1.3890  0.2941
15649TIP3    H268363   6.832   0.226   4.829  1.3869  1.5116  0.7716
15650TIP3   OH268364   6.494   2.447  12.617 -0.1796 -0.0827  0.5424
15650TIP3    H168365   6.411   2.437  12.665  0.9054  1.3929  2.9072
15650TIP3    H268366   6.478   2.521  12.558 -0.6495 -0.0250  0.7343
15651TIP3   OH268367   1.161   4.494   5.207  0.0589 -0.0151  0.1777
15651TIP3    H168368   1.172   4.455   5.295 -2.0764  0.2112  0.6008
15651TIP3    H268369   1.130   4.421   5.153  1.3283 -0.1426 -0.4263
15652TIP3   OH268370   0.961   5.589  16.299 -0.0414  0.4429 -0.1827
15652TIP3    H168371   0.940   5.682  16.311 -0.7364  0.1739  0.8643
15652TIP3    H268372   0.953   5.552  16.387  2.4725 -0.1818 -0.1427
15653TIP3   OH268373   2.499   1.029  10.510  0.0061  0.4658 -0.0833
15653TIP3    H168374   2.441   1.032  10.587 -0.7141 -2.6852 -0.3755
15653TIP3    H268375   2.445   0.988  10.442  1.2713  1.3810 -1.6860
15654TIP3   OH268376   4.732   4.004   2.358  0.2496 -0.7390  0.1077
15654TIP3    H168377   4.642   4.033   2.345  0.5331 -0.9642 -3.1867
15654TIP3    H268378   4.731   3.959   2.442 -1.7017  2.8456  2.2643
15655TIP3   OH268379   2.473   2.659   3.566 -0.2054  0.4334  0.1497
15655TIP3    H168380   2.390   2.707   3.572 -0.1054  0.5953  0.2389
15655TIP3    H268381   2.519   2.700   3.493 -0.9608 -0.8296 -1.0921
15656TIP3   OH268382   1.354   4.991  12.689  0.3467  0.2456  0.3061
15656TIP3    H168383   1.353   4.920  12.754  0.4321  0.7357  0.8520
15656TIP3    H268384   1.357   5.071  12.741  2.8828  0.6363 -0.3053
15657TIP3   OH268385   4.129   4.016   6.357 -0.1991 -0.4096  0.0231
15657TIP3    H168386   4.191   3.970   6.415 -1.1772  1.1200  2.4442
15657TIP3    H268387   4.087   4.081   6.414 -1.6529  0.8419 -2.3323
15658TIP3   OH268388   1.290   3.661   4.576 -0.6022 -0.5313  0.6412
15658TIP3    H168389   1.330   3.600   4.638  0.5775 -0.1714  0.2561
15658TIP3    H268390   1.283   3.743   4.625 -0.3435 -0.4430  0.5315
15659TIP3   OH268391   5.119   4.321   6.228  0.2217  0.4249  0.3917
15659TIP3    H168392   5.213   4.329   6.242  0.1665 -0.7803  1.7185
15659TIP3    H268393   5.095   4.397   6.175  2.0203  0.4536 -0.4414
15660TIP3   OH268394   4.191   6.234  16.560  0.0100  0.1311 -0.3422
15660TIP3    H168395   4.242   6.246  16.479 -1.7061  0.7966 -1.3817
15660TIP3    H268396   4.170   6.141  16.561  0.2289  0.0778 -0.5289
15661TIP3   OH268397   3.469   1.156  12.530 -0.5331 -0.2642 -0.3260
15661TIP3    H168398   3.550   1.110  12.552  0.9491  2.5399  0.6030
15661TIP3    H268399   3.478   1.177  12.437  0.4081  0.9688  0.0054
15662TIP3   OH268400   2.853   6.514   6.076 -0.1784 -0.3734  0.1181
15662TIP3    H168401   2.904   6.510   6.157 -0.6699 -2.5524  0.3837
15662TIP3    H268402   2.772   6.559   6.101  0.3076  0.3483  0.4358
15663TIP3   OH268403   0.665   5.979  14.738 -0.0872 -0.2002 -0.9293
15663TIP3    H168404   0.755   5.952  14.751 -0.6610 -1.4304  0.8282
15663TIP3    H268405   0.665   6.073  14.754  0.4993 -0.5552  1.4652
15664TIP3   OH268406   3.372   4.893  13.065  0.0334  0.3925 -0.1584
15664TIP3    H168407   3.305   4.839  13.107  0.4283 -1.7008 -2.0109
15664TIP3    H268408   3.323   4.961  13.020 -0.7945 -0.4411 -0.5507
15665TIP3   OH268409   2.784   4.159  14.729 -0.4838  0.1914  0.0697
15665TIP3    H168410   2.837   4.236  14.749 -2.0321  1.7921 -1.5767
15665TIP3    H268411   2.841   4.085  14.747  2.3389  1.7936 -1.5828
15666TIP3   OH268412   2.773   3.888  12.994  0.3858  0.0231  0.0710
15666TIP3    H168413   2.863   3.913  13.014  0.7404  0.3089 -1.7481
15666TIP3    H268414   2.732   3.969  12.962 -0.0880 -0.4324 -0.5000
15667TIP3   OH268415   1.716   6.100  15.142 -0.2031  0.1381  0.5729
15667TIP3    H168416   1.745   6.065  15.226  2.3751 -0.1514 -0.3468
15667TIP3    H268417   1.629   6.063  15.129 -0.4817 -0.1540  2.8858
15668TIP3   OH268418   1.360   4.203   0.791  0.3907 -0.2462 -0.5277
15668TIP3    H168419   1.403   4.135   0.739  0.9257 -2.0312  1.9997
15668TIP3    H268420   1.430   4.236   0.849 -0.6928 -0.2303  0.8187
15669TIP3   OH268421   1.437   4.294   1.899  0.1142 -0.0985  0.3340
15669TIP3    H168422   1.356   4.269   1.943  0.8428 -0.5857  1.4438
15669TIP3    H268423   1.461   4.217   1.847 -0.3368  0.1999 -0.3410
15670TIP3   OH268424   2.332   5.196   5.901 -0.5108  0.1656  0.3113
15670TIP3    H168425   2.409   5.190   5.844 -0.2761  1.6001  0.4233
15670TIP3    H268426   2.265   5.236   5.846 -1.0499 -0.6566  0.3551
15671TIP3   OH268427   2.599   5.509  12.380  0.3390  0.1688  0.8580
15671TIP3    H168428   2.517   5.498  12.332  0.6705  2.6709 -0.4083
15671TIP3    H268429   2.571   5.525  12.471 -0.4374 -1.1769  0.8862
15672TIP3   OH268430   2.365   2.430  13.897 -0.2283 -0.3644 -0.1179
15672TIP3    H168431   2.346   2.516  13.935  0.7799  0.2464 -0.9573
15672TIP3    H268432   2.281   2.383  13.901 -0.9092  0.8181 -0.0943
15673TIP3   OH268433   1.721   2.972  12.451 -0.7276  0.1597 -0.3226
15673TIP3    H168434   1.765   3.015  12.524  0.6878 -0.3051 -0.8596
15673TIP3    H268435   1.727   3.035  12.379 -2.0738  0.5992 -0.0808
15674TIP3   OH268436   2.534   3.512  15.770  0.3553 -0.0837  0.4622
15674TIP3    H168437   2.512   3.605  15.763  0.6476 -0.1067 -1.2351
15674TIP3    H268438   2.606   3.499  15.708 -0.6904 -1.7301 -0.5006
15675TIP3   OH268439   6.629   2.033   2.481  0.1227 -0.5334 -0.4110
15675TIP3    H168440   6.630   1.939   2.501  3.8963 -0.6103 -0.2523
15675TIP3    H268441   6.592   2.073   2.559 -1.8453 -1.8440 -0.5963
15676TIP3   OH268442   0.903   0.051  15.360  0.5366 -0.4699  0.3076
15676TIP3    H168443   0.861  -0.012  15.302 -0.2916 -0.0565  0.4396
15676TIP3    H268444   0.960   0.103  15.303 -0.2772 -0.0600 -0.1416
15677TIP3   OH268445   5.793   4.146   5.336  0.0905  0.6826 -0.0768
15677TIP3    H168446   5.778   4.149   5.242  0.1633  0.5339 -0.0938
15677TIP3    H268447   5.874   4.096   5.346  0.4396  1.2533  0.0273
15678TIP3   OH268448   4.964   4.952  12.157  0.4663 -0.8071  0.1768
15678TIP3    H168449   4.882   4.987  12.193  1.4349 -0.4856  2.2344
15678TIP3    H268450   4.941   4.865  12.125 -0.7853 -0.5206  0.2420
15679TIP3   OH268451   0.344   2.606   0.838 -0.2846  0.4335 -0.7205
15679TIP3    H168452   0.278   2.634   0.902  1.0884  0.0729  0.9491
15679TIP3    H268453   0.334   2.511   0.833  0.9838  0.1831  0.6648
15680TIP3   OH268454   4.803   3.079  14.790  0.2514  0.1619  0.1937
15680TIP3    H168455   4.728   3.020  14.792  1.3060 -1.2598 -0.3973
15680TIP3    H268456   4.856   3.053  14.866  2.0087 -1.5066 -1.4893
15681TIP3   OH268457   1.234   0.003   2.082 -0.0680 -0.1114 -0.5347
15681TIP3    H168458   1.167  -0.012   2.149 -0.5760 -1.2821 -1.2658
15681TIP3    H268459   1.288   0.073   2.117 -0.0127 -1.0395  1.3449
15682TIP3   OH268460   4.363   4.391   0.202 -0.0394 -0.3365  0.0860
15682TIP3    H168461   4.435   4.332   0.181  1.6413  1.8193 -0.4851
15682TIP3    H268462   4.288   4.355   0.154  1.0201 -1.7053 -0.6177
15683TIP3   OH268463   6.463   3.929  13.657 -0.3021  0.2966  0.1792
15683TIP3    H168464   6.434   3.994  13.721 -3.4171  0.2071 -1.0034
15683TIP3    H268465   6.383   3.881  13.633  1.4271 -2.2790 -0.9074
15684TIP3   OH268466   6.133   2.061  13.027 -1.0519 -0.4247 -0.0718
15684TIP3    H168467   6.101   2.138  12.981 -0.5331  0.3250  0.7807
15684TIP3    H268468   6.150   1.997  12.958 -0.0012  0.7681 -0.9649
15685TIP3   OH268469   3.544   0.281   4.977  0.3996 -0.3991  0.4567
15685TIP3    H168470   3.512   0.193   4.999  0.1947 -0.1224  1.3174
15685TIP3    H268471   3.616   0.266   4.916  1.1245 -1.2506  1.4727
15686TIP3   OH268472   1.823   6.791   4.963 -0.8049  0.3882  0.2861
15686TIP3    H168473   1.767   6.794   5.040  0.6930  0.3674  1.4299
15686TIP3    H268474   1.903   6.748   4.993 -0.9987 -1.6315 -1.8561
15687TIP3   OH268475   6.129   0.309   5.558  0.1411 -0.1276  0.2738
15687TIP3    H168476   6.184   0.381   5.590 -0.5595  1.4893 -1.9266
15687TIP3    H268477   6.182   0.230   5.573  2.1301  1.1292  0.2465
15688TIP3   OH268478   5.873   1.792  11.663 -0.6271 -0.0879  0.5638
15688TIP3    H168479   5.882   1.747  11.580  0.6885 -1.4572  1.3901
15688TIP3    H268480   5.832   1.875  11.641 -1.2867 -0.8515 -1.2886
15689TIP3   OH268481   4.324   1.151   5.917 -0.5224  0.1440 -0.3376
15689TIP3    H168482   4.276   1.234   5.922  0.2606  0.6981 -1.5120
15689TIP3    H268483   4.258   1.084   5.936 -2.2449  0.7404 -3.4837
15690TIP3   OH268484   3.442   4.991  11.837 -0.2807  0.0495  0.8006
15690TIP3    H168485   3.477   5.065  11.787 -0.8694 -0.1141  0.1255
15690TIP3    H268486   3.449   5.018  11.929 -0.5317  0.9626  0.5582
15691TIP3   OH268487   6.554   0.107   0.625  0.3824  0.0620 -0.5168
15691TIP3    H168488   6.592   0.115   0.537 -1.0438 -1.3867 -1.3236
15691TIP3    H268489   6.461   0.125   0.612  0.1112 -0.4095  0.6564
15692TIP3   OH268490   4.036   2.841   5.013 -0.2820  0.6636  0.2604
15692TIP3    H168491   4.118   2.803   5.044 -0.8267 -0.1210  0.7857
15692TIP3    H268492   3.969   2.780   5.043 -0.9949  0.8804 -0.8577
15693TIP3   OH268493   2.826   0.478   2.696  0.2553  0.3010  0.0441
15693TIP3    H168494   2.893   0.486   2.764  0.6233  0.6902 -0.3617
15693TIP3    H268495   2.862   0.414   2.635 -0.1102 -0.1076  0.2408
15694TIP3   OH268496   4.799   2.112   5.258 -0.1341 -0.2242  0.2062
15694TIP3    H168497   4.762   2.114   5.346 -1.3118 -0.9231 -0.2360
15694TIP3    H268498   4.816   2.019   5.241  0.0487 -0.1015 -0.3082
15695TIP3   OH268499   4.804   5.922  16.279  0.3613 -0.2282  0.2568
15695TIP3    H168500   4.868   5.981  16.238 -0.1228  1.7074  2.1560
15695TIP3    H268501   4.720   5.967  16.270 -0.9615 -2.8678 -2.4662
15696TIP3   OH268502   2.491   5.616   5.928 -0.0237  0.5492  0.1751
15696TIP3    H168503   2.582   5.632   5.902 -0.2375  1.1322 -0.2456
15696TIP3    H268504   2.488   5.523   5.949  0.4718  0.3274 -0.6643
15697TIP3   OH268505   1.503   6.537  14.281  0.2438 -0.0072 -0.0192
15697TIP3    H168506   1.446   6.529  14.204 -0.4460  0.9422  0.3724
15697TIP3    H268507   1.592   6.528  14.246 -0.0490  0.6198 -0.9734
15698TIP3   OH268508   3.020   4.763   6.636  0.4773  0.3298 -0.3459
15698TIP3    H168509   3.058   4.678   6.656  0.0805  0.8582  3.4207
15698TIP3    H268510   2.928   4.744   6.617  0.3171 -0.1102  0.7792
15699TIP3   OH268511   1.739   2.686  13.941 -0.5787 -0.2693  0.1551
15699TIP3    H168512   1.770   2.777  13.945 -1.8638  0.2490  4.4252
15699TIP3    H268513   1.817   2.633  13.955 -0.0817  0.3082 -0.4041
15700TIP3   OH268514   3.339   0.777  16.318  0.0195 -0.2105  0.3354
15700TIP3    H168515   3.431   0.759  16.296 -1.0699 -2.2781 -3.4899
15700TIP3    H268516   3.310   0.700  16.366 -0.1317 -0.3895 -0.0379
15701TIP3   OH268517   3.173   6.274  13.480 -0.8476  0.3762  0.3572
15701TIP3    H168518   3.267   6.285  13.493 -0.4011 -2.4511  0.1571
15701TIP3    H268519   3.134   6.294  13.565  0.2039 -0.6274  1.1035
15702TIP3   OH268520   4.606   0.502   1.414 -0.8481  0.0827 -0.2198
15702TIP3    H168521   4.700   0.515   1.406 -0.5859 -2.2661 -2.0595
15702TIP3    H268522   4.568   0.588   1.398  0.9195  0.6474 -1.6659
15703TIP3   OH268523   2.633   6.369  15.953 -0.4110 -0.2081  0.5056
15703TIP3    H168524   2.679   6.331  15.878  0.7278 -0.8784  1.5134
15703TIP3    H268525   2.572   6.431  15.914  0.4413 -0.2372 -0.9566
15704TIP3   OH268526   0.496   0.831   4.796  0.5810  0.0491  0.6742
15704TIP3    H168527   0.500   0.915   4.842 -0.4327 -1.0700  3.0223
15704TIP3    H268528   0.404   0.805   4.802  0.6404 -0.7100 -1.0626
15705TIP3   OH268529   1.674   4.711   2.956  0.1707  0.0303  1.0547
15705TIP3    H168530   1.699   4.634   3.006  0.9444 -0.2637  0.2359
15705TIP3    H268531   1.734   4.712   2.881  0.5280  1.7143  1.3212
15706TIP3   OH268532   3.327   6.509   0.358  0.2281  0.7010  0.0758
15706TIP3    H168533   3.357   6.575   0.296  0.5042  0.7806  0.2908
15706TIP3    H268534   3.235   6.495   0.335  0.6982 -0.3596 -1.3119
15707TIP3   OH268535   6.295   1.692   5.898  0.5303 -0.0812  0.7777
15707TIP3    H168536   6.283   1.618   5.838 -1.4889  0.6409  0.1725
15707TIP3    H268537   6.310   1.652   5.983 -1.8289 -1.2726  0.7180
15708TIP3   OH268538   5.847   3.567  15.620  0.0799  0.0008 -0.6102
15708TIP3    H168539   5.801   3.651  15.623  0.1566  0.0192  0.8274
15708TIP3    H268540   5.786   3.505  15.659 -1.8109 -1.6462 -5.3877
15709TIP3   OH268541   1.395   3.882   4.824  0.1016 -0.1930 -0.0386
15709TIP3    H168542   1.311   3.928   4.822 -0.7841 -1.7175  0.0289
15709TIP3    H268543   1.425   3.889   4.914  0.4909  1.0903 -0.2536
15710TIP3   OH268544   0.350   0.791  14.022 -0.1117 -0.1408  0.1500
15710TIP3    H168545   0.417   0.849  14.058 -0.1833 -0.2236  0.4163
15710TIP3    H268546   0.276   0.849  14.004  0.0139 -0.0571 -0.1000
15711TIP3   OH268547   0.688   4.346  14.046  0.1284  0.2551 -0.4336
15711TIP3    H168548   0.722   4.317  13.962 -1.5717  0.3304 -1.1977
15711TIP3    H268549   0.688   4.441  14.040  1.0307  0.2969  0.1005
15712TIP3   OH268550   0.246   3.718   5.123 -0.3405  0.0251  0.5755
15712TIP3    H168551   0.245   3.707   5.218  1.0477 -0.9322  0.5040
15712TIP3    H268552   0.185   3.651   5.091  0.2377 -0.5707  0.7170
15713TIP3   OH268553   4.955   1.636  14.853  0.0921 -0.0761  0.1150
15713TIP3    H168554   4.961   1.620  14.947 -0.3809 -0.4063  0.0966
15713TIP3    H268555   4.862   1.653  14.838  0.2383  0.4266 -0.2221
15714TIP3   OH268556   3.471   2.357  12.110  0.2088 -0.4854 -0.0812
15714TIP3    H168557   3.555   2.343  12.154 -0.2119  0.8367  1.2400
15714TIP3    H268558   3.425   2.419  12.167 -2.1869 -2.1361 -0.1051
15715TIP3   OH268559   4.060   5.437   2.239  0.3516  0.0140  0.0129
15715TIP3    H168560   4.150   5.427   2.210  0.9321  2.5410  0.7021
15715TIP3    H268561   4.067   5.470   2.329 -1.2953 -0.4308  0.3527
15716TIP3   OH268562   4.014   0.248   5.172 -0.2859 -0.2401  0.0120
15716TIP3    H168563   3.966   0.169   5.198 -0.6949 -0.0053 -0.0268
15716TIP3    H268564   4.072   0.266   5.245 -0.1637 -0.5992  0.0060
15717TIP3   OH268565   0.340   4.450   0.692  0.5540 -0.5840  0.0865
15717TIP3    H168566   0.321   4.470   0.601 -0.5751 -0.6202  0.2978
15717TIP3    H268567   0.359   4.357   0.693  1.4415 -0.4094 -0.2394
15718TIP3   OH268568   3.023   0.747  11.551 -0.2272 -0.0979 -0.2887
15718TIP3    H168569   3.079   0.731  11.627  0.7476 -1.1323 -1.1728
15718TIP3    H268570   3.030   0.667  11.499 -2.7584 -0.3715 -0.3360
15719TIP3   OH268571   6.406   6.431   0.582  0.1841 -0.6449 -0.5039
15719TIP3    H168572   6.468   6.363   0.608  1.5405  0.5083 -0.6308
15719TIP3    H268573   6.439   6.512   0.621 -0.2500  0.3146 -2.0252
15720TIP3   OH268574   5.755   2.726  12.885  0.2289  0.3004 -0.3963
15720TIP3    H168575   5.678   2.759  12.932 -1.0245 -1.2341 -1.2882
15720TIP3    H268576   5.796   2.804  12.849  0.5494  1.4156  2.1596
15721TIP3   OH268577   3.463   0.218  16.153  0.3281  0.5384  0.2882
15721TIP3    H168578   3.547   0.198  16.195  1.1946  1.0021 -1.1480
15721TIP3    H268579   3.459   0.159  16.078 -1.1168 -0.1705  0.8862
15722TIP3   OH268580   3.496   5.323   5.290 -0.4229  0.3207  0.4344
15722TIP3    H168581   3.500   5.267   5.367  0.5843 -1.2962 -0.7228
15722TIP3    H268582   3.404   5.319   5.263 -0.2746 -1.3225  0.0395
15723TIP3   OH268583   5.247   6.198  13.104 -0.4266  0.0010 -0.3228
15723TIP3    H168584   5.181   6.262  13.077 -1.0281 -0.8929 -1.0872
15723TIP3    H268585   5.203   6.113  13.092  0.9871 -0.6424 -1.2178
15724TIP3   OH268586   4.526   3.433   4.269  0.4913  0.5482 -0.0382
15724TIP3    H168587   4.503   3.368   4.203  2.1906 -0.2832  0.1331
15724TIP3    H268588   4.534   3.515   4.220 -0.7099  0.4672 -0.4145
15725TIP3   OH268589   2.109   0.196  16.832  0.3751 -0.0291  0.4299
15725TIP3    H168590   2.162   0.127  16.873 -0.3831 -0.3023  0.9643
15725TIP3    H268591   2.153   0.278  16.858  1.4095 -0.3077 -0.3980
15726TIP3   OH268592   0.819   0.985  12.085 -0.2779 -0.1912  0.5927
15726TIP3    H168593   0.834   0.988  12.179  0.3950  2.2205  0.4676
15726TIP3    H268594   0.730   1.020  12.074  0.2043  1.0044  0.2786
15727TIP3   OH268595   0.972   6.085  12.388 -0.3577  0.7429  0.4452
15727TIP3    H168596   1.021   6.130  12.320  0.8857 -1.1142  0.0452
15727TIP3    H268597   1.024   6.007  12.409 -2.5122 -0.6873  0.8969
15728TIP3   OH268598   1.704   6.037  16.294  0.3509  0.0250  0.1881
15728TIP3    H168599   1.644   6.086  16.239  0.7061  0.0685 -0.1675
15728TIP3    H268600   1.791   6.061  16.262  0.5189 -1.3984 -0.4886
15729TIP3   OH268601   6.000   4.422   4.390  0.3709 -0.1536 -0.2641
15729TIP3    H168602   6.095   4.409   4.381  0.4131  0.4898 -0.8285
15729TIP3    H268603   5.991   4.508   4.431  0.0497 -0.8733  1.2076
15730TIP3   OH268604   0.135   6.508  13.222  0.5478 -0.4517  0.0048
15730TIP3    H168605   0.192   6.576  13.186  1.8774 -1.1240  0.7856
15730TIP3    H268606   0.140   6.521  13.317 -2.1559  0.6898  0.0806
15731TIP3   OH268607   2.854   0.328   4.998 -0.2475 -0.1343 -0.0417
15731TIP3    H168608   2.809   0.254   5.037  0.9421 -0.4282  0.8395
15731TIP3    H268609   2.943   0.297   4.984  0.3535  1.1939  0.6108
15732TIP3   OH268610   0.741   5.033  15.909  0.3566  0.7409  0.1996
15732TIP3    H168611   0.816   5.065  15.960  2.0831 -0.1099 -1.6588
15732TIP3    H268612   0.757   4.939  15.898 -1.8308  0.2087  1.0488
15733TIP3   OH268613   1.971   5.118  15.716 -0.0727 -0.5769  0.0130
15733TIP3    H168614   1.994   5.209  15.698  0.5183 -0.3909  1.5305
15733TIP3    H268615   1.893   5.123  15.771  0.1288 -0.9827  0.3387
15734TIP3   OH268616   6.611   3.933  16.912  0.4134 -0.1508 -0.1108
15734TIP3    H168617   6.547   3.862  16.920  1.4991 -1.4083 -1.8263
15734TIP3    H268618   6.558   4.010  16.889 -0.7062 -0.5260  1.0525
15735TIP3   OH268619   1.066   0.592  12.852  0.2736  0.2824  0.1133
15735TIP3    H168620   1.127   0.570  12.782  1.0472  0.0980  0.8435
15735TIP3    H268621   1.032   0.678  12.827  0.6698  0.2967 -0.3985
15736TIP3   OH268622   6.728   4.141  15.899  0.1126  0.5371 -0.5354
15736TIP3    H168623   6.818   4.124  15.924  0.0814  0.6528 -0.3416
15736TIP3    H268624   6.680   4.146  15.982  0.0664  1.2331 -0.5986
15737TIP3   OH268625   6.468   2.881   3.275 -0.5178 -0.8815 -0.4185
15737TIP3    H168626   6.560   2.858   3.281 -0.1332  0.5929 -0.1365
15737TIP3    H268627   6.436   2.879   3.366 -0.4292 -0.2042 -0.3632
15738TIP3   OH268628   1.141   0.374  16.822  0.2525  0.4830  0.4907
15738TIP3    H168629   1.128   0.283  16.793  1.4295  0.1079  1.0644
15738TIP3    H268630   1.107   0.375  16.912 -0.0267  0.6947  0.3845
15739TIP3   OH268631   5.965   2.883  13.759 -0.0482  0.0285  0.5282
15739TIP3    H168632   5.908   2.936  13.702 -0.5473 -0.1314  0.8713
15739TIP3    H268633   5.920   2.799  13.765  0.1001 -0.0155  1.0061
15740TIP3   OH268634   2.804   6.698   5.209 -0.5100 -0.0013  0.0465
15740TIP3    H168635   2.802   6.657   5.122 -3.6597  2.1730 -1.1101
15740TIP3    H268636   2.740   6.649   5.260 -1.0042  0.6611  0.0784
15741TIP3   OH268637   1.223   0.373   6.651  0.1430 -0.2943  0.5861
15741TIP3    H168638   1.303   0.357   6.701 -0.2673 -2.1219  0.7215
15741TIP3    H268639   1.168   0.424   6.710  1.5564  1.8932  0.1154
15742TIP3   OH268640   4.600   4.230   2.843  0.0068  0.2824  0.3400
15742TIP3    H168641   4.591   4.249   2.750 -0.0405 -0.3726  0.2050
15742TIP3    H268642   4.689   4.257   2.864  0.9453 -1.8999 -0.5053
15743TIP3   OH268643   4.559   4.562   5.839 -0.1187 -0.5118  0.2772
15743TIP3    H168644   4.575   4.635   5.779  2.3853 -0.4318  0.9028
15743TIP3    H268645   4.571   4.600   5.926  0.3517 -1.4756  0.6468
15744TIP3   OH268646   2.762   3.579   5.134  0.4804 -0.6029 -0.3219
15744TIP3    H168647   2.756   3.649   5.069 -0.0914 -0.5288 -0.1901
15744TIP3    H268648   2.708   3.609   5.207  0.3923 -1.0925 -0.1817
15745TIP3   OH268649   4.394   6.519  11.719  0.2197  0.1709 -0.2621
15745TIP3    H168650   4.356   6.449  11.665  0.7855  0.2808 -0.8142
15745TIP3    H268651   4.343   6.597  11.696  1.2552  0.4938 -1.5992
15746TIP3   OH268652   0.865   0.442  14.923  0.2583  0.1354 -0.1863
15746TIP3    H168653   0.812   0.419  15.000  1.2270  1.2804  0.8707
15746TIP3    H268654   0.835   0.383  14.855 -1.9134  0.3044  0.5483
15747TIP3   OH268655   1.494   5.487   2.166 -0.0581 -0.1498  0.2415
15747TIP3    H168656   1.497   5.409   2.110  1.2275  0.3999 -0.4915
15747TIP3    H268657   1.584   5.520   2.166 -0.4340  0.9286  1.1431
15748TIP3   OH268658   6.665   0.555   0.045  0.4209  0.1423 -0.1575
15748TIP3    H168659   6.585   0.566  -0.006  0.7177 -0.5041 -0.7700
15748TIP3    H268660   6.687   0.643   0.075 -0.0648  0.4411 -0.6754
15749TIP3   OH268661   0.023   1.924   1.194 -0.0830 -0.0223 -0.8119
15749TIP3    H168662  -0.046   1.872   1.234 -0.4473  0.3766 -0.9105
15749TIP3    H268663   0.091   1.861   1.170 -0.7413 -0.5171 -1.4120
15750TIP3   OH268664   6.482   1.683  11.601 -0.1720  0.6644  0.5539
15750TIP3    H168665   6.484   1.588  11.595 -0.2891  0.7164 -0.4892
15750TIP3    H268666   6.400   1.703  11.646 -2.1268  0.3878 -2.6449
15751TIP3   OH268667   6.073   5.126   3.914 -0.4210 -0.1209  0.0963
15751TIP3    H168668   6.167   5.115   3.929 -0.4534  0.5437  0.8409
15751TIP3    H268669   6.033   5.049   3.955 -0.1273 -1.1789 -1.4934
15752TIP3   OH268670   4.155   2.887   4.553 -0.1226  0.0234  0.1307
15752TIP3    H168671   4.127   2.919   4.639 -1.4474  0.8260 -0.5523
15752TIP3    H268672   4.235   2.936   4.534  0.5392 -0.6111  1.1389
15753TIP3   OH268673   3.863   6.037   0.562  0.2208 -0.8003 -0.0009
15753TIP3    H168674   3.915   6.088   0.501  0.4182 -0.4281  0.4738
15753TIP3    H268675   3.798   5.992   0.507 -0.7439  0.9013 -0.3303
15754TIP3   OH268676   6.071   4.385  16.903 -0.2409 -0.4197 -0.0702
15754TIP3    H168677   6.150   4.347  16.865 -0.6363 -0.5717 -0.7422
15754TIP3    H268678   6.103   4.453  16.962  0.4146 -0.8808  0.1105
15755TIP3   OH268679   3.905   0.215  14.073  0.8536 -0.2816 -0.7974
15755TIP3    H168680   3.938   0.138  14.025  0.5244  0.3745 -2.1208
15755TIP3    H268681   3.812   0.196  14.086  1.3393 -1.4633  1.6361
15756TIP3   OH268682   0.079   3.619  11.840 -0.6120 -0.2355  0.1991
15756TIP3    H168683   0.014   3.636  11.909  1.1238  0.9473  1.6368
15756TIP3    H268684   0.113   3.532  11.861 -0.4687 -0.1048  0.5166
15757TIP3   OH268685   0.421   4.149  13.999  0.5501  0.4736 -0.0788
15757TIP3    H168686   0.476   4.146  14.077  1.2686  3.3094 -0.3711
15757TIP3    H268687   0.347   4.205  14.024 -2.3304 -3.0616  0.2504
15758TIP3   OH268688   4.002   5.457   5.103  0.1087  0.3229  0.1955
15758TIP3    H168689   3.956   5.400   5.165 -1.3504 -0.7484 -1.7624
15758TIP3    H268690   4.084   5.478   5.147  0.2050 -2.3509  1.5137
15759TIP3   OH268691   1.588   2.500  14.057  0.2596 -0.0591 -0.5429
15759TIP3    H168692   1.528   2.547  14.116  0.8345 -0.3313  0.2692
15759TIP3    H268693   1.653   2.566  14.032  0.1881 -0.0258 -0.6466
15760TIP3   OH268694   4.011   3.130   2.580  0.0464  0.0309 -0.3923
15760TIP3    H168695   3.978   3.163   2.663 -1.9391 -0.6841 -0.8200
15760TIP3    H268696   4.059   3.204   2.542  1.9773  0.0064  1.8263
15761TIP3   OH268697   3.725   5.234  15.887  0.0017 -0.2628  0.2415
15761TIP3    H168698   3.635   5.255  15.863 -0.2868 -0.6766  0.9279
15761TIP3    H268699   3.772   5.231  15.803 -0.7701 -0.7341 -0.1873
15762TIP3   OH268700   3.630   0.374   0.783  0.1668  0.5463  0.1070
15762TIP3    H168701   3.538   0.398   0.792  0.2279  0.5290  0.8250
15762TIP3    H268702   3.678   0.455   0.799  0.2582  0.8563 -1.5124
15763TIP3   OH268703   6.469   0.643  16.988 -0.1334 -0.4947  0.1170
15763TIP3    H168704   6.376   0.660  17.000  0.2095  0.9679  1.0344
15763TIP3    H268705   6.482   0.641  16.894 -0.8436  0.9517 -0.0349
15764TIP3   OH268706   3.371   2.801   5.823 -0.4019 -0.0319  0.1647
15764TIP3    H168707   3.432   2.813   5.896  0.8195  0.4836 -0.8994
15764TIP3    H268708   3.377   2.882   5.773 -1.3709 -0.2959 -0.3972
15765TIP3   OH268709   1.850   0.960   0.674 -0.2011 -0.2353  0.3218
15765TIP3    H168710   1.764   0.965   0.632 -0.0989  0.4963  0.1940
15765TIP3    H268711   1.851   0.874   0.715 -0.7178 -0.5394 -0.2799
15766TIP3   OH268712   6.112   5.156   5.031  0.1319  0.0717  0.2113
15766TIP3    H168713   6.094   5.064   5.010  0.5726 -0.1997  0.9854
15766TIP3    H268714   6.037   5.203   4.996 -0.6087 -0.6995  0.7327
15767TIP3   OH268715   4.500   6.699   0.715  0.1458 -0.4947  0.1071
15767TIP3    H168716   4.556   6.644   0.770  0.5254  0.0938  0.3248
15767TIP3    H268717   4.561   6.758   0.671 -0.3191  0.3862  0.6118
15768TIP3   OH268718   3.202   4.614  12.619  0.0279 -0.5835  0.6391
15768TIP3    H168719   3.226   4.704  12.637  3.2273 -1.2259  0.0724
15768TIP3    H268720   3.249   4.592  12.538 -2.0077 -2.2999 -0.1871
15769TIP3   OH268721   4.018   0.719  16.455  0.0618  0.1875  0.1312
15769TIP3    H168722   3.937   0.685  16.495 -0.3383 -0.3274 -1.0586
15769TIP3    H268723   4.075   0.643  16.448  0.6830  0.5581  0.9965
15770TIP3   OH268724   1.431   0.559  14.393 -0.3227 -0.0365  0.0832
15770TIP3    H168725   1.337   0.543  14.384 -0.9485  2.2937  1.4983
15770TIP3    H268726   1.444   0.646  14.356  0.1415  2.1210  4.5665
15771TIP3   OH268727   2.803   6.004   4.498 -0.3483 -0.4435  0.3121
15771TIP3    H168728   2.886   5.957   4.495  0.3349  0.7550 -2.2881
15771TIP3    H268729   2.742   5.948   4.451 -0.0465  0.3157 -1.0103
15772TIP3   OH268730   5.248   2.362   0.921 -0.3127 -0.8116 -0.5120
15772TIP3    H168731   5.188   2.400   0.857  0.1917 -0.6045 -0.8706
15772TIP3    H268732   5.285   2.285   0.877  1.5864  0.4657 -1.3019
15773TIP3   OH268733   5.080   4.075   6.541 -0.2467  0.2145 -0.6380
15773TIP3    H168734   4.999   4.024   6.545 -0.7569  0.8495 -2.0310
15773TIP3    H268735   5.144   4.016   6.502 -0.5877  0.3234 -1.3854
15774TIP3   OH268736   4.895   0.544  13.462  0.5744 -0.3478 -0.1941
15774TIP3    H168737   4.938   0.627  13.440  1.7161 -0.5688  1.1226
15774TIP3    H268738   4.935   0.480  13.402  0.3397 -0.1309 -0.5913
15775TIP3   OH268739   6.215   1.884  15.320 -0.5875  0.5542 -0.4822
15775TIP3    H168740   6.172   1.820  15.264  0.4374 -0.7843  0.2001
15775TIP3    H268741   6.307   1.878  15.298 -0.1546 -0.0146  1.3134
15776TIP3   OH268742   1.485   4.964  13.281  0.5076 -0.3435 -0.3858
15776TIP3    H168743   1.558   5.026  13.278  0.4863 -0.3263 -0.5388
15776TIP3    H268744   1.415   5.008  13.232  1.0020 -1.1754 -1.8946
15777TIP3   OH268745   0.992   4.448   4.013  0.4939 -0.1541  0.8697
15777TIP3    H168746   1.073   4.437   4.064  0.2663 -0.3303  1.1999
15777TIP3    H268747   1.014   4.515   3.948  0.1441  1.7911  2.6424
15778TIP3   OH268748   3.997   1.413  11.882  0.6290  0.1836  0.5643
15778TIP3    H168749   4.009   1.446  11.971  2.1052 -3.6924  2.0216
15778TIP3    H268750   3.931   1.344  11.891 -0.4913  0.8516 -1.7681
15779TIP3   OH268751   1.942   5.413  15.609 -0.1114  0.1451  0.3096
15779TIP3    H168752   1.855   5.388  15.578 -0.4148  1.6867 -0.1811
15779TIP3    H268753   1.947   5.507  15.592  1.0806  0.3760  1.7217
15780TIP3   OH268754   0.530   0.368   1.718  0.3279  0.0709 -0.3815
15780TIP3    H168755   0.481   0.317   1.653  0.5183  1.3117 -1.5379
15780TIP3    H268756   0.599   0.411   1.667  2.1676 -1.0206  1.0875
15781TIP3   OH268757   4.420   5.652  13.527  0.0502 -0.4987  0.4380
15781TIP3    H168758   4.432   5.617  13.439 -0.7171  0.6432 -0.1549
15781TIP3    H268759   4.505   5.642  13.569  0.2709 -1.5716 -0.2323
15782TIP3   OH268760   2.597   4.562   2.041 -0.0505  0.0274 -0.4474
15782TIP3    H168761   2.582   4.543   1.948 -0.5076 -1.2094 -0.1298
15782TIP3    H268762   2.692   4.572   2.048  0.0364 -0.4193 -0.9450
15783TIP3   OH268763   5.391   3.830   5.017 -0.1441  0.2850 -0.0794
15783TIP3    H168764   5.343   3.783   4.950  0.5232 -0.1690 -0.2461
15783TIP3    H268765   5.478   3.844   4.980  0.3851 -0.3721  0.8476
15784TIP3   OH268766   1.341   1.327  14.020  0.1519 -0.2195  0.4478
15784TIP3    H168767   1.318   1.413  14.053 -0.7059  0.4046 -1.5820
15784TIP3    H268768   1.426   1.339  13.977 -0.4741 -0.0723 -0.8042
15785TIP3   OH268769   1.570   4.337  14.956  0.0997 -0.1265  0.0420
15785TIP3    H168770   1.642   4.398  14.938  0.2083 -0.1210  0.4722
15785TIP3    H268771   1.494   4.394  14.970 -0.1338 -0.1606 -1.0425
15786TIP3   OH268772   3.161   6.790  11.506 -0.1767 -0.0685 -0.0042
15786TIP3    H168773   3.243   6.811  11.551 -1.4585  1.4411  1.8038
15786TIP3    H268774   3.168   6.835  11.422  0.1151  1.7244  0.9244
15787TIP3   OH268775   2.652   4.353  17.019  0.4232  0.0985 -0.4339
15787TIP3    H168776   2.678   4.421  17.081 -0.7884  0.6231 -0.4891
15787TIP3    H268777   2.636   4.276  17.073 -4.8902  1.6029  0.6776
15788TIP3   OH268778   5.834   5.248  14.695  0.4522  0.9445 -0.4028
15788TIP3    H168779   5.761   5.309  14.706  0.8866  1.4257 -0.2090
15788TIP3    H268780   5.832   5.225  14.602 -0.1072  0.7443 -0.3515
15789TIP3   OH268781   0.276   4.868   1.074 -0.0867 -0.4810 -0.3841
15789TIP3    H168782   0.308   4.832   0.991  1.4219  0.4054 -0.2241
15789TIP3    H268783   0.328   4.826   1.141 -1.6013 -1.5167  0.1969
15790TIP3   OH268784   3.789   4.756   5.857  0.4590  0.0156  0.1803
15790TIP3    H168785   3.849   4.684   5.874 -0.1591 -0.6510 -0.4010
15790TIP3    H268786   3.725   4.752   5.927 -0.1336 -0.6172 -0.3845
15791TIP3   OH268787   3.059   1.805   1.900 -0.1337 -0.3878 -0.0552
15791TIP3    H168788   3.122   1.837   1.836 -0.2289 -0.8545 -0.3820
15791TIP3    H268789   2.985   1.773   1.848  0.1601 -1.5787  0.2353
15792TIP3   OH268790   1.329   3.350  15.991 -0.9022 -0.4428 -0.0977
15792TIP3    H168791   1.337   3.261  16.023 -1.0698  0.1766  1.8126
15792TIP3    H268792   1.235   3.366  15.986 -0.8870 -0.0932  0.5135
15793TIP3   OH268793   2.241   5.076   4.818  0.2534  0.1237  0.3532
15793TIP3    H168794   2.196   4.994   4.835  2.6293 -1.1320  0.9565
15793TIP3    H268795   2.298   5.058   4.743 -0.2212  1.6628 -0.4255
15794TIP3   OH268796   3.686   5.017  14.940  0.6818 -0.2744 -0.1875
15794TIP3    H168797   3.694   4.937  14.887  1.4487  0.3192 -1.0043
15794TIP3    H268798   3.754   5.008  15.006  0.8768 -0.2223 -0.3801
15795TIP3   OH268799   5.375   1.660  14.636 -0.1656  0.0323 -0.2774
15795TIP3    H168800   5.441   1.591  14.636 -1.0007 -0.7897 -0.1330
15795TIP3    H268801   5.411   1.729  14.691  0.2938 -0.6840  0.3269
15796TIP3   OH268802   5.518   3.493  14.662  0.4636 -0.0070  0.2039
15796TIP3    H168803   5.431   3.533  14.662 -0.3349 -1.6201  0.2543
15796TIP3    H268804   5.576   3.560  14.696 -0.5961  1.4581 -0.7769
15797TIP3   OH268805   1.439   1.666   1.881  0.5284 -0.6072  0.0415
15797TIP3    H168806   1.433   1.605   1.954  0.7027 -0.7504 -0.0634
15797TIP3    H268807   1.476   1.615   1.809 -2.5597 -1.3516 -1.1392
15798TIP3   OH268808   3.811   4.328   4.194  0.1901  0.3524  0.1316
15798TIP3    H168809   3.812   4.260   4.261  0.6339  0.7831  0.5642
15798TIP3    H268810   3.829   4.281   4.113  0.6122 -0.0303  0.4394
15799TIP3   OH268811   1.694   3.691  15.715 -0.0882 -0.1140  0.0228
15799TIP3    H168812   1.729   3.778  15.698 -1.1180  0.2685 -0.1952
15799TIP3    H268813   1.680   3.653  15.627 -1.5162  0.2831  0.0483
15800TIP3   OH268814   6.006   6.107   5.099 -0.1945 -0.1189  0.2133
15800TIP3    H168815   6.059   6.063   5.033  1.8741 -0.4718  2.0273
15800TIP3    H268816   5.984   6.192   5.059  1.9331  0.1373 -0.5466
15801TIP3   OH268817   0.805   4.027   3.017  0.3402  0.1651  0.4884
15801TIP3    H168818   0.793   4.069   2.932  1.8531  0.4970  0.4109
15801TIP3    H268819   0.761   3.943   3.009 -0.2112  0.5249 -0.3462
15802TIP3   OH268820   0.231   4.306  11.882 -0.6904  0.0986  0.4283
15802TIP3    H168821   0.191   4.303  11.795 -0.3669 -0.6623  0.2915
15802TIP3    H268822   0.158   4.319  11.942 -0.9122  0.6675  0.0444
15803TIP3   OH268823   0.598   6.660  13.737 -0.1731  0.0178 -0.0444
15803TIP3    H168824   0.644   6.727  13.686 -1.9909  0.1176 -1.7065
15803TIP3    H268825   0.577   6.702  13.820  0.5834  0.7659 -0.2211
15804TIP3   OH268826   1.958   6.454  11.748  0.0233  0.4412  0.0656
15804TIP3    H168827   2.051   6.432  11.757  0.0569  0.6218  0.1686
15804TIP3    H268828   1.956   6.522  11.681  0.0447  0.9513  0.5665
15805TIP3   OH268829   6.260   1.904   1.268 -0.0917  0.2613 -0.1494
15805TIP3    H168830   6.310   1.986   1.258  2.1241 -1.0242 -0.2330
15805TIP3    H268831   6.309   1.854   1.333 -0.7254 -1.5075 -0.9808
15806TIP3   OH268832   2.314   2.593   0.460  0.4368 -0.5732  0.0523
15806TIP3    H168833   2.261   2.649   0.404 -1.0200  0.2184  2.0858
15806TIP3    H268834   2.402   2.631   0.454 -0.0313  0.4886 -0.4211
15807TIP3   OH268835   6.129   3.099  16.276 -0.3367 -0.3232 -0.1989
15807TIP3    H168836   6.076   3.020  16.287 -1.0819  0.1207 -0.4558
15807TIP3    H268837   6.079   3.151  16.213 -0.1937  0.6322  0.4628
15808TIP3   OH268838   4.587   5.219  12.405  0.3474 -0.0281  0.5344
15808TIP3    H168839   4.632   5.190  12.325 -1.2176  0.3592 -0.5303
15808TIP3    H268840   4.585   5.141  12.461  2.6404  0.0429  0.8101
15809TIP3   OH268841   0.131   3.832  10.682 -0.1633 -1.1443  0.0617
15809TIP3    H168842   0.042   3.859  10.660 -0.3764 -1.8118  0.0695
15809TIP3    H268843   0.168   3.801  10.599  0.5725  0.4530 -0.2510
15810TIP3   OH268844   5.824   1.109  14.096 -0.1393  0.3486  0.3383
15810TIP3    H168845   5.914   1.087  14.119 -0.4276  0.9495  2.1842
15810TIP3    H268846   5.809   1.194  14.137 -1.4909  0.3615 -0.1318
15811TIP3   OH268847   1.867   2.431   5.166  0.2193 -0.1094  0.1672
15811TIP3    H168848   1.936   2.491   5.196  0.7714  0.4511 -2.0289
15811TIP3    H268849   1.913   2.365   5.114 -0.5797 -1.5649  1.2347
15812TIP3   OH268850   3.951   2.579  16.191  0.0454 -0.1508  0.8094
15812TIP3    H168851   3.954   2.651  16.128 -0.7517  0.2854  1.2687
15812TIP3    H268852   3.870   2.533  16.171  0.8830 -1.3678  0.0499
15813TIP3   OH268853   6.677   6.319  13.198  0.0691 -0.1322 -0.0177
15813TIP3    H168854   6.656   6.268  13.119 -0.4442 -1.8256  1.1645
15813TIP3    H268855   6.772   6.327  13.196  0.1709 -1.2332 -0.1927
15814TIP3   OH268856   1.075   2.796  15.668 -0.1880  0.6790  0.3832
15814TIP3    H168857   1.027   2.768  15.591 -1.5243  0.9333  1.1029
15814TIP3    H268858   1.116   2.879  15.641 -1.0540  1.0257  0.0874
15815TIP3   OH268859   2.012   5.993  10.450 -0.2664 -1.0793 -0.6552
15815TIP3    H168860   2.058   5.940  10.515 -0.5993 -1.2855 -0.5899
15815TIP3    H268861   1.958   6.053  10.501 -0.0154 -0.7814 -0.7324
15816TIP3   OH268862   2.039   4.175  16.195  0.2478 -0.0436  0.0520
15816TIP3    H168863   2.005   4.263  16.178  0.2098 -0.3324 -1.5069
15816TIP3    H268864   2.087   4.151  16.116 -2.0448 -2.4796 -0.7859
15817TIP3   OH268865   3.692   3.964  16.302 -0.0217  0.3723 -0.2209
15817TIP3    H168866   3.724   3.895  16.359  1.8441  0.8132 -0.6680
15817TIP3    H268867   3.716   3.936  16.214 -0.7758  0.7996 -0.5755
15818TIP3   OH268868   4.297   6.500   2.393 -0.7054  0.0891  0.0269
15818TIP3    H168869   4.320   6.593   2.400 -0.1661 -0.1323  1.5790
15818TIP3    H268870   4.333   6.461   2.473 -0.4579 -1.5576 -0.8610
15819TIP3   OH268871   3.064   6.004   6.331  0.0205 -0.0366 -0.2889
15819TIP3    H168872   3.088   5.919   6.296 -0.8989  0.1530 -1.4494
15819TIP3    H268873   2.969   6.002   6.338  0.0937  0.2691  1.4116
15820TIP3   OH268874   1.037   5.807   0.405 -0.2207  0.5064 -0.3173
15820TIP3    H168875   1.103   5.773   0.466  0.4990  3.4721  0.6996
15820TIP3    H268876   1.074   5.790   0.318  0.1791 -1.0130  0.1175
15821TIP3   OH268877   6.492   5.869  11.195  0.1355 -0.6011 -0.3888
15821TIP3    H168878   6.425   5.932  11.221  0.0065 -0.4303 -1.1180
15821TIP3    H268879   6.452   5.783  11.213  0.0276 -0.4936 -0.0975
15822TIP3   OH268880   4.031   2.057   3.835 -0.0537  0.1046  0.5465
15822TIP3    H168881   4.039   1.987   3.900 -0.3929  0.4040  0.9235
15822TIP3    H268882   4.109   2.049   3.781  0.5105  0.1787  1.3269
15823TIP3   OH268883   6.072   3.060  14.381 -0.2876 -0.4625 -0.1960
15823TIP3    H168884   6.065   3.005  14.460  0.3785  2.6055  2.1677
15823TIP3    H268885   5.982   3.064  14.348 -0.5150 -2.1410  0.0957
15824TIP3   OH268886   0.850   4.709  11.818  0.4855 -0.4998 -0.3357
15824TIP3    H168887   0.944   4.729  11.824  0.3080  0.9031 -1.6103
15824TIP3    H268888   0.840   4.666  11.733  0.1240 -1.8648  0.3533
15825TIP3   OH268889   0.554   0.746   5.574  0.0697 -0.0371 -0.0414
15825TIP3    H168890   0.579   0.729   5.483 -0.0999 -0.9721  0.0805
15825TIP3    H268891   0.473   0.796   5.567  0.3087  0.3119 -0.4044
15826TIP3   OH268892   0.454   0.728   2.764  0.3288  0.3589 -0.2058
15826TIP3    H168893   0.509   0.784   2.708  0.8256 -0.1272 -0.2062
15826TIP3    H268894   0.466   0.764   2.852 -0.4397  1.1142 -0.3918
15827TIP3   OH268895   5.775   1.729  16.795  0.3072  0.2691 -0.3561
15827TIP3    H168896   5.854   1.781  16.778  0.5895 -0.2439 -0.6158
15827TIP3    H268897   5.729   1.779  16.863  0.1603  1.2892 -1.1850
15828TIP3   OH268898   4.653   2.294   4.775 -0.4631 -0.2986 -0.0202
15828TIP3    H168899   4.708   2.351   4.828  1.2111 -0.1455 -1.8125
15828TIP3    H268900   4.622   2.227   4.837  0.4242  0.5307  1.3796
15829TIP3   OH268901   2.702   1.546  11.921  0.4917  0.0143 -0.1393
15829TIP3    H168902   2.680   1.453  11.917 -0.8769  0.2464  1.1400
15829TIP3    H268903   2.635   1.584  11.977  2.1920  1.4208  1.0681
15830TIP3   OH268904   3.787   1.299  11.666  0.3214  0.4045  0.3393
15830TIP3    H168905   3.728   1.237  11.622  0.1420  0.0291  1.0895
15830TIP3    H268906   3.824   1.249  11.738  0.4892  1.0620  0.7127
15831TIP3   OH268907   2.165   1.172  15.762 -0.2189  0.6709  0.1295
15831TIP3    H168908   2.257   1.195  15.750 -0.2801  0.9690  0.2149
15831TIP3    H268909   2.144   1.203  15.850 -0.4965  0.9307 -0.0236
15832TIP3   OH268910   1.619   4.766   6.087 -0.0413  0.0581  0.2024
15832TIP3    H168911   1.618   4.817   6.168  2.7847  0.5806  0.0297
15832TIP3    H268912   1.672   4.690   6.108  0.3142 -0.0480 -1.0029
15833TIP3   OH268913   0.376   1.566   2.144  0.0803 -1.0926 -0.1447
15833TIP3    H168914   0.405   1.520   2.065 -0.2463 -0.0223 -0.9182
15833TIP3    H268915   0.456   1.583   2.193  0.5712  0.0478 -1.2728
15834TIP3   OH268916   5.868   5.196  12.570 -0.3349 -0.0631  0.0213
15834TIP3    H168917   5.927   5.264  12.605 -1.0131  0.4098  0.2724
15834TIP3    H268918   5.831   5.155  12.648 -1.0063  0.2382 -0.1402
15835TIP3   OH268919   0.889   3.097   3.457  0.0791  0.0594  0.0881
15835TIP3    H168920   0.819   3.145   3.412  0.0806  0.7938  0.8397
15835TIP3    H268921   0.969   3.122   3.410 -0.2391 -1.5433 -1.3944
15836TIP3   OH268922   1.738   4.297   1.239  0.0184  0.5949 -0.2839
15836TIP3    H168923   1.760   4.249   1.319 -1.4518  1.5742  0.7432
15836TIP3    H268924   1.821   4.302   1.191  0.5345 -1.6843  0.2257
15837TIP3   OH268925   1.083   3.497   4.857 -0.2503  0.2974  0.5441
15837TIP3    H168926   1.084   3.547   4.939  0.5818 -0.9390  1.3131
15837TIP3    H268927   1.174   3.494   4.829  0.0603 -2.5325  1.6340
15838TIP3   OH268928   3.923   0.971  13.369  0.9377 -0.2276 -0.1873
15838TIP3    H168929   3.986   0.976  13.441  1.7440  0.4597 -0.9231
15838TIP3    H268930   3.929   1.056  13.326  1.1665 -0.9524 -1.6394
15839TIP3   OH268931   2.214   1.326  13.418 -0.0045 -0.2696  0.2755
15839TIP3    H168932   2.158   1.263  13.372 -0.3093  0.3188 -0.1654
15839TIP3    H268933   2.282   1.349  13.356  0.0109 -0.0348  0.3781
15840TIP3   OH268934   1.144   5.559   6.016 -0.1755  0.5051  0.2876
15840TIP3    H168935   1.154   5.544   6.110 -1.5640  0.0340  0.3892
15840TIP3    H268936   1.200   5.492   5.976  2.2002  2.1320  0.7348
15841TIP3   OH268937   4.286   6.066  14.276  0.1105  0.2964 -0.6848
15841TIP3    H168938   4.334   6.126  14.219  0.5659 -1.2252 -1.9993
15841TIP3    H268939   4.346   5.993  14.290 -1.1123 -0.7857 -0.8072
15842TIP3   OH268940   4.711   4.726   4.488  0.1829 -0.3546  0.1233
15842TIP3    H168941   4.649   4.704   4.558 -0.2443  0.4853  0.0206
15842TIP3    H268942   4.794   4.739   4.533 -0.1367  0.4049  0.5213
15843TIP3   OH268943   3.423   3.506  11.960  0.0609 -0.4214  0.3473
15843TIP3    H168944   3.333   3.479  11.944  0.7958 -1.9097 -1.6454
15843TIP3    H268945   3.422   3.601  11.947 -1.5819 -0.0612  2.5008
15844TIP3   OH268946   1.185   6.443   5.789  0.4122  0.0163  0.1742
15844TIP3    H168947   1.121   6.438   5.860 -0.3684 -1.4817 -0.5749
15844TIP3    H268948   1.142   6.498   5.722 -0.3505 -1.3595 -0.5194
15845TIP3   OH268949   3.250   5.974  16.152  0.3552  0.5916 -0.5299
15845TIP3    H168950   3.259   6.054  16.204 -0.0273  1.4974 -1.8077
15845TIP3    H268951   3.180   5.925  16.196  0.4377  1.0594  0.1440
15846TIP3   OH268952   1.082   0.278  11.580  0.5181  0.1093 -0.3015
15846TIP3    H168953   1.087   0.225  11.501  0.4193  0.2150 -0.3784
15846TIP3    H268954   1.138   0.232  11.643 -0.7102 -0.9135  0.1031
15847TIP3   OH268955   3.174   3.530   6.180 -0.3523 -0.3524 -0.4664
15847TIP3    H168956   3.195   3.506   6.090 -0.4298  2.1062 -1.1997
15847TIP3    H268957   3.259   3.553   6.219 -0.6582  2.3767 -1.1823
15848TIP3   OH268958   5.394   2.173  14.372 -0.9676  0.2790  0.5049
15848TIP3    H168959   5.393   2.136  14.460  1.9224  1.4298  1.1411
15848TIP3    H268960   5.382   2.098  14.314  1.0135 -1.1420  1.8141
15849TIP3   OH268961   2.380   4.312   2.667 -0.3666 -0.0473 -0.2897
15849TIP3    H168962   2.418   4.399   2.661 -0.6241  0.2426  1.6430
15849TIP3    H268963   2.381   4.279   2.577  3.1137  0.4766 -0.5640
15850TIP3   OH268964   1.466   3.688  11.134 -0.3010 -0.1830 -0.2511
15850TIP3    H168965   1.508   3.610  11.168 -0.1222 -0.4254 -1.0074
15850TIP3    H268966   1.476   3.681  11.039 -3.0462 -0.8331 -0.5740
15851TIP3   OH268967   1.678   4.577  11.307  0.2672  0.0171  0.8913
15851TIP3    H168968   1.732   4.556  11.230 -0.0124  0.5392  0.5476
15851TIP3    H268969   1.729   4.642  11.355 -0.0885  0.5708  0.5247
15852TIP3   OH268970   4.185   3.547   4.261  0.0899  0.0341 -0.0057
15852TIP3    H168971   4.227   3.496   4.191  0.1552 -0.3103  0.2825
15852TIP3    H268972   4.154   3.482   4.323  2.7209  0.3745  1.8339
15853TIP3   OH268973   3.471   0.379  12.142  0.2620 -0.4308 -0.0916
15853TIP3    H168974   3.477   0.429  12.224  0.1718 -1.4299  0.5400
15853TIP3    H268975   3.379   0.353  12.136  0.3874 -0.8632 -0.2007
15854TIP3   OH268976   3.338   5.504   1.944 -0.0736  0.2660  1.0991
15854TIP3    H168977   3.336   5.569   2.015 -1.0262 -0.5914  1.8821
15854TIP3    H268978   3.312   5.554   1.866  3.1064  1.7502  0.8101
15855TIP3   OH268979   2.147   4.861   1.420  0.0118 -0.0758 -0.3255
15855TIP3    H168980   2.167   4.815   1.339 -0.9553  1.4262 -1.4849
15855TIP3    H268981   2.228   4.907   1.442  0.7189 -1.5936  0.3837
15856TIP3   OH268982   2.840   1.191   4.501  0.3500 -0.0717  0.2029
15856TIP3    H168983   2.900   1.248   4.452 -0.5403  1.0231  0.3406
15856TIP3    H268984   2.762   1.185   4.446 -0.3910  0.6071  1.1495
15857TIP3   OH268985   0.207   0.410  14.905  0.1853 -0.1082 -0.5671
15857TIP3    H168986   0.159   0.343  14.954 -0.7571  0.2556 -0.9629
15857TIP3    H268987   0.289   0.368  14.880  0.4115 -0.5089  0.7569
15858TIP3   OH268988   5.009   0.664  12.212 -0.3232 -0.3600  0.0195
15858TIP3    H168989   5.101   0.685  12.196 -0.8376  2.0665 -0.0562
15858TIP3    H268990   4.981   0.615  12.135  0.3964  0.6280 -0.8807
15859TIP3   OH268991   0.126   3.156   6.075  0.0527 -0.3786 -0.0042
15859TIP3    H168992   0.189   3.149   6.004 -0.1286  1.3020 -0.3768
15859TIP3    H268993   0.051   3.103   6.047  0.6604 -1.1033 -0.2727
15860TIP3   OH268994   5.170   3.422   1.694  0.0077  0.1682  0.2285
15860TIP3    H168995   5.078   3.397   1.701 -0.0022 -0.4631 -1.6889
15860TIP3    H268996   5.217   3.339   1.694  0.5758  0.4740  0.8123
15861TIP3   OH268997   0.913   4.415  12.086  0.0055  0.0464  0.0418
15861TIP3    H168998   0.830   4.462  12.087 -0.0065  0.2252 -2.7638
15861TIP3    H268999   0.972   4.469  12.139 -1.1648  0.9068  0.4991
15862TIP3   OH269000   3.854   2.522  10.141  0.1050 -0.2574  0.0834
15862TIP3    H169001   3.795   2.451  10.168 -0.1765 -0.6700 -1.5096
15862TIP3    H269002   3.798   2.599  10.136  0.3859  0.0905  1.6942
15863TIP3   OH269003   2.839   0.378   3.874 -0.5785  0.5438 -0.0324
15863TIP3    H169004   2.836   0.433   3.795 -3.9498 -0.2363 -0.5957
15863TIP3    H269005   2.857   0.290   3.841  0.5303  0.5915  0.4000
15864TIP3   OH269006   2.837   5.870  16.829 -0.3660 -0.3020 -0.0180
15864TIP3    H169007   2.811   5.789  16.873  1.4530 -1.1303 -0.3487
15864TIP3    H269008   2.824   5.851  16.736 -0.3548 -0.0473 -0.0708
15865TIP3   OH269009   5.082   3.702   1.792 -0.1213  0.0331  0.0454
15865TIP3    H169010   5.125   3.618   1.776 -1.7036 -0.5733 -1.2748
15865TIP3    H269011   5.136   3.766   1.746 -0.3759 -0.6553 -1.2463
15866TIP3   OH269012   4.223   1.014  14.297  0.2807  0.3007 -0.5735
15866TIP3    H169013   4.149   1.043  14.349 -0.3673  1.2834 -1.9733
15866TIP3    H269014   4.293   1.077  14.317 -0.1562  1.0425 -1.2883
15867TIP3   OH269015   2.722   6.598  13.717 -0.2195  0.2152 -0.2258
15867TIP3    H169016   2.786   6.629  13.653  0.3266 -0.2700  0.0794
15867TIP3    H269017   2.637   6.619  13.678  0.1150  1.7243 -0.2121
15868TIP3   OH269018   0.867   0.455   1.389  0.3358  0.6743  0.4161
15868TIP3    H169019   0.938   0.491   1.336  1.3373 -0.4182  0.9655
15868TIP3    H269020   0.802   0.427   1.324  0.7227  1.0439 -0.1427
15869TIP3   OH269021   2.294   4.684  15.965 -0.0883 -0.3037 -0.0256
15869TIP3    H169022   2.268   4.593  15.978 -0.4149 -0.1241  0.6167
15869TIP3    H269023   2.322   4.714  16.051 -1.1312  0.5548  0.0367
15870TIP3   OH269024   0.079   0.018   0.480 -0.3840  0.4333 -0.2067
15870TIP3    H169025   0.078   0.096   0.424  0.7861  1.0881  0.6350
15870TIP3    H269026   0.153  -0.033   0.448 -1.3051 -0.4985 -0.9242
15871TIP3   OH269027   4.382   1.681   3.904  0.1055  0.4023 -0.7227
15871TIP3    H169028   4.424   1.728   3.976  0.0232 -0.9932  0.2763
15871TIP3    H269029   4.401   1.589   3.922 -1.4724 -0.0962 -1.4935
15872TIP3   OH269030   6.159   5.319   2.852 -0.1072 -0.5063 -0.8476
15872TIP3    H169031   6.188   5.409   2.839  0.6487 -0.3258  1.6570
15872TIP3    H269032   6.066   5.326   2.874 -0.0010 -0.3229 -0.4578
15873TIP3   OH269033   2.848   4.894  14.434 -0.3121  0.1299 -0.4516
15873TIP3    H169034   2.893   4.916  14.352  0.6834 -0.5124 -0.0914
15873TIP3    H269035   2.915   4.905  14.502 -0.7770 -0.5770  0.1348
15874TIP3   OH269036   1.217   2.476   3.369 -0.4464 -0.0430 -0.2743
15874TIP3    H169037   1.174   2.481   3.284  0.8910  1.6434 -0.9218
15874TIP3    H269038   1.147   2.457   3.431 -1.5826 -0.4660 -1.6440
15875TIP3   OH269039   3.141   4.512   4.953  0.2311 -0.3194  0.1154
15875TIP3    H169040   3.056   4.475   4.973 -0.9202  0.5801 -2.7167
15875TIP3    H269041   3.122   4.600   4.919  2.2958  0.0302 -0.2751
15876TIP3   OH269042   2.640   0.825  12.363 -0.1836 -0.8176  0.7886
15876TIP3    H169043   2.624   0.781  12.280  0.6797 -0.9941  0.7065
15876TIP3    H269044   2.734   0.815  12.378 -0.4308 -1.3916  2.1246
15877TIP3   OH269045   2.670   4.099   1.514 -0.2769 -0.3531 -0.4385
15877TIP3    H169046   2.689   4.191   1.529 -1.4128  0.5356 -3.7266
15877TIP3    H269047   2.751   4.062   1.480 -0.3606 -0.0901 -0.9242
15878TIP3   OH269048   5.909   1.415   5.872  0.2810  0.0850 -0.0084
15878TIP3    H169049   5.848   1.458   5.812  1.6337  0.7562 -0.9493
15878TIP3    H269050   5.891   1.456   5.957  1.3083  2.3846 -0.8023
15879TIP3   OH269051   5.628   2.982  14.934 -0.1617 -0.4584  0.1832
15879TIP3    H169052   5.555   3.044  14.929 -0.0275 -0.3043  0.1236
15879TIP3    H269053   5.598   2.906  14.884  0.3944  0.2878 -1.3280
15880TIP3   OH269054   2.383   4.192  13.118  0.0501 -0.2664 -0.5538
15880TIP3    H169055   2.382   4.276  13.072 -1.9476 -0.5721 -1.1444
15880TIP3    H269056   2.472   4.186  13.154  0.0136  2.4735  0.2310
15881TIP3   OH269057   6.502   6.449  13.381 -0.2255  0.0168 -0.0752
15881TIP3    H169058   6.573   6.431  13.443  1.4331  1.3414 -1.4816
15881TIP3    H269059   6.535   6.415  13.298  0.7439  4.2774 -1.6928
15882TIP3   OH269060   6.053   2.473   3.990 -0.4177 -0.0884 -0.2249
15882TIP3    H169061   6.027   2.410   3.923  2.0330  1.5872 -3.0108
15882TIP3    H269062   6.121   2.428   4.041  0.1859 -0.2324 -1.1488
15883TIP3   OH269063   5.506   6.225   4.295  0.3686 -0.3206  0.0255
15883TIP3    H169064   5.522   6.138   4.331  0.5302 -1.1810 -2.0053
15883TIP3    H269065   5.484   6.209   4.204  1.6395  1.8675 -0.7264
15884TIP3   OH269066   0.524   6.768  16.250 -0.1945  0.1885 -0.0345
15884TIP3    H169067   0.518   6.815  16.167  0.3445 -0.5746 -0.5206
15884TIP3    H269068   0.545   6.835  16.314 -0.8217  0.8246 -0.4728
15885TIP3   OH269069   4.488   5.685   4.151 -0.2099 -0.2546  0.1009
15885TIP3    H169070   4.511   5.678   4.058 -0.5730 -0.7584  0.0427
15885TIP3    H269071   4.567   5.660   4.198 -0.1285 -0.3344 -0.0796
15886TIP3   OH269072   0.366   1.865   0.602 -0.7669 -0.2744 -0.5250
15886TIP3    H169073   0.443   1.810   0.604  0.0151  0.6496 -2.3298
15886TIP3    H269074   0.400   1.954   0.609 -1.8654  0.0795  0.7471
15887TIP3   OH269075   2.548   5.835   2.942  0.2310  0.0015 -0.0383
15887TIP3    H169076   2.520   5.744   2.945 -0.3030  0.1775  0.6429
15887TIP3    H269077   2.592   5.850   3.025 -0.2154  0.5273  0.1123
15888TIP3   OH269078   2.286   4.328  16.186 -0.3391 -0.5079  0.2563
15888TIP3    H169079   2.200   4.300  16.219  1.4400 -3.6817  2.8290
15888TIP3    H269080   2.274   4.335  16.092 -3.4625 -0.4800  0.5416
15889TIP3   OH269081   0.686   5.079  12.526 -0.8341 -0.3074 -0.0581
15889TIP3    H169082   0.770   5.121  12.504  0.6148 -2.6704  0.4953
15889TIP3    H269083   0.711   4.992  12.557 -3.3956 -0.3130  2.3184
15890TIP3   OH269084   3.294   6.117   4.220  0.4399  0.2741 -0.3192
15890TIP3    H169085   3.366   6.170   4.255  1.3958  0.0700 -1.8578
15890TIP3    H269086   3.309   6.117   4.125  0.4147 -2.6383 -0.4012
15891TIP3   OH269087   4.232   2.038   3.664  0.1016 -0.4374  0.3721
15891TIP3    H169088   4.212   2.014   3.574  1.2416 -0.2326  0.0478
15891TIP3    H269089   4.310   1.987   3.686  0.6769  0.5684  0.7467
15892TIP3   OH269090   2.570   0.142  15.350 -0.1237  1.2334 -0.1384
15892TIP3    H169091   2.532   0.058  15.377  3.0511 -0.2956 -0.0602
15892TIP3    H269092   2.501   0.183  15.297 -1.9318 -1.2230  0.1366
15893TIP3   OH269093   1.468   5.776   5.603  0.4926  0.0273  0.4439
15893TIP3    H169094   1.511   5.785   5.518 -0.9741  0.2041 -0.3107
15893TIP3    H269095   1.467   5.681   5.619  0.6327 -0.0197  0.1852
15894TIP3   OH269096   3.661   6.606  17.110  0.2769  0.4848 -0.0187
15894TIP3    H169097   3.604   6.550  17.057  1.2225 -0.6340  0.0977
15894TIP3    H269098   3.613   6.688  17.118 -0.6519  0.0914 -1.1628
15895TIP3   OH269099   1.925   6.132  11.217  0.3480  0.4645 -0.0493
15895TIP3    H169100   1.929   6.191  11.142  1.1951 -1.5287 -1.6680
15895TIP3    H269101   2.012   6.093  11.221 -0.5124 -1.5318  0.1939
15896TIP3   OH269102   5.355   3.135   0.542  0.0160 -0.0747  0.0404
15896TIP3    H169103   5.446   3.164   0.543  0.2011 -0.6389  0.7437
15896TIP3    H269104   5.354   3.062   0.480 -0.1319  0.4524 -0.5834
15897TIP3   OH269105   4.463   5.509   5.595  0.2777 -0.1319  0.2386
15897TIP3    H169106   4.535   5.564   5.565  0.4303 -1.3030 -1.7470
15897TIP3    H269107   4.406   5.568   5.644  1.6836  1.2067  0.3369
15898TIP3   OH269108   2.580   5.527   3.876  0.6305 -0.0480  0.6501
15898TIP3    H169109   2.630   5.524   3.794  0.5326 -0.2224  0.5965
15898TIP3    H269110   2.492   5.499   3.851  0.9245 -1.4223  1.0632
15899TIP3   OH269111   3.258   0.189   3.429 -0.0205  0.1472  0.0718
15899TIP3    H169112   3.200   0.259   3.399 -1.0099 -0.0273  1.4491
15899TIP3    H269113   3.201   0.113   3.438  0.3312  0.0434  1.7304
15900TIP3   OH269114   0.181   5.105  13.690 -0.1911  0.8590 -0.2826
15900TIP3    H169115   0.171   5.062  13.775  1.7898  0.4230 -0.2371
15900TIP3    H269116   0.092   5.135  13.669 -0.8183  0.6123  1.7251
15901TIP3   OH269117   3.804   3.303  12.781 -0.2212  0.4567 -0.1574
15901TIP3    H169118   3.723   3.252  12.778 -1.7966  2.7931 -0.1309
15901TIP3    H269119   3.792   3.372  12.716  1.6640  1.0189  0.0102
15902TIP3   OH269120   0.248   3.926   2.796  0.0541 -0.0517  0.1899
15902TIP3    H169121   0.251   3.905   2.703  0.1429  0.2067  0.1357
15902TIP3    H269122   0.168   3.883   2.827  0.4503 -0.8156  0.1624
15903TIP3   OH269123   4.689   0.921  13.893 -0.1396  0.5207  0.0477
15903TIP3    H169124   4.698   0.912  13.798 -0.3128 -0.1256  0.0886
15903TIP3    H269125   4.598   0.947  13.906 -0.6719 -1.2504  0.1347
15904TIP3   OH269126   5.341   0.464   6.086  0.0931  0.6379  0.0502
15904TIP3    H169127   5.395   0.494   6.159  0.7147  0.6858 -0.4184
15904TIP3    H269128   5.251   0.472   6.117  0.3797 -1.8209  1.8063
15905TIP3   OH269129   5.717   3.527   2.801  0.3280  0.1012 -0.1886
15905TIP3    H169130   5.722   3.575   2.884  0.6577  0.4186 -0.3893
15905TIP3    H269131   5.720   3.595   2.734  0.8604 -0.2073 -0.4807
15906TIP3   OH269132   2.518   3.846   2.243 -0.2898 -0.0273  0.0056
15906TIP3    H169133   2.484   3.875   2.158  1.0671 -0.8824 -0.8756
15906TIP3    H269134   2.493   3.754   2.249 -1.4604  0.3420  1.1330
15907TIP3   OH269135   0.605   2.692   3.290  0.3000 -0.0199 -0.4359
15907TIP3    H169136   0.689   2.736   3.304 -0.0113  1.0380 -1.8029
15907TIP3    H269137   0.591   2.694   3.196 -0.7312 -1.2283 -0.3465
15908TIP3   OH269138   6.068   0.820  15.718  0.1552  0.3132 -0.1271
15908TIP3    H169139   6.113   0.738  15.739 -1.1637 -0.4763 -0.2663
15908TIP3    H269140   6.105   0.846  15.633 -0.6203 -1.0660 -0.9199
15909TIP3   OH269141   3.714   3.536   4.066 -0.8805  0.0783 -0.0420
15909TIP3    H169142   3.720   3.630   4.051 -1.1091  0.2170  0.7026
15909TIP3    H269143   3.686   3.528   4.157  3.8288 -0.7337  1.6366
15910TIP3   OH269144   4.713   5.586   3.629 -0.0623  0.1622  0.4085
15910TIP3    H169145   4.620   5.585   3.605 -0.3098 -0.6465  1.3292
15910TIP3    H269146   4.755   5.639   3.561 -0.9452 -0.8029 -0.9334
15911TIP3   OH269147   2.433   6.154   5.303 -0.1203 -0.0294  0.4435
15911TIP3    H169148   2.418   6.071   5.347 -0.6452 -0.1964 -0.0359
15911TIP3    H269149   2.361   6.161   5.240 -0.4533  1.0815  0.9246
15912TIP3   OH269150   2.239   6.556   1.439 -0.3211 -0.2973  0.2427
15912TIP3    H169151   2.164   6.578   1.494  0.3311  0.4283  0.8527
15912TIP3    H269152   2.305   6.524   1.500  0.1957 -0.0530 -0.1818
15913TIP3   OH269153   2.594   0.971  17.078  0.3807 -0.0746  0.1920
15913TIP3    H169154   2.517   0.943  17.128 -0.5843  0.7365 -0.8094
15913TIP3    H269155   2.664   0.914  17.110 -0.8812 -1.6444  0.2940
15914TIP3   OH269156   3.557   0.447   6.350 -0.5576 -0.3606 -0.2309
15914TIP3    H169157   3.494   0.385   6.313 -1.5372 -0.1491  0.9996
15914TIP3    H269158   3.627   0.452   6.285 -2.2628  0.1413 -2.1079
15915TIP3   OH269159   1.583   3.876  12.384 -0.0108  0.4264  0.1324
15915TIP3    H169160   1.610   3.814  12.316  0.5931  0.5887  0.2183
15915TIP3    H269161   1.512   3.925  12.345 -0.1074  0.0694 -0.1455
15916TIP3   OH269162   4.531   2.100  14.931  0.6077 -0.3371  0.4433
15916TIP3    H169163   4.556   2.033  14.867 -0.6098  0.0326 -0.4579
15916TIP3    H269164   4.437   2.112  14.917  1.1231  3.1029 -0.9348
15917TIP3   OH269165   4.898   4.515   4.367 -0.4612  0.4328  0.0058
15917TIP3    H169166   4.824   4.571   4.342 -1.3138 -0.9254 -0.6428
15917TIP3    H269167   4.858   4.428   4.381  1.1447 -0.5738 -1.3302
15918TIP3   OH269168   4.254   6.072  10.905  0.3027  0.0042 -0.1691
15918TIP3    H169169   4.211   6.156  10.887  0.1908  1.0152  3.9681
15918TIP3    H269170   4.343   6.095  10.931  0.8038 -1.3666 -0.5719
15919TIP3   OH269171   2.439   5.543  13.125  0.4139  0.2250 -0.9123
15919TIP3    H169172   2.375   5.485  13.167  1.1999 -0.7994 -1.0771
15919TIP3    H269173   2.395   5.628  13.121 -0.7220 -0.3136 -0.5235
15920TIP3   OH269174   0.759   4.676  13.036  0.0259 -0.3509 -0.0871
15920TIP3    H169175   0.799   4.591  13.015  1.9426  0.5270 -0.2309
15920TIP3    H269176   0.695   4.690  12.966 -0.5971 -1.8063  0.1412
15921TIP3   OH269177   5.554   4.541  12.135  0.8929  0.2040 -0.1823
15921TIP3    H169178   5.558   4.625  12.181  0.6296 -0.6004  1.3636
15921TIP3    H269179   5.603   4.556  12.054 -0.1460  2.1859 -0.5137
15922TIP3   OH269180   1.488   3.796  15.908  0.3415 -0.2803  0.0781
15922TIP3    H169181   1.428   3.860  15.870  0.8046 -0.3185 -0.7340
15922TIP3    H269182   1.525   3.750  15.833  0.1604 -1.3794  0.6397
15923TIP3   OH269183   5.955   1.530   2.794  0.0264  0.3146 -0.6120
15923TIP3    H169184   5.903   1.570   2.863  0.8565  0.3319  0.0147
15923TIP3    H269185   6.044   1.560   2.810  0.1651  0.7235 -1.9879
15924TIP3   OH269186   2.713   1.000  15.954 -0.6226  0.1941  0.1813
15924TIP3    H169187   2.776   1.039  15.894  0.5244  1.1500  1.9123
15924TIP3    H269188   2.646   0.961  15.898  0.6994  0.5231 -1.6838
15925TIP3   OH269189   2.229   2.780   6.666  0.4362  0.1208  0.2843
15925TIP3    H169190   2.181   2.765   6.584  3.0262  0.1995 -1.3719
15925TIP3    H269191   2.268   2.695   6.685  0.8923  0.4310  0.7266
15926TIP3   OH269192   1.809   2.208  14.294  0.0004 -0.1426 -0.4158
15926TIP3    H169193   1.727   2.159  14.294  0.6573 -1.3004 -1.3492
15926TIP3    H269194   1.834   2.213  14.387 -1.2348  0.4680 -0.0902
15927TIP3   OH269195   5.851   4.522   6.201  0.1968 -0.1726  0.3146
15927TIP3    H169196   5.786   4.525   6.271  0.4558  1.7262  0.5099
15927TIP3    H269197   5.854   4.611   6.167  2.0902 -0.4124 -0.2538
15928TIP3   OH269198   0.440   0.994   5.935  0.6491 -0.1887  0.1645
15928TIP3    H169199   0.514   0.935   5.951  0.9221 -0.2944 -1.3179
15928TIP3    H269200   0.453   1.025   5.845 -0.2010  1.1187  0.4660
15929TIP3   OH269201   5.890   1.747  15.896 -0.2520 -0.2953 -0.0266
15929TIP3    H169202   5.873   1.746  15.990  3.0885  0.0915  0.7040
15929TIP3    H269203   5.885   1.655  15.870  0.0310 -0.5603  0.8081
15930TIP3   OH269204   5.923   1.566   4.178  0.0777  0.5957 -0.5500
15930TIP3    H169205   5.915   1.501   4.108 -1.4696 -0.0137  0.1347
15930TIP3    H269206   5.838   1.611   4.179 -0.0732  0.3580  1.1304
15931TIP3   OH269207   6.446   2.893  13.570 -0.3757 -0.5153 -0.2918
15931TIP3    H169208   6.438   2.985  13.596 -0.7331 -0.9390  1.2033
15931TIP3    H269209   6.386   2.847  13.628  0.3041 -1.7767 -0.5569
15932TIP3   OH269210   5.778   5.663  12.625 -0.2251  0.5898  0.4622
15932TIP3    H169211   5.716   5.599  12.659  0.3730  0.3743  1.1708
15932TIP3    H269212   5.861   5.641  12.668  0.2001  1.2510 -0.0071
15933TIP3   OH269213   2.393   3.127  12.268  0.0601 -0.4866  0.0469
15933TIP3    H169214   2.372   3.093  12.181  0.7488 -1.0901  0.1024
15933TIP3    H269215   2.333   3.081  12.326 -1.3487  0.9185 -0.2315
15934TIP3   OH269216   1.880   3.972   0.628 -0.7421 -0.5153  0.4134
15934TIP3    H169217   1.972   3.974   0.600  0.2618  2.1334  3.2968
15934TIP3    H269218   1.830   3.970   0.546  1.9012  0.7414 -1.3710
15935TIP3   OH269219   1.603   1.743  11.401  0.0323  0.6167  0.1641
15935TIP3    H169220   1.688   1.775  11.429  0.8397 -0.5080 -0.9167
15935TIP3    H269221   1.574   1.805  11.334 -0.2911  1.3125  0.9187
15936TIP3   OH269222   6.344   5.185   4.122  0.4023 -0.0753  0.6075
15936TIP3    H169223   6.297   5.239   4.185 -0.2181  0.5178 -0.3461
15936TIP3    H269224   6.414   5.241   4.089 -0.1252  0.0980 -0.2419
15937TIP3   OH269225   5.937   5.727   4.923  0.0634 -0.3779 -0.5969
15937TIP3    H169226   6.008   5.665   4.939 -0.9084 -1.4146 -0.0682
15937TIP3    H269227   5.883   5.684   4.857 -1.8895 -1.2710  1.4190
15938TIP3   OH269228   3.320   6.500   3.275  0.2870  0.2649  0.0632
15938TIP3    H169229   3.388   6.520   3.211  1.2554  2.0904  1.5906
15938TIP3    H269230   3.239   6.527   3.232  0.5733 -1.0266 -1.3888
15939TIP3   OH269231   5.706   0.715  14.203  0.5218 -0.2833 -0.1986
15939TIP3    H169232   5.670   0.659  14.134  0.5492 -2.2206  1.2914
15939TIP3    H269233   5.677   0.676  14.285  2.5625  0.4811  0.9819
15940TIP3   OH269234   2.913   2.428  14.703 -0.5151  0.4586 -0.3056
15940TIP3    H169235   2.921   2.382  14.620 -1.2758 -1.9080  0.8538
15940TIP3    H269236   2.856   2.373  14.756  0.0921  1.7900  1.8638
15941TIP3   OH269237   4.839   2.576   2.303  0.0975 -0.2686 -0.0568
15941TIP3    H169238   4.814   2.570   2.395 -0.4871  0.5641 -0.1511
15941TIP3    H269239   4.758   2.558   2.255 -0.6189  3.0790 -0.3635
15942TIP3   OH269240   3.344   3.668   4.181  0.0344  0.3882 -0.4561
15942TIP3    H169241   3.406   3.614   4.229  0.1599  0.7900 -0.1586
15942TIP3    H269242   3.397   3.711   4.114 -0.0689  0.1298 -0.7069
15943TIP3   OH269243   4.124   5.150  15.999  0.0627 -0.5975 -0.3427
15943TIP3    H169244   4.043   5.102  15.985  0.6905 -1.6876 -0.3738
15943TIP3    H269245   4.101   5.219  16.060 -0.2302 -2.9163  2.3634
15944TIP3   OH269246   2.992   5.517   4.465  0.1099  0.4388 -0.2946
15944TIP3    H169247   3.055   5.457   4.426 -0.0036 -0.2699  0.5777
15944TIP3    H269248   2.933   5.541   4.393 -0.4055 -1.2385 -0.4755
15945TIP3   OH269249   5.133   0.235  12.380  0.0488 -0.4557  0.0469
15945TIP3    H169250   5.200   0.194  12.434  1.8322  0.9391 -1.0137
15945TIP3    H269251   5.102   0.309  12.432  1.6094  0.7582 -0.7099
15946TIP3   OH269252   1.207   3.004  13.519  0.1577 -0.5334  0.3850
15946TIP3    H169253   1.284   3.021  13.573 -0.0378  1.7768  0.0455
15946TIP3    H269254   1.145   3.073  13.543 -0.1083  0.3118 -2.3908
15947TIP3   OH269255   2.763   3.404   3.640  0.4914 -0.4239 -0.3503
15947TIP3    H169256   2.685   3.407   3.696  0.8434 -0.9880  0.1752
15947TIP3    H269257   2.752   3.479   3.581  0.4812  0.6507  0.9606
15948TIP3   OH269258   0.304   4.815  16.590  0.3605 -0.3964 -0.4648
15948TIP3    H169259   0.360   4.824  16.513  1.5982  0.8731  0.5316
15948TIP3    H269260   0.365   4.812  16.664 -0.8437 -0.3907  0.5647
15949TIP3   OH269261   2.723   3.902   0.903 -0.2093 -0.1362  0.1341
15949TIP3    H169262   2.769   3.858   0.974  0.2862 -0.0141 -0.1114
15949TIP3    H269263   2.781   3.974   0.877 -0.7950  0.3798  0.2188
15950TIP3   OH269264   1.022   4.836   6.026  0.5899  0.5784  0.6683
15950TIP3    H169265   0.942   4.816   6.076 -0.4897  1.4949 -0.6029
15950TIP3    H269266   0.997   4.910   5.971  2.6194  1.5066  0.9007
15951TIP3   OH269267   4.940   2.978   4.726 -0.2874 -0.1468  0.0113
15951TIP3    H169268   4.997   3.051   4.749  0.3898 -0.5480 -0.3798
15951TIP3    H269269   4.899   3.004   4.644 -0.3090 -0.0589  0.0500
15952TIP3   OH269270   2.157   1.995   3.733  0.3812 -0.4563 -0.3668
15952TIP3    H169271   2.122   2.063   3.676 -2.0548 -0.7820  0.6517
15952TIP3    H269272   2.152   2.031   3.821  2.3534 -0.6840 -0.1056
15953TIP3   OH269273   6.513   0.171   5.117  0.5907  0.1222  0.1150
15953TIP3    H169274   6.591   0.225   5.130  0.6440  0.0965 -0.0880
15953TIP3    H269275   6.544   0.096   5.066 -0.0821  1.4905 -2.5124
15954TIP3   OH269276   4.842   0.514   5.596  0.0539  0.6543  0.3663
15954TIP3    H169277   4.748   0.532   5.598 -0.6223 -2.2955 -0.5417
15954TIP3    H269278   4.854   0.440   5.656  2.2698  2.4214  2.3215
15955TIP3   OH269279   0.452   2.474  13.069 -0.0797 -0.1793 -0.0264
15955TIP3    H169280   0.536   2.486  13.024  1.1738  1.6595  2.5798
15955TIP3    H269281   0.403   2.554  13.052 -0.9163 -0.7954 -0.6412
15956TIP3   OH269282   6.099   2.363  15.261  0.4870 -0.4286  1.1526
15956TIP3    H169283   6.163   2.435  15.261 -0.8572  0.8320 -0.3088
15956TIP3    H269284   6.113   2.320  15.345  2.3558  0.6084  1.4483
15957TIP3   OH269285   3.478   0.704  12.120 -0.1560 -0.0233 -0.2881
15957TIP3    H169286   3.456   0.797  12.121 -0.7074 -0.1324 -1.1778
15957TIP3    H269287   3.560   0.699  12.072  0.1905  0.0555  0.2828
15958TIP3   OH269288   0.928   0.274   5.320  0.2615  0.1879  0.4376
15958TIP3    H169289   0.932   0.367   5.297 -2.0944  0.3451  0.4649
15958TIP3    H269290   0.940   0.229   5.236 -0.7918  0.5898  0.0525
15959TIP3   OH269291   1.544   1.715   3.068 -0.3197 -0.3199  0.5879
15959TIP3    H169292   1.585   1.667   3.140  2.2244  0.9010  0.0348
15959TIP3    H269293   1.616   1.743   3.012 -2.0468  0.6160 -1.3251
15960TIP3   OH269294   4.133   0.339  16.021  0.3756  0.2905  0.1292
15960TIP3    H169295   4.219   0.298  16.028 -0.5153 -1.5618  0.5795
15960TIP3    H269296   4.131   0.403  16.092  0.4696 -1.4103  1.7200
15961TIP3   OH269297   0.941   6.582   1.256  0.4349  0.1894  0.4124
15961TIP3    H169298   1.027   6.614   1.285  1.1057 -0.1410 -1.1250
15961TIP3    H269299   0.903   6.654   1.208  0.2349  0.0260  0.3241
15962TIP3   OH269300   0.212   4.072  12.985  0.1582 -0.3154  0.4402
15962TIP3    H169301   0.220   3.994  13.040  1.8119 -0.5538 -0.0785
15962TIP3    H269302   0.141   4.052  12.924 -0.2813 -0.8956  1.1419
15963TIP3   OH269303   0.573   1.226  15.046 -0.1437  0.6064 -0.2997
15963TIP3    H169304   0.482   1.215  15.021 -0.4661  0.5999  0.8371
15963TIP3    H269305   0.601   1.140  15.078  0.2357  0.6299 -0.5546
15964TIP3   OH269306   2.974   2.501   2.647 -1.1251  0.0765 -0.0182
15964TIP3    H169307   3.068   2.510   2.630 -0.8994 -0.7584  0.6894
15964TIP3    H269308   2.937   2.585   2.621 -0.2966  0.1475 -1.0505
15965TIP3   OH269309   5.317   2.727   2.975  0.1893  0.0885 -0.1213
15965TIP3    H169310   5.329   2.713   2.881  0.6720  0.0545 -0.0565
15965TIP3    H269311   5.331   2.820   2.987  4.2388 -0.4102  0.4787
15966TIP3   OH269312   4.020   1.698  12.394 -1.1931  0.1160  0.3943
15966TIP3    H169313   3.933   1.702  12.434 -1.2744 -0.6111  0.3075
15966TIP3    H269314   4.044   1.790  12.379 -0.8265  0.4871  2.8200
15967TIP3   OH269315   2.493   0.721  11.867 -0.1987 -0.5619  1.0204
15967TIP3    H169316   2.525   0.654  11.808 -0.8486  0.1791 -0.2153
15967TIP3    H269317   2.404   0.692  11.889 -0.6426  0.1000  0.1334
15968TIP3   OH269318   4.667   3.697  16.049  0.0824  0.2868  0.4573
15968TIP3    H169319   4.742   3.731  16.000 -0.0353 -1.1832 -0.8385
15968TIP3    H269320   4.705   3.638  16.114  0.1149  0.4327  0.5690
15969TIP3   OH269321   5.357   1.766   4.853  0.2455 -0.2050 -0.7708
15969TIP3    H169322   5.300   1.712   4.799  2.2862 -0.6282 -2.6275
15969TIP3    H269323   5.350   1.854   4.816  0.0147 -0.0286 -0.3226
15970TIP3   OH269324   5.301   1.945  11.074 -0.5279 -0.0943 -0.6820
15970TIP3    H169325   5.320   1.854  11.051  2.7711  0.4563 -0.5894
15970TIP3    H269326   5.303   1.992  10.991 -1.2900  0.0392 -0.6280
15971TIP3   OH269327   3.601   1.292  16.511  0.2784  0.7177  0.3054
15971TIP3    H169328   3.649   1.291  16.594 -0.2712 -1.1695  0.6657
15971TIP3    H269329   3.667   1.269  16.445  0.0288 -1.5974  0.7641
15972TIP3   OH269330   2.789   2.771  12.888 -0.0809  0.1227  0.2917
15972TIP3    H169331   2.761   2.824  12.964  2.2275 -0.1048  1.3787
15972TIP3    H269332   2.838   2.699  12.927 -0.2119 -0.9002 -1.3846
15973TIP3   OH269333   5.024   1.553   0.417  0.1052 -0.1939 -0.0120
15973TIP3    H169334   5.088   1.610   0.374 -0.1073  0.5424  0.6321
15973TIP3    H269335   4.940   1.597   0.403  0.1541  0.7339  2.1894
15974TIP3   OH269336   3.495   4.501  12.908 -0.3558  0.1124 -0.7467
15974TIP3    H169337   3.523   4.568  12.845 -1.1765  0.9630 -0.2405
15974TIP3    H269338   3.404   4.524  12.929  0.3011  0.7221  1.7990
15975TIP3   OH269339   0.185   4.208  16.494  0.4384  0.8023  0.0107
15975TIP3    H169340   0.258   4.161  16.535 -0.3898  0.0664  0.6959
15975TIP3    H269341   0.152   4.148  16.427 -0.4093  0.5118  0.6583
15976TIP3   OH269342   0.990   1.877   4.635 -0.1207 -0.4522  0.0887
15976TIP3    H169343   0.907   1.874   4.682  0.1890  0.4988  0.7260
15976TIP3    H269344   0.989   1.799   4.580 -1.4276 -0.4608  0.0889
15977TIP3   OH269345   4.288   5.799  12.385 -0.2320 -0.1806  0.1056
15977TIP3    H169346   4.257   5.748  12.460 -0.6555  3.6468  2.8343
15977TIP3    H269347   4.211   5.810  12.330 -0.8708 -0.0818  0.9996
15978TIP3   OH269348   0.332   0.034   4.670  0.3235  0.2429 -0.5479
15978TIP3    H169349   0.423   0.033   4.642  1.1457  0.0001  1.8868
15978TIP3    H269350   0.314  -0.056   4.698 -0.7249  0.2596 -1.1057
15979TIP3   OH269351   6.506   2.174  11.326  0.2986  0.7571  0.2805
15979TIP3    H169352   6.585   2.202  11.280  0.3524  1.8224  0.9776
15979TIP3    H269353   6.514   2.213  11.413 -0.5568  0.1094  0.6640
15980TIP3   OH269354   0.308   0.040   0.888  0.4828  0.5294 -0.1079
15980TIP3    H169355   0.323  -0.048   0.854  3.7251  0.8580  0.1100
15980TIP3    H269356   0.268   0.088   0.815  1.4701 -0.3811 -1.2872
15981TIP3   OH269357   3.788   5.657  12.364  0.0272  0.2798 -0.5568
15981TIP3    H169358   3.837   5.707  12.430 -1.5960  0.9159  0.2285
15981TIP3    H269359   3.705   5.705  12.355 -1.2303 -1.7868 -0.4495
15982TIP3   OH269360   6.485   2.364   2.915 -0.1351 -0.0253 -0.3179
15982TIP3    H169361   6.447   2.441   2.957 -1.0856  0.0920 -1.3499
15982TIP3    H269362   6.537   2.323   2.984 -2.2534 -0.2719  1.2419
15983TIP3   OH269363   2.268   0.137  13.240 -0.4590 -0.1032  0.0730
15983TIP3    H169364   2.318   0.216  13.218 -0.3747 -0.1864 -0.0355
15983TIP3    H269365   2.334   0.074  13.268 -0.5515 -0.0439  0.4365
15984TIP3   OH269366   6.054   2.012   4.760 -0.1259  0.0637  0.6457
15984TIP3    H169367   5.974   1.998   4.709 -0.4834  1.7033  0.6948
15984TIP3    H269368   6.036   2.091   4.811  0.9145 -0.5095  1.9414
15985TIP3   OH269369   6.551   4.009   2.983  0.0204  0.0145  0.5482
15985TIP3    H169370   6.511   3.932   2.942 -1.4125  0.6946  0.5850
15985TIP3    H269371   6.601   3.974   3.057 -1.0374 -0.8518  0.8886
15986TIP3   OH269372   6.373   0.438   5.145 -0.4363  0.2063  0.0714
15986TIP3    H169373   6.424   0.402   5.072 -0.2021  0.9368 -0.1266
15986TIP3    H269374   6.436   0.447   5.216 -0.4266  0.5127  0.0241
15987TIP3   OH269375   6.378   5.958   5.415  0.2971  0.3847  0.0349
15987TIP3    H169376   6.297   6.006   5.432 -0.8295 -1.3641 -0.1522
15987TIP3    H269377   6.385   5.896   5.487  1.4267  0.4233 -0.0169
15988TIP3   OH269378   3.425   1.822  16.968  0.1845 -0.2872  0.2775
15988TIP3    H169379   3.378   1.751  17.012  0.3790  0.2060  1.3015
15988TIP3    H269380   3.382   1.902  16.997  0.0104  0.0424 -0.8185
15989TIP3   OH269381   4.809   2.136   0.305  0.4422  0.2333  0.1415
15989TIP3    H169382   4.716   2.132   0.283  0.3694 -0.4227  0.5538
15989TIP3    H269383   4.824   2.060   0.362  0.9652  1.0072  1.0731
15990TIP3   OH269384   5.681   6.447  11.485  0.2784  0.1122  0.3021
15990TIP3    H169385   5.611   6.383  11.498  0.6769 -0.8269 -1.7415
15990TIP3    H269386   5.734   6.442  11.564 -1.3558  0.1096  1.4496
15991TIP3   OH269387   4.831   5.394   1.275  0.1799  0.2127  0.4534
15991TIP3    H169388   4.751   5.375   1.325  0.0330  0.4335  0.3075
15991TIP3    H269389   4.806   5.379   1.184  0.9182 -1.7833  0.5497
15992TIP3   OH269390   6.538   3.585  10.796 -0.2455  0.3968  0.2086
15992TIP3    H169391   6.444   3.581  10.779 -0.1748 -1.3177  0.0628
15992TIP3    H269392   6.579   3.574  10.710  0.0790  0.1162  0.3949
15993TIP3   OH269393   3.019   0.309  14.115  0.2805  0.7352  0.3303
15993TIP3    H169394   3.104   0.290  14.076  0.0552 -0.4517  0.3830
15993TIP3    H269395   3.034   0.303  14.210 -0.0957 -0.6448  0.3226
15994TIP3   OH269396   2.287   3.233   1.154  0.3176 -0.6415 -0.6755
15994TIP3    H169397   2.321   3.293   1.221 -1.1281  0.6486 -1.0657
15994TIP3    H269398   2.348   3.242   1.081  1.4389 -1.4495  0.1117
15995TIP3   OH269399   0.013   3.908   4.853  0.1806  0.2396 -0.9871
15995TIP3    H169400   0.005   3.943   4.942 -0.0537  0.0939 -0.9501
15995TIP3    H269401   0.064   3.827   4.864  0.3720  0.3541 -1.0200
15996TIP3   OH269402   5.649   5.611   2.790  0.3742 -0.8973  0.5335
15996TIP3    H169403   5.585   5.646   2.728 -0.2684 -2.8284  0.0302
15996TIP3    H269404   5.675   5.686   2.842 -0.6853  0.3685 -0.6702
15997TIP3   OH269405   0.699   2.232  11.911 -0.2520  0.3249 -0.2869
15997TIP3    H169406   0.730   2.142  11.907  0.6185  0.6296 -0.7498
15997TIP3    H269407   0.762   2.277  11.967 -0.5730  0.6859 -0.2089
15998TIP3   OH269408   6.432   0.935   0.173 -0.4537  0.7279 -0.2156
15998TIP3    H169409   6.358   0.901   0.124 -0.0931 -0.3957 -0.0029
15998TIP3    H269410   6.393   0.975   0.251 -0.7433 -3.0398  1.8102
15999TIP3   OH269411   0.321   5.598   3.275  0.2268  0.3159 -0.1106
15999TIP3    H169412   0.240   5.576   3.229 -0.4397  1.0044  0.7016
15999TIP3    H269413   0.360   5.669   3.224 -0.2964  0.7959  0.1553
16000TIP3   OH269414   5.910   6.600   0.202  0.0283  0.0256 -0.2307
16000TIP3    H169415   5.951   6.686   0.190 -0.0144  0.3696  1.7783
16000TIP3    H269416   5.869   6.605   0.288  0.5033 -2.2019  0.1816
16001TIP3   OH269417   5.039   3.511  14.651  0.2121  0.6143 -0.1703
16001TIP3    H169418   5.002   3.476  14.733  0.9906  0.5431  0.1597
16001TIP3    H269419   5.092   3.439  14.616  1.6065  1.3499  0.3735
16002TIP3   OH269420   5.002   2.325  11.972 -0.0232 -0.0144 -0.2949
16002TIP3    H169421   4.992   2.294  12.062 -0.2643 -0.1024 -0.3498
16002TIP3    H269422   5.090   2.361  11.968  0.6088 -1.5295 -0.4704
16003TIP3   OH269423   4.706   5.413  12.836  0.0175  0.7116 -0.0221
16003TIP3    H169424   4.621   5.446  12.864 -0.0163  0.4798  0.1545
16003TIP3    H269425   4.700   5.408  12.741 -0.4123  0.0398  0.0332
16004TIP3   OH269426   1.872   5.665   6.469  0.1091 -0.0998  0.0351
16004TIP3    H169427   1.806   5.730   6.445 -0.6765 -1.4382 -1.5344
16004TIP3    H269428   1.854   5.646   6.561 -0.6087  0.7697  0.0917
16005TIP3   OH269429   5.288   6.484   3.248 -0.2614  0.1259 -0.1984
16005TIP3    H169430   5.226   6.512   3.315 -2.5252 -0.4080 -1.9301
16005TIP3    H269431   5.321   6.565   3.210  0.5203  0.4213  1.0533
16006TIP3   OH269432   4.843   1.892  12.491  0.0343  0.4866 -0.4221
16006TIP3    H169433   4.833   1.864  12.401  1.5930 -0.1911 -0.4180
16006TIP3    H269434   4.815   1.817  12.543 -1.9314  1.2624 -0.2884
16007TIP3   OH269435   3.591   4.539  13.749 -0.0799 -0.2252 -0.2995
16007TIP3    H169436   3.537   4.618  13.753 -2.8101 -2.0039  0.0516
16007TIP3    H269437   3.658   4.553  13.817 -1.0709  1.3640  0.4127
16008TIP3   OH269438   2.091   3.696  12.096 -0.3694 -0.2612  0.1332
16008TIP3    H169439   2.083   3.601  12.097  1.2764 -0.4308  0.5632
16008TIP3    H269440   2.027   3.725  12.031 -0.2065 -1.7424 -0.7307
16009TIP3   OH269441   5.508   3.903   0.807  0.0769  0.2306 -0.9543
16009TIP3    H169442   5.454   3.964   0.758  0.7807  1.3888 -0.3333
16009TIP3    H269443   5.578   3.957   0.843  1.0407 -1.0500 -0.8544
16010TIP3   OH269444   0.503   4.149  14.705  0.4237 -0.0752 -0.0260
16010TIP3    H169445   0.474   4.154  14.614  1.9235  2.4589 -0.4760
16010TIP3    H269446   0.541   4.062  14.714  0.9758 -0.1089 -2.1026
16011TIP3   OH269447   5.941   6.185  15.781 -0.2055 -0.3168 -0.2119
16011TIP3    H169448   5.970   6.094  15.776  2.6666  0.4737  0.1251
16011TIP3    H269449   6.007   6.233  15.730  0.8641  2.0247  3.0627
16012TIP3   OH269450   0.489   2.483  12.159  0.5420 -0.1166  0.2641
16012TIP3    H169451   0.542   2.533  12.097  0.4528 -1.4253 -0.9376
16012TIP3    H269452   0.452   2.411  12.106 -0.8157 -0.3824  1.4961
16013TIP3   OH269453   3.902   2.120   4.830 -0.1556 -0.4986 -0.8444
16013TIP3    H169454   3.962   2.092   4.899 -0.2879  1.8219  0.3145
16013TIP3    H269455   3.956   2.126   4.752  0.6445 -0.5054 -0.3025
16014TIP3   OH269456   1.262   4.764  14.195 -0.4839 -0.2263  0.2038
16014TIP3    H169457   1.252   4.829  14.264  0.5958 -0.9244  1.0614
16014TIP3    H269458   1.323   4.699  14.232 -0.1173 -0.7740 -1.2891
16015TIP3   OH269459   1.971   1.824  13.927  0.1029 -0.5997  0.1194
16015TIP3    H169460   2.018   1.800  14.007  0.4481  0.2650  0.1899
16015TIP3    H269461   1.964   1.742  13.878  0.4919 -1.0068  0.7289
16016TIP3   OH269462   3.445   3.630   3.922 -0.6233  0.0246 -0.4601
16016TIP3    H169463   3.502   3.597   3.852  0.7649 -0.6750  0.9569
16016TIP3    H269464   3.414   3.551   3.967 -1.0903  0.4879  0.0485
16017TIP3   OH269465   1.739   6.080   4.441  0.2985  0.4132 -0.3025
16017TIP3    H169466   1.646   6.074   4.421 -0.0095  0.5961  0.9480
16017TIP3    H269467   1.771   6.152   4.387 -0.1180 -0.1342 -1.2901
16018TIP3   OH269468   6.492   1.884   5.801 -0.1833  0.4932 -0.0939
16018TIP3    H169469   6.480   1.894   5.706  0.5771 -0.3263 -0.2955
16018TIP3    H269470   6.416   1.832   5.828  0.2698 -0.4052 -0.4966
16019TIP3   OH269471   0.022   4.253   5.903  0.0864 -0.6476  0.4012
16019TIP3    H169472  -0.020   4.242   5.988 -0.0890  1.1884  0.6092
16019TIP3    H269473   0.088   4.321   5.918 -0.0055 -0.2395 -0.9291
16020TIP3   OH269474   1.108   3.044   2.917 -0.6281  0.2756  0.6263
16020TIP3    H169475   1.203   3.029   2.922 -0.7407 -2.1057 -1.9348
16020TIP3    H269476   1.076   3.017   3.003  0.7933 -1.1935  0.7499
16021TIP3   OH269477   2.132   4.535  11.504  0.0457 -0.2336 -0.1278
16021TIP3    H169478   2.121   4.543  11.409  0.3126 -0.0486 -0.1416
16021TIP3    H269479   2.193   4.462  11.516 -0.5931 -0.7692 -0.0711
16022TIP3   OH269480   3.676   1.489   2.082 -0.3560  0.1796 -0.8769
16022TIP3    H169481   3.615   1.562   2.073  0.0562  0.5763 -0.5413
16022TIP3    H269482   3.762   1.528   2.066 -0.0467 -0.0425  0.1523
16023TIP3   OH269483   1.053   5.239   0.936 -0.2172  0.3683  0.4206
16023TIP3    H169484   1.051   5.154   0.892 -0.0603  1.1542 -1.1691
16023TIP3    H269485   0.962   5.267   0.938 -0.1646  0.5766  0.0701
16024TIP3   OH269486   5.018   0.406  10.634  0.2741  0.3473 -0.1769
16024TIP3    H169487   4.985   0.333  10.687  1.2169  1.1178  1.5574
16024TIP3    H269488   5.108   0.419  10.664  0.2390  2.0242 -0.6851
16025TIP3   OH269489   1.515   3.696   0.047 -0.3226 -0.0072 -0.8249
16025TIP3    H169490   1.488   3.730  -0.038  0.0809 -1.9795 -1.8014
16025TIP3    H269491   1.608   3.720   0.054 -0.0362 -0.8586 -1.5096
16026TIP3   OH269492   1.979   1.202   3.231 -0.0006 -0.3025  0.0679
16026TIP3    H169493   1.995   1.133   3.166  0.1695  0.3127 -0.5575
16026TIP3    H269494   1.885   1.202   3.244  0.0318 -0.8877  0.3396
16027TIP3   OH269495   2.538   2.843  12.302 -0.4750  0.3838  0.7946
16027TIP3    H169496   2.608   2.887  12.254 -0.1591 -0.9744 -0.0194
16027TIP3    H269497   2.463   2.903  12.294  0.2745  1.3570  0.7855
16028TIP3   OH269498   3.433   1.155   4.598  0.3023  0.0059 -0.4243
16028TIP3    H169499   3.523   1.157   4.628  0.5788 -1.4095 -1.0817
16028TIP3    H269500   3.389   1.093   4.656 -0.2887  0.7163 -0.0764
16029TIP3   OH269501   2.706   5.496   5.056  0.1879  0.3297  0.5936
16029TIP3    H169502   2.674   5.572   5.007  0.8935  0.2662  0.0172
16029TIP3    H269503   2.671   5.420   5.009 -1.0210  0.2815  1.5166
16030TIP3   OH269504   3.466   0.768   0.010  0.2337  0.3793  0.1228
16030TIP3    H169505   3.517   0.776   0.090  0.9738 -0.2123 -0.2795
16030TIP3    H269506   3.501   0.690  -0.033 -1.6852 -0.6447  0.3141
16031TIP3   OH269507   4.049   1.079   2.738 -0.4339  0.3477  0.6107
16031TIP3    H169508   4.068   1.008   2.798 -2.3954 -0.6406  0.1487
16031TIP3    H269509   4.030   1.036   2.655  2.1270  1.6653 -0.7913
16032TIP3   OH269510   1.651   3.733  14.271 -0.3311  0.2196 -1.2068
16032TIP3    H169511   1.602   3.813  14.289  1.3194  1.0939 -0.3485
16032TIP3    H269512   1.586   3.663  14.278 -1.3661  1.2595  0.4249
16033TIP3   OH269513   1.925   3.370   2.158 -0.3351  0.2952  0.1512
16033TIP3    H169514   1.908   3.450   2.208 -1.6114  0.3837 -0.3798
16033TIP3    H269515   2.019   3.370   2.143  0.1600  0.1558  2.7370
16034TIP3   OH269516   2.300   0.159  11.278  0.3230  0.1710  0.0319
16034TIP3    H169517   2.333   0.219  11.212 -0.3332  1.0182  0.4540
16034TIP3    H269518   2.303   0.073  11.236 -0.4738  0.7435 -1.2432
16035TIP3   OH269519   0.504   4.476   6.010  0.2169  0.0997 -0.5966
16035TIP3    H169520   0.470   4.554   6.055  2.2170  1.6469 -1.5753
16035TIP3    H269521   0.496   4.406   6.074 -1.5852  1.0970  0.3589
16036TIP3   OH269522   4.564   6.461  13.965  1.0437 -0.5057 -0.0288
16036TIP3    H169523   4.500   6.512  13.915  1.2553 -0.2505 -0.0385
16036TIP3    H269524   4.558   6.496  14.054  2.7905  1.1096 -0.4920
16037TIP3   OH269525   5.068   1.334  11.135 -0.4868  0.0294  0.0268
16037TIP3    H169526   4.990   1.314  11.083  0.4261 -0.7894 -1.0629
16037TIP3    H269527   5.082   1.255  11.188  0.6941 -0.6034 -1.1908
16038TIP3   OH269528   1.929   1.222  10.747 -0.0329 -0.4381 -0.1946
16038TIP3    H169529   1.911   1.244  10.838 -0.4565  0.0961 -0.4039
16038TIP3    H269530   1.964   1.133  10.751 -0.7988 -0.7286  0.4199
16039TIP3   OH269531   3.300   0.015  16.351 -0.1090 -0.3320 -0.2451
16039TIP3    H169532   3.259  -0.069  16.370 -1.6498  0.3946 -0.1497
16039TIP3    H269533   3.284   0.028  16.257 -2.2738  0.9977  0.2205
16040TIP3   OH269534   1.084   5.160   2.540  0.5429  0.3264  0.3607
16040TIP3    H169535   1.004   5.148   2.590  1.4215 -2.8400  1.2345
16040TIP3    H269536   1.154   5.153   2.605  1.6182  0.5189 -0.7383
16041TIP3   OH269537   6.167   2.302  15.522  0.3948 -0.2644 -0.1891
16041TIP3    H169538   6.225   2.378  15.517 -0.9356  0.9711  1.5845
16041TIP3    H269539   6.206   2.246  15.590 -0.3003  0.4516  0.8334
16042TIP3   OH269540   5.225   3.022  13.508  0.3242  0.2783 -0.5194
16042TIP3    H169541   5.160   2.980  13.565  0.7038  1.3913  0.7779
16042TIP3    H269542   5.250   3.101  13.555  1.1903  0.8640 -1.9225
16043TIP3   OH269543   3.770   2.055   5.857  0.0818 -0.2906  0.2207
16043TIP3    H169544   3.774   2.091   5.945 -1.6198 -0.8172  0.5593
16043TIP3    H269545   3.849   2.002   5.848  0.5308  0.1862  1.2311
16044TIP3   OH269546   5.273   2.140  13.262  0.8191  0.4456  0.6705
16044TIP3    H169547   5.349   2.083  13.247  0.3481 -0.2333  0.8529
16044TIP3    H269548   5.312   2.226  13.278  1.6353 -0.1731  2.2242
16045TIP3   OH269549   5.364   4.131  15.643  0.2986 -0.4449 -0.1970
16045TIP3    H169550   5.386   4.041  15.666 -0.6882 -0.4487  0.8242
16045TIP3    H269551   5.375   4.135  15.548  0.0650 -1.7203 -0.2966
16046TIP3   OH269552   5.231   3.386  12.740  0.6837 -0.5251  0.0745
16046TIP3    H169553   5.168   3.458  12.743  1.3309  0.0987 -0.7098
16046TIP3    H269554   5.275   3.397  12.656  2.3115 -0.5218  0.8946
16047TIP3   OH269555   5.251   5.078  13.806 -0.0824  0.2206 -0.0099
16047TIP3    H169556   5.244   5.022  13.729 -0.7736  0.7148 -0.3158
16047TIP3    H269557   5.170   5.063  13.855  0.2377  0.1000  0.4880
16048TIP3   OH269558   3.395   2.361   2.812 -0.0384  0.3047 -0.7878
16048TIP3    H169559   3.490   2.358   2.829 -0.3393 -0.6853  0.9036
16048TIP3    H269560   3.388   2.343   2.718  1.4212 -0.4019 -0.8057
16049TIP3   OH269561   3.850   4.221   0.758  0.3138  0.4510  0.0808
16049TIP3    H169562   3.853   4.264   0.673  0.5162 -0.0059 -0.1469
16049TIP3    H269563   3.936   4.181   0.769  0.9945  2.1310  1.3766
16050TIP3   OH269564   2.939   0.438  16.283  0.0766 -0.2805 -0.1560
16050TIP3    H169565   3.010   0.375  16.268  1.2479  0.7657  0.7252
16050TIP3    H269566   2.976   0.522  16.256 -0.4510  0.4408  1.2707
16051TIP3   OH269567   1.605   5.316   0.522 -0.2467  0.0338  0.0066
16051TIP3    H169568   1.573   5.381   0.584  0.6581 -1.2259  1.8641
16051TIP3    H269569   1.544   5.242   0.530  0.9781 -0.9264  0.9119
16052TIP3   OH269570   2.453   1.275  13.231 -0.2281 -0.6611  0.2515
16052TIP3    H169571   2.459   1.215  13.157  1.5893 -0.3712  0.1249
16052TIP3    H269572   2.416   1.355  13.194  2.1702  0.0623 -0.7835
16053TIP3   OH269573   4.020   6.177  13.603 -0.2996 -0.4889  0.5203
16053TIP3    H169574   4.086   6.246  13.603 -0.8165  0.0680 -1.4443
16053TIP3    H269575   3.957   6.204  13.670 -0.7463  1.2562 -0.5311
16054TIP3   OH269576   5.490   6.761   4.526  0.3291 -0.5630  0.4636
16054TIP3    H169577   5.464   6.819   4.598 -0.7608 -0.1105 -0.2711
16054TIP3    H269578   5.580   6.786   4.507  0.5593 -0.5364  1.5130
16055TIP3   OH269579   2.724   0.305  16.857 -0.4362 -0.1157  0.0860
16055TIP3    H169580   2.634   0.302  16.889 -0.5108 -0.3160 -0.1410
16055TIP3    H269581   2.719   0.270  16.768 -0.0419 -0.6866  0.2817
16056TIP3   OH269582   0.010   0.915   0.680 -0.0316  0.0552 -0.0334
16056TIP3    H169583   0.007   0.948   0.591 -0.3068  1.3752  0.4345
16056TIP3    H269584   0.028   0.822   0.671 -1.0539 -0.0298 -1.4930
16057TIP3   OH269585   6.069   2.902   5.156 -0.0825 -0.1834  0.0871
16057TIP3    H169586   6.128   2.927   5.227  0.7958 -0.9213 -0.3654
16057TIP3    H269587   6.119   2.839   5.104 -1.5709 -1.4995  0.1840
16058TIP3   OH269588   3.046   2.135  12.060 -0.7943 -0.5031  0.2511
16058TIP3    H169589   3.031   2.092  11.976  1.0193 -0.9899  0.1208
16058TIP3    H269590   3.134   2.107  12.085 -1.2331 -0.2254  2.2458
16059TIP3   OH269591   4.001   1.835   4.578 -0.2833  0.4898  0.5773
16059TIP3    H169592   4.012   1.929   4.591 -0.0616  1.1849 -3.3517
16059TIP3    H269593   3.912   1.825   4.544  0.5742 -0.2401 -1.6805
16060TIP3   OH269594   0.556   0.180   5.404 -0.2921  0.5405 -0.0771
16060TIP3    H169595   0.576   0.188   5.311  0.0498  0.8121  0.0161
16060TIP3    H269596   0.564   0.269   5.438  0.1495  0.3564  0.3179
16061TIP3   OH269597   5.332   0.136  15.207  0.0251  0.1236 -0.2536
16061TIP3    H169598   5.382   0.210  15.240  1.5966 -0.5850 -0.9774
16061TIP3    H269599   5.271   0.175  15.144  0.1566  0.9169  0.1005
16062TIP3   OH269600   1.295   6.350   6.398  0.4919  0.4408  0.2653
16062TIP3    H169601   1.341   6.434   6.405 -0.3058  0.9925 -0.7640
16062TIP3    H269602   1.365   6.285   6.400  1.1952  1.1707  0.2874
16063TIP3   OH269603   1.929   4.087  13.539  0.1831 -0.2663  0.5143
16063TIP3    H169604   1.960   4.087  13.449  1.5375  2.0096  0.9128
16063TIP3    H269605   1.873   4.164  13.546 -0.7343 -0.9764  1.3820
16064TIP3   OH269606   1.001   2.820  11.217  0.0379 -0.4820  0.0692
16064TIP3    H169607   1.013   2.803  11.124  1.5552 -0.9399  0.3168
16064TIP3    H269608   0.938   2.892  11.221  1.0425  0.5337 -1.3625
16065TIP3   OH269609   2.752   1.527   4.238 -0.3557 -0.1438  0.1784
16065TIP3    H169610   2.733   1.615   4.206 -0.4262  0.8286  2.6900
16065TIP3    H269611   2.670   1.479   4.226 -1.1008  0.8675  0.9938
16066TIP3   OH269612   5.028   1.172   3.430 -1.0483 -0.2214 -0.3448
16066TIP3    H169613   5.001   1.148   3.519 -0.0337 -1.5337 -0.3700
16066TIP3    H269614   4.978   1.114   3.373 -1.4950  0.4346 -0.6302
16067TIP3   OH269615   0.819   3.713  13.545  0.5776  0.8225 -0.5334
16067TIP3    H169616   0.773   3.707  13.628  3.2155  0.2751  1.0054
16067TIP3    H269617   0.815   3.625  13.509 -1.7705  1.3591 -1.7822
16068TIP3   OH269618   4.239   1.630   4.173  0.1055  0.3157 -0.8020
16068TIP3    H169619   4.221   1.672   4.257 -0.9567 -0.3117 -0.6968
16068TIP3    H269620   4.247   1.537   4.194 -0.2893  0.1415 -1.4106
16069TIP3   OH269621   6.590   2.455  13.273  0.3751  0.1321 -0.0721
16069TIP3    H169622   6.677   2.426  13.300  1.5920  2.2843 -1.3218
16069TIP3    H269623   6.549   2.487  13.353  0.4434 -1.4629  0.6381
16070TIP3   OH269624   5.313   2.255   0.425 -0.7384 -0.2720  0.3099
16070TIP3    H169625   5.358   2.278   0.344 -0.0837 -0.7501  0.5332
16070TIP3    H269626   5.361   2.302   0.493 -1.1660 -0.0263  0.4443
16071TIP3   OH269627   3.733   1.683   5.462  1.0395 -0.3440  0.0785
16071TIP3    H169628   3.688   1.732   5.530  0.7996 -2.7897  1.8301
16071TIP3    H269629   3.825   1.686   5.487  1.0878 -0.3419 -0.0996
16072TIP3   OH269630   2.542   4.568   1.234 -0.2594 -0.5982 -0.4018
16072TIP3    H169631   2.538   4.474   1.215 -0.9329 -0.3401 -1.6351
16072TIP3    H269632   2.461   4.585   1.282 -0.7181 -0.4524 -1.2023
16073TIP3   OH269633   4.214   1.946  14.579  0.0603  0.3439  0.1314
16073TIP3    H169634   4.167   2.013  14.529 -0.1301 -0.0643 -0.2409
16073TIP3    H269635   4.193   1.864  14.535  0.7155  0.0977  0.2697
16074TIP3   OH269636   1.032   5.798  15.881  0.3808 -0.8995 -0.5818
16074TIP3    H169637   1.097   5.866  15.866  0.7336 -1.0820  0.0912
16074TIP3    H269638   1.079   5.729  15.927 -0.1515 -1.2788 -0.5986
16075TIP3   OH269639   4.420   4.401   0.480  0.0306  0.0232  0.9579
16075TIP3    H169640   4.375   4.423   0.398  0.5734  1.9251  1.1305
16075TIP3    H269641   4.507   4.370   0.451  0.3244  0.9615  0.8115
16076TIP3   OH269642   0.717   0.865   5.124  0.1603 -0.1472  0.1235
16076TIP3    H169643   0.668   0.935   5.166 -0.7164 -1.7627  1.9286
16076TIP3    H269644   0.808   0.895   5.126 -0.2533  1.1722  0.3217
16077TIP3   OH269645   0.055   4.552   0.655  0.3520 -0.0308 -0.0929
16077TIP3    H169646   0.023   4.496   0.585 -1.1733 -1.3746  1.5672
16077TIP3    H269647   0.139   4.515   0.680 -1.0834 -2.3882  1.6698
16078TIP3   OH269648   2.671   1.359  16.073 -0.9189  0.4287  0.0024
16078TIP3    H169649   2.750   1.386  16.120 -0.8118 -1.5917  1.0957
16078TIP3    H269650   2.658   1.427  16.008  1.7446  0.8520 -0.2190
16079TIP3   OH269651   3.542   1.321  14.662  0.2537 -0.1224  0.1087
16079TIP3    H169652   3.548   1.318  14.758  0.6783 -0.3283  0.0777
16079TIP3    H269653   3.454   1.355  14.645  1.0323  2.3969  0.5923
16080TIP3   OH269654   3.200   1.208   3.360  0.3118  0.1495 -0.1824
16080TIP3    H169655   3.116   1.177   3.326  0.4341 -0.8710  0.4147
16080TIP3    H269656   3.264   1.180   3.294  0.3288 -0.1786 -0.0273
16081TIP3   OH269657   1.026   4.849  16.331  0.7057 -0.1655  0.2624
16081TIP3    H169658   1.045   4.841  16.424 -0.4674 -0.6531  0.4809
16081TIP3    H269659   0.930   4.849  16.326  0.7510 -0.4364 -0.9597
16082TIP3   OH269660   0.966   1.221   3.273  0.4108  0.0947 -0.0383
16082TIP3    H169661   0.932   1.151   3.329  0.3082  0.2269  0.0652
16082TIP3    H269662   1.037   1.179   3.224 -0.1334 -0.2824 -0.5270
16083TIP3   OH269663   3.912   1.647  16.455 -0.1093  0.0657  0.3240
16083TIP3    H169664   3.957   1.620  16.536  0.9473  0.7950  0.0086
16083TIP3    H269665   3.830   1.686  16.486 -0.7759 -1.6743  0.8893
16084TIP3   OH269666   1.402   3.284  12.285 -0.1631 -0.0607 -0.3996
16084TIP3    H169667   1.337   3.248  12.226  2.5335 -3.2109 -1.7831
16084TIP3    H269668   1.419   3.372  12.253 -2.1795  0.0455 -1.2657
16085TIP3   OH269669   2.526   5.315  11.089  0.1709 -0.0319 -0.8280
16085TIP3    H169670   2.601   5.366  11.121 -0.2965  0.5508 -0.6380
16085TIP3    H269671   2.550   5.224  11.106  0.8788  0.1432 -0.8605
16086TIP3   OH269672   6.658   0.686  14.815 -0.4991  0.4657  0.5302
16086TIP3    H169673   6.584   0.723  14.768  0.5548  0.0390 -1.6294
16086TIP3    H269674   6.651   0.592  14.801  0.8217  0.4753 -0.3591
16087TIP3   OH269675   4.568   6.469  15.441 -0.5323  0.3800  0.4642
16087TIP3    H169676   4.658   6.487  15.414  0.2125  0.2695  2.6193
16087TIP3    H269677   4.527   6.428  15.365  1.0514  0.9956 -0.7606
16088TIP3   OH269678   4.535   2.197   2.210 -0.3977  0.1211  0.2553
16088TIP3    H169679   4.553   2.147   2.289  0.0098  1.1193  0.8002
16088TIP3    H269680   4.465   2.257   2.235  0.3574  1.0745  0.1313
16089TIP3   OH269681   4.933   1.820   5.783  0.6627  0.3626  0.0131
16089TIP3    H169682   4.984   1.749   5.745 -0.5019 -1.0516  0.9819
16089TIP3    H269683   4.978   1.840   5.865  0.1181 -0.3720  0.5055
16090TIP3   OH269684   2.736   3.942  15.271 -0.5587  0.0899 -0.0688
16090TIP3    H169685   2.699   4.011  15.216  0.6207 -0.0743 -1.1134
16090TIP3    H269686   2.760   3.986  15.352 -1.0453  0.6170 -0.2025
16091TIP3   OH269687   5.629   4.088   0.593  0.6525  0.8072  0.8710
16091TIP3    H169688   5.659   4.099   0.684 -0.3722  0.5374  1.2510
16091TIP3    H269689   5.689   4.024   0.556  0.1648 -0.2307  1.8164
16092TIP3   OH269690   5.003   0.672   1.041 -0.3452  0.4585  0.1017
16092TIP3    H169691   5.023   0.584   1.010 -0.5474  0.8765 -1.2880
16092TIP3    H269692   4.992   0.663   1.136 -1.6195 -1.2461 -0.1766
16093TIP3   OH269693   5.806   5.529  13.474 -0.4042 -0.0486 -0.3277
16093TIP3    H169694   5.795   5.589  13.548 -0.1018 -0.8616  0.3960
16093TIP3    H269695   5.716   5.507  13.448 -0.5953  2.0648 -1.7850
16094TIP3   OH269696   4.283   5.011   3.153 -0.2341 -0.0733 -0.2105
16094TIP3    H169697   4.325   4.949   3.093 -0.9191  0.5897 -1.4119
16094TIP3    H269698   4.208   4.963   3.187 -0.9839  0.1769 -1.4308
16095TIP3   OH269699   4.183   2.468  10.859  0.0302 -0.0143  0.0287
16095TIP3    H169700   4.276   2.447  10.860 -0.2600 -1.4162 -0.0553
16095TIP3    H269701   4.172   2.536  10.925  1.2391  0.8132 -0.5831
16096TIP3   OH269702   5.598   0.211   1.325 -0.2768 -0.2390  0.6701
16096TIP3    H169703   5.616   0.119   1.308 -0.1300  0.0876 -1.1103
16096TIP3    H269704   5.511   0.211   1.365 -0.0543 -1.1719  1.1941
16097TIP3   OH269705   2.990   5.130   1.837 -0.1787  0.7786 -0.8912
16097TIP3    H169706   3.040   5.190   1.892  1.2733 -0.2108 -1.0562
16097TIP3    H269707   3.032   5.136   1.751 -0.5556  0.1727 -1.1247
16098TIP3   OH269708   4.092   3.878  15.521 -0.2787 -0.2334 -0.1990
16098TIP3    H169709   4.167   3.859  15.464 -0.1124 -0.7345  0.1756
16098TIP3    H269710   4.095   3.809  15.587 -0.5081  0.3062  0.3821
16099TIP3   OH269711   5.340   6.547  14.478 -0.4814 -0.2470 -0.7407
16099TIP3    H169712   5.260   6.520  14.433 -0.7943 -1.0250  0.2413
16099TIP3    H269713   5.395   6.584  14.409 -0.3796 -2.6196 -2.0574
16100TIP3   OH269714   0.937   4.497   0.447  0.0585 -0.7278 -0.2506
16100TIP3    H169715   1.024   4.519   0.478  0.0884 -2.1137  0.7131
16100TIP3    H269716   0.881   4.505   0.524 -0.9448  1.4644 -1.1424
16101TIP3   OH269717   0.144   2.147  13.337  0.1803 -0.6618 -0.5281
16101TIP3    H169718   0.088   2.077  13.303 -1.2624  0.1363  0.0615
16101TIP3    H269719   0.196   2.175  13.262 -1.9832  0.1918 -1.8280
16102TIP3   OH269720   1.878   1.399   1.409  0.4696 -0.1613 -0.8416
16102TIP3    H169721   1.793   1.366   1.436  0.3763  1.2439  0.7661
16102TIP3    H269722   1.920   1.324   1.366 -1.2063 -1.1430 -0.8718
16103TIP3   OH269723   3.912   4.544  13.715  0.4788 -0.2455  0.0334
16103TIP3    H169724   3.897   4.567  13.806 -0.6949  0.6537 -0.3587
16103TIP3    H269725   3.860   4.464  13.702 -0.8261  0.6219 -0.2817
16104TIP3   OH269726   2.895   6.602  11.738 -0.2421  0.1875  0.2125
16104TIP3    H169727   2.951   6.669  11.778 -1.3275 -0.0396  2.2747
16104TIP3    H269728   2.951   6.525  11.730  0.0272  0.2501  1.3404
16105TIP3   OH269729   3.248   3.397   1.127 -0.1545 -0.0155  0.1076
16105TIP3    H169730   3.226   3.332   1.061 -1.1505  0.3858  0.0199
16105TIP3    H269731   3.342   3.410   1.119 -0.0073 -1.1700 -0.1210
16106TIP3   OH269732   1.177   4.072   4.922  0.0804 -0.3852  0.2757
16106TIP3    H169733   1.096   4.033   4.955 -1.4099  1.2290 -1.2873
16106TIP3    H269734   1.238   4.067   4.996 -1.1204 -2.4266  1.2159
16107TIP3   OH269735   6.257   0.291  12.262 -0.4394 -0.3679 -0.6045
16107TIP3    H169736   6.199   0.320  12.191 -1.7415 -0.0137  0.5782
16107TIP3    H269737   6.200   0.283  12.338  0.7675 -1.6258  0.2076
16108TIP3   OH269738   5.724   2.828  12.413 -0.1720 -0.6368  0.3955
16108TIP3    H169739   5.648   2.876  12.380  0.3508  0.5186  0.8067
16108TIP3    H269740   5.689   2.765  12.475 -1.0042 -1.6743 -1.0575
16109TIP3   OH269741   0.407   5.877  12.498 -0.3279 -0.5291 -0.2879
16109TIP3    H169742   0.490   5.924  12.510  0.9109 -1.8977 -2.6676
16109TIP3    H269743   0.364   5.924  12.426 -1.5372 -0.0215  0.7227
16110TIP3   OH269744   1.983   4.715  16.989 -0.4998  0.2393  0.0451
16110TIP3    H169745   1.985   4.681  16.900 -0.4051  1.5225 -0.4598
16110TIP3    H269746   2.041   4.792  16.987  0.6941 -0.5557  1.5810
16111TIP3   OH269747   2.308   2.865  14.995 -0.1018 -0.0921  0.1978
16111TIP3    H169748   2.274   2.822  15.073  0.3445 -0.2636  0.2991
16111TIP3    H269749   2.380   2.809  14.965 -0.2186  0.0107 -0.2945
16112TIP3   OH269750   3.567   1.763   1.583 -0.1843  0.1424 -0.2327
16112TIP3    H169751   3.573   1.674   1.549 -0.8447 -0.2104  0.5624
16112TIP3    H269752   3.521   1.755   1.666 -0.1999  1.2201 -0.1178
16113TIP3   OH269753   3.763   2.081   2.404  0.1389 -0.5062  0.0758
16113TIP3    H169754   3.761   2.169   2.444  1.1265  0.9412 -2.7665
16113TIP3    H269755   3.847   2.045   2.432 -0.0879 -0.4024  0.9330
16114TIP3   OH269756   4.257   0.306  10.595 -0.7221 -0.0002  0.0419
16114TIP3    H169757   4.334   0.265  10.556 -0.5152 -0.0180  0.4633
16114TIP3    H269758   4.225   0.241  10.658 -0.3402  0.5107  0.7786
16115TIP3   OH269759   6.503   3.912   2.175 -0.1720  0.1226  0.1735
16115TIP3    H169760   6.482   3.985   2.232  1.8248  0.0621  1.0726
16115TIP3    H269761   6.437   3.915   2.106 -1.0965  1.7600  1.0814
16116TIP3   OH269762   0.724   5.588   0.622  0.0846 -0.3290 -0.2296
16116TIP3    H169763   0.733   5.492   0.623  2.6299 -0.1756 -0.9049
16116TIP3    H269764   0.797   5.619   0.676 -0.9174  1.2546  0.2761
16117TIP3   OH269765   0.217   2.414  15.642 -0.0585 -0.2398 -0.6733
16117TIP3    H169766   0.305   2.383  15.662  0.8121  1.6964 -1.2347
16117TIP3    H269767   0.230   2.482  15.575 -1.9510  0.2690 -0.5864
16118TIP3   OH269768   0.168   5.170  14.091 -0.0587  0.4891  0.3337
16118TIP3    H169769   0.147   5.260  14.066 -2.0810  0.0252  0.1924
16118TIP3    H269770   0.155   5.168  14.186 -0.4462  0.2423  0.2771
16119TIP3   OH269771   5.851   2.419   5.616  0.3874 -0.4308 -0.0320
16119TIP3    H169772   5.924   2.416   5.678  0.2903  0.8891  0.1733
16119TIP3    H269773   5.867   2.498   5.565  0.5742 -1.5945 -1.8589
16120TIP3   OH269774   5.441   4.759  15.803 -0.5185  0.0450  0.2060
16120TIP3    H169775   5.383   4.834  15.789 -0.9085 -0.3401 -0.2852
16120TIP3    H269776   5.418   4.726  15.889 -0.1190  0.6826  0.5661
16121TIP3   OH269777   1.303   2.466  11.770 -0.1211 -0.1973 -0.1271
16121TIP3    H169778   1.374   2.402  11.768  0.5593  0.4928  0.9514
16121TIP3    H269779   1.225   2.415  11.795  0.1900 -0.7839 -0.3439
16122TIP3   OH269780   2.111   0.315  12.672  0.0739 -0.2119 -0.1407
16122TIP3    H169781   2.135   0.400  12.636 -0.2557  0.6418  1.5470
16122TIP3    H269782   2.082   0.264  12.596  0.3142  1.1550 -1.1953
16123TIP3   OH269783   6.608   0.287   0.843 -0.2196  0.7705 -0.2339
16123TIP3    H169784   6.584   0.196   0.862  0.7861  0.8037  1.4124
16123TIP3    H269785   6.559   0.308   0.764 -0.7876 -1.0748 -0.4406
16124TIP3   OH269786   3.727   5.462  15.036 -0.3243  0.3401  0.2994
16124TIP3    H169787   3.809   5.449  14.989 -0.9189  0.6129 -0.8512
16124TIP3    H269788   3.686   5.375  15.037 -1.1289  0.6642 -1.3055
16125TIP3   OH269789   3.978   0.004   2.567 -0.1524  0.6119 -0.2206
16125TIP3    H169790   3.900  -0.035   2.529 -0.1382  1.4648 -1.1640
16125TIP3    H269791   4.014  -0.064   2.624 -2.4343  0.7311  1.4976
16126TIP3   OH269792   6.620   3.889   3.590 -0.3320 -0.0945  0.2370
16126TIP3    H169793   6.566   3.967   3.605  0.2429 -0.0458  2.5658
16126TIP3    H269794   6.701   3.908   3.638  1.5112 -0.4619 -2.5432
16127TIP3   OH269795   4.807   0.397  12.720 -0.1885  0.5838 -0.5738
16127TIP3    H169796   4.789   0.400  12.626  0.2431 -0.9308 -0.7417
16127TIP3    H269797   4.787   0.306  12.744  2.5309  0.0903  0.1697
16128TIP3   OH269798   1.089   0.684  14.962  0.3170  0.3335  0.2715
16128TIP3    H169799   1.080   0.628  14.885 -1.3568 -0.4183  0.9459
16128TIP3    H269800   1.064   0.628  15.035  1.8800  1.0276  1.3862
16129TIP3   OH269801   4.191   6.253   3.597  0.4789 -0.5172 -0.1451
16129TIP3    H169802   4.103   6.229   3.627 -0.8808 -1.1902 -4.1428
16129TIP3    H269803   4.177   6.321   3.531  3.1764  0.6392  0.3171
16130TIP3   OH269804   4.879   0.114  17.107  0.2988 -0.0190  0.3000
16130TIP3    H169805   4.830   0.128  17.189  0.8032  0.3685  0.5376
16130TIP3    H269806   4.874   0.197  17.061 -1.9068 -0.8472 -1.1551
16131TIP3   OH269807   6.450   5.293   3.716 -0.4604 -0.5506  0.3242
16131TIP3    H169808   6.472   5.381   3.685 -0.4055 -1.2251 -1.6832
16131TIP3    H269809   6.358   5.282   3.694 -0.5878 -0.8407  0.9814
16132TIP3   OH269810   3.654   3.356  11.481  0.1400  0.2738 -0.1596
16132TIP3    H169811   3.696   3.273  11.458  0.3476  0.6072 -1.0345
16132TIP3    H269812   3.673   3.413  11.406 -2.0950  0.3492 -0.7227
16133TIP3   OH269813   4.202   2.003  17.071 -0.2126 -0.3409 -0.6947
16133TIP3    H169814   4.214   1.908  17.067  0.5186 -0.4834  2.1066
16133TIP3    H269815   4.216   2.033  16.982 -1.6955 -2.9663 -1.9193
16134TIP3   OH269816   3.514   2.734  14.426  0.0033 -0.2681  0.3773
16134TIP3    H169817   3.564   2.738  14.345 -0.0723 -2.5390  0.1542
16134TIP3    H269818   3.435   2.785  14.408  0.5890  0.3454 -0.5128
16135TIP3   OH269819   4.552   3.313  14.688  0.1706  0.2772  0.2091
16135TIP3    H169820   4.541   3.262  14.768 -1.1620  0.2917  0.0699
16135TIP3    H269821   4.628   3.274  14.644 -0.7034 -1.5025  0.1755
16136TIP3   OH269822   6.583   3.329   1.131  0.4310  0.8388 -0.1083
16136TIP3    H169823   6.612   3.250   1.085  0.7515  0.9933 -0.1709
16136TIP3    H269824   6.510   3.299   1.186 -1.5391  1.0804 -2.4304
16137TIP3   OH269825   4.302   6.302  15.611  0.8692  0.0824  0.1537
16137TIP3    H169826   4.222   6.267  15.651  0.2868  0.9520 -0.2352
16137TIP3    H269827   4.273   6.378  15.561  1.4774 -1.1722 -2.2979
16138TIP3   OH269828   4.099   4.993   3.671  0.4974 -0.1986  0.2639
16138TIP3    H169829   4.020   5.036   3.704  0.8491  1.3088 -0.7547
16138TIP3    H269830   4.158   5.065   3.650  1.1895 -1.1909 -1.3825
16139TIP3   OH269831   5.908   5.774  14.764  0.0726 -0.1673 -0.3926
16139TIP3    H169832   5.898   5.813  14.677  1.2353 -0.0806 -0.5070
16139TIP3    H269833   5.836   5.711  14.770  0.3943 -0.7136 -1.7253
16140TIP3   OH269834   2.321   3.505   1.762 -0.0543  0.5272 -0.2163
16140TIP3    H169835   2.307   3.514   1.857  0.2001 -1.3317  0.0260
16140TIP3    H269836   2.386   3.572   1.742  1.0257 -0.0445  1.2152
16141TIP3   OH269837   6.535   4.141  12.919 -0.4847  0.3295  0.5613
16141TIP3    H169838   6.553   4.179  13.005 -2.4336  0.3921  1.0011
16141TIP3    H269839   6.511   4.216  12.865 -0.6675  0.1388  0.3756
16142TIP3   OH269840   1.789   5.415  14.771  0.3659 -0.2008 -0.0905
16142TIP3    H169841   1.881   5.393  14.758  0.9153  2.1220 -0.7642
16142TIP3    H269842   1.786   5.457  14.857  0.1864  0.7325 -0.5321
16143TIP3   OH269843   4.339   6.669  14.601 -0.1108 -0.3135 -0.3181
16143TIP3    H169844   4.424   6.711  14.594 -0.0422 -0.7182 -3.8293
16143TIP3    H269845   4.314   6.650  14.510 -3.1664 -1.7743  0.6810
16144TIP3   OH269846   5.043   0.450   5.961 -0.7198 -0.0545  0.3264
16144TIP3    H169847   4.978   0.395   5.917 -1.4255  1.0019  0.0010
16144TIP3    H269848   5.037   0.426   6.053 -0.8614 -0.6770  0.1572
16145TIP3   OH269849   4.786   5.391   0.416  0.2039 -0.5339  0.0573
16145TIP3    H169850   4.839   5.317   0.384 -0.1687 -0.6883 -0.2118
16145TIP3    H269851   4.816   5.465   0.363  0.2460 -0.5930 -0.0034
16146TIP3   OH269852   4.559   6.088   4.654 -0.0503  0.4633  0.4772
16146TIP3    H169853   4.541   6.113   4.563  0.4115  0.0469  0.2678
16146TIP3    H269854   4.472   6.068   4.690 -0.3218  1.3823  0.3631
16147TIP3   OH269855   1.404   4.118  11.430 -0.3744  0.7119  0.4848
16147TIP3    H169856   1.377   4.203  11.396 -1.5161 -0.3184 -1.3009
16147TIP3    H269857   1.343   4.055  11.392  1.4187 -1.1244  0.4553
16148TIP3   OH269858   3.236   2.991  16.791 -0.7476  0.2878  1.0013
16148TIP3    H169859   3.201   2.902  16.792 -1.0962  0.4191  0.5039
16148TIP3    H269860   3.175   3.041  16.737  0.7731  0.2935 -0.7895
16149TIP3   OH269861   2.194   2.369   0.551 -0.0843 -0.5043  0.3056
16149TIP3    H169862   2.151   2.418   0.621  1.7931 -0.1966  1.3093
16149TIP3    H269863   2.250   2.432   0.508  0.0001 -1.0773 -0.4392
16150TIP3   OH269864   0.118   4.356   1.244 -0.0033 -0.2387  0.1273
16150TIP3    H169865   0.055   4.354   1.315  0.1043  0.8163  0.2585
16150TIP3    H269866   0.112   4.269   1.204 -0.0859 -0.8350  1.3932
16151TIP3   OH269867   5.496   4.321   2.177 -0.6072 -0.7587  0.0704
16151TIP3    H169868   5.536   4.315   2.090 -0.1232 -0.1021  0.2410
16151TIP3    H269869   5.415   4.271   2.169 -0.6942 -0.4990 -0.8319
16152TIP3   OH269870   2.136   0.918  13.528  0.6084  0.6367 -0.1276
16152TIP3    H169871   2.183   0.871  13.598  1.3469  1.5253  0.0064
16152TIP3    H269872   2.044   0.916  13.555  0.8736  0.9190  0.8689
16153TIP3   OH269873   0.127   1.538   0.476 -0.0014 -0.2395 -0.5358
16153TIP3    H169874   0.168   1.451   0.480  0.8710  0.1350 -1.0443
16153TIP3    H269875   0.180   1.592   0.534 -0.9992 -0.2045  0.3796
16154TIP3   OH269876   4.199   6.547  13.334  0.5966  0.0535 -0.2109
16154TIP3    H169877   4.138   6.562  13.406 -2.1079  0.3575 -2.3626
16154TIP3    H269878   4.254   6.625  13.332 -0.4952  0.8686  0.4619
16155TIP3   OH269879   3.474   0.170  13.368  0.1590 -0.5744  0.3253
16155TIP3    H169880   3.444   0.096  13.421 -0.2929 -0.2495  0.5193
16155TIP3    H269881   3.451   0.146  13.278  2.0212 -1.6897  0.0878
16156TIP3   OH269882   3.788   4.964  15.407 -0.0838 -0.3779  0.3432
16156TIP3    H169883   3.716   4.999  15.354  2.2619  1.0868 -2.1073
16156TIP3    H269884   3.802   4.876  15.373  0.5886  0.0996 -0.6661
16157TIP3   OH269885   6.163   3.946   0.217  0.1606  0.2072  0.1556
16157TIP3    H169886   6.100   4.011   0.188 -1.3882 -0.8721  0.9414
16157TIP3    H269887   6.145   3.869   0.163 -0.4336 -0.6861  1.5584
16158TIP3   OH269888   3.074   2.665  11.476 -0.2485  0.3763 -0.2756
16158TIP3    H169889   3.089   2.654  11.382  0.2194  2.0776 -0.4301
16158TIP3    H269890   3.150   2.714  11.507 -0.0624 -0.7402  1.1478
16159TIP3   OH269891   3.016   5.582   0.950 -0.3392  0.5738 -0.7413
16159TIP3    H169892   2.991   5.564   0.860 -2.0128 -0.6258 -0.0910
16159TIP3    H269893   3.050   5.498   0.982  0.5806  1.0813 -0.3292
16160TIP3   OH269894   6.248   2.167   1.473 -0.2844 -0.6885  0.3913
16160TIP3    H169895   6.240   2.241   1.412  1.5491 -0.2756  0.5996
16160TIP3    H269896   6.326   2.120   1.444 -0.0111 -1.1193  1.7363
16161TIP3   OH269897   6.257   4.435  15.307  0.8250  0.2775  0.2813
16161TIP3    H169898   6.186   4.474  15.359 -0.8998 -0.0647 -1.6576
16161TIP3    H269899   6.232   4.343  15.300  2.0569 -0.0831  0.4341
16162TIP3   OH269900   3.315   6.245   4.936  0.0186 -0.5388  0.0917
16162TIP3    H169901   3.358   6.182   4.880  0.2364  0.5710 -1.0281
16162TIP3    H269902   3.256   6.193   4.991  1.7148 -1.9181  0.6853
16163TIP3   OH269903   6.657   2.783   0.956 -0.5359  0.3018 -0.5258
16163TIP3    H169904   6.573   2.805   0.915 -0.4414  1.3634 -0.1884
16163TIP3    H269905   6.642   2.794   1.050 -0.4303 -0.9895 -0.3397
16164TIP3   OH269906   2.573   5.846  14.043 -0.2077  0.1176 -0.2651
16164TIP3    H169907   2.484   5.845  14.007 -0.8322 -0.1254  1.2070
16164TIP3    H269908   2.582   5.933  14.083 -0.6836 -0.6435  1.6280
16165TIP3   OH269909   4.273   2.674  12.372  0.4106 -0.3082 -0.3222
16165TIP3    H169910   4.209   2.605  12.355  2.4523 -2.4010 -0.0256
16165TIP3    H269911   4.239   2.720  12.449 -2.3769  0.8977 -2.1198
16166TIP3   OH269912   5.258   4.755   3.393 -1.0675 -0.0052 -0.7066
16166TIP3    H169913   5.311   4.731   3.318 -0.9585  0.1259 -0.6719
16166TIP3    H269914   5.297   4.708   3.467 -1.6738 -0.7902 -0.8712
16167TIP3   OH269915   5.890   4.227  15.536  0.1380  0.5093  0.2256
16167TIP3    H169916   5.886   4.240  15.441  0.3721 -0.5424  0.0538
16167TIP3    H269917   5.801   4.248  15.567 -0.3004 -0.3478 -0.4059
16168TIP3   OH269918   1.636   5.769   4.522  0.5401  0.1844 -0.7811
16168TIP3    H169919   1.595   5.841   4.570  1.7905  0.8191 -0.5978
16168TIP3    H269920   1.656   5.806   4.436  0.6695 -0.1205 -0.8811
16169TIP3   OH269921   3.534   4.726  14.360  0.0729 -0.1255 -0.2633
16169TIP3    H169922   3.518   4.632  14.358 -1.0033  0.0168  0.8160
16169TIP3    H269923   3.580   4.741  14.443 -0.0513  0.3445 -0.2754
16170TIP3   OH269924   4.323   6.378   1.099  0.0254 -0.2263  0.1999
16170TIP3    H169925   4.401   6.419   1.137 -0.2054  0.3961  0.0117
16170TIP3    H269926   4.253   6.400   1.160 -0.4221  1.1023 -0.7483
16171TIP3   OH269927   5.912   0.925   3.320  1.1731  0.5936  0.3169
16171TIP3    H169928   5.836   0.983   3.319 -1.0513 -1.9870  2.4701
16171TIP3    H269929   5.960   0.950   3.399  0.7837  0.2189  0.6792
16172TIP3   OH269930   2.989   6.413  16.155  0.9446  0.2886 -0.3604
16172TIP3    H169931   2.926   6.451  16.216 -1.1259 -2.5483 -0.5330
16172TIP3    H269932   2.978   6.463  16.074 -0.2376  0.6218 -0.0033
16173TIP3   OH269933   5.109   1.386   5.759  0.2592 -0.3940 -0.4471
16173TIP3    H169934   5.169   1.425   5.823  1.5041 -1.6239 -0.8190
16173TIP3    H269935   5.106   1.293   5.783 -2.1831 -0.2597  0.0716
16174TIP3   OH269936   2.194   0.280  14.359  0.1985  0.6912 -0.0119
16174TIP3    H169937   2.218   0.241  14.443 -2.5406  2.1065  1.5534
16174TIP3    H269938   2.198   0.207  14.297  0.7153 -0.7593  1.6485
16175TIP3   OH269939   4.535   5.256  16.128  0.5203 -0.1112  0.7776
16175TIP3    H169940   4.511   5.236  16.218  2.5372  1.4517  1.7586
16175TIP3    H269941   4.482   5.332  16.105  1.1391  0.4893  1.2724
16176TIP3   OH269942   6.493   4.040  14.351 -0.1284  0.0664 -0.5124
16176TIP3    H169943   6.557   4.028  14.422 -2.2307  1.9607  1.8946
16176TIP3    H269944   6.456   3.952  14.339  0.5453 -0.3851  0.4680
16177TIP3   OH269945   3.670   3.535   5.129  0.2509  0.4239 -0.3111
16177TIP3    H169946   3.582   3.498   5.124  1.1659 -1.9342 -0.0853
16177TIP3    H269947   3.725   3.475   5.079  1.9334  1.2359  0.4625
16178TIP3   OH269948   5.966   4.000  12.180  0.1308 -0.7815  0.1129
16178TIP3    H169949   5.989   4.045  12.099  1.4990  0.7127  1.2648
16178TIP3    H269950   6.049   3.965  12.212 -0.6096 -2.5430  0.2241
16179TIP3   OH269951   0.626   2.943   5.256 -0.4763  0.1680 -0.1039
16179TIP3    H169952   0.691   2.954   5.187 -0.5217 -1.3108 -0.4294
16179TIP3    H269953   0.561   3.011   5.239  1.0981  1.9064  0.4297
16180TIP3   OH269954   5.834   5.800  16.092  0.1001  0.5555 -0.1375
16180TIP3    H169955   5.864   5.890  16.081  0.3041  0.3842 -1.0846
16180TIP3    H269956   5.912   5.753  16.121 -0.0760  0.7335  0.6345
16181TIP3   OH269957   6.378   3.902   4.813  0.1879  0.1557  0.1038
16181TIP3    H169958   6.305   3.964   4.821 -1.9103 -2.3462  2.1200
16181TIP3    H269959   6.408   3.889   4.903  3.3508  1.2083 -0.6760
16182TIP3   OH269960   4.519   2.152  11.702  0.6276 -0.2745 -0.1086
16182TIP3    H169961   4.566   2.111  11.629  1.6280 -0.1410  0.4367
16182TIP3    H269962   4.493   2.079  11.758  0.7617 -0.3012 -0.0817
16183TIP3   OH269963   4.363   4.454  11.086 -0.6149  0.0901  0.0377
16183TIP3    H169964   4.307   4.493  11.019 -0.4591  0.7692  0.2930
16183TIP3    H269965   4.384   4.527  11.145  0.3179 -0.2071  0.0919
16184TIP3   OH269966   4.235   0.957   5.624 -0.3634  0.6865  0.4810
16184TIP3    H169967   4.166   0.920   5.568  0.6217 -1.3217  0.4794
16184TIP3    H269968   4.192   1.026   5.673 -2.3092 -0.2662  0.2208
16185TIP3   OH269969   5.770   1.582  13.053 -0.1982  0.5080  0.6162
16185TIP3    H169970   5.688   1.573  13.101  0.5738 -2.0671  1.6751
16185TIP3    H269971   5.825   1.510  13.087  1.4237  0.3026 -2.1519
16186TIP3   OH269972   5.930   5.359   1.289 -0.6698  0.2432  0.0221
16186TIP3    H169973   6.021   5.343   1.312 -1.2490 -2.2423  0.8609
16186TIP3    H269974   5.910   5.294   1.221 -2.2166 -0.3065  0.9540
16187TIP3   OH269975   0.482   2.579  15.794 -0.1346 -0.2829 -0.1465
16187TIP3    H169976   0.561   2.624  15.827 -0.1185 -0.9506  0.7734
16187TIP3    H269977   0.448   2.638  15.727  2.0256 -0.7140 -1.7335
16188TIP3   OH269978   2.352   5.771   0.405  0.2637 -0.0559  0.0724
16188TIP3    H169979   2.313   5.695   0.361  0.3816  0.3685 -0.7840
16188TIP3    H269980   2.420   5.733   0.461 -0.1941 -0.6467  0.2331
16189TIP3   OH269981   6.390   4.023   1.243  0.0300 -0.2952 -0.2446
16189TIP3    H169982   6.444   3.946   1.260 -0.2077 -0.4894 -0.3617
16189TIP3    H269983   6.311   3.988   1.201 -0.6703 -0.1390  0.8990
16190TIP3   OH269984   2.744   6.690   5.639  0.2208 -0.0012  0.3145
16190TIP3    H169985   2.756   6.784   5.623  2.0896 -0.3000 -0.3111
16190TIP3    H269986   2.797   6.672   5.717  0.3029 -0.6176  0.1202
16191TIP3   OH269987   2.412   4.564   5.407 -0.5596  0.2195 -0.1594
16191TIP3    H169988   2.368   4.481   5.425  0.7668 -0.3996  0.3362
16191TIP3    H269989   2.462   4.583   5.486 -0.6138  1.3456 -0.3790
16192TIP3   OH269990   6.023   5.349  11.472  0.2493  0.1428  0.0307
16192TIP3    H169991   6.007   5.436  11.436 -1.5273 -0.0051  0.3847
16192TIP3    H269992   5.950   5.296  11.441  1.7605 -1.4872 -0.8993
16193TIP3   OH269993   0.073   3.348  15.012 -0.0583 -0.1606  0.0766
16193TIP3    H169994   0.074   3.316  14.922 -0.6834 -1.5167  0.5292
16193TIP3    H269995   0.097   3.441  15.005 -1.4045  0.1073 -1.6124
16194TIP3   OH269996   4.631   6.552  13.318  0.1704 -0.3382 -0.2749
16194TIP3    H169997   4.607   6.471  13.275 -0.4541 -1.0019  1.2452
16194TIP3    H269998   4.611   6.620  13.254 -0.2363 -1.3115 -1.2079
16195TIP3   OH269999   4.069   5.243  11.514  0.4311  0.1120  0.0990
16195TIP3    H170000   4.078   5.337  11.533 -0.5475  0.2520 -0.0568
16195TIP3    H270001   4.038   5.240  11.424  0.9351 -0.3861 -0.0586
16196TIP3   OH270002   6.633   4.587  10.703 -0.5006  0.3112 -0.0499
16196TIP3    H170003   6.692   4.655  10.737 -1.1524  0.6693  0.3962
16196TIP3    H270004   6.609   4.535  10.781 -2.6507  1.6251  0.2638
16197TIP3   OH270005   2.405   5.853   3.710 -0.0220 -0.3784 -0.1555
16197TIP3    H170006   2.358   5.783   3.665 -0.7904  0.3340 -0.4911
16197TIP3    H270007   2.353   5.871   3.789  0.2423 -0.2766 -0.0015
16198TIP3   OH270008   0.871   4.446   0.702 -0.6587 -0.3779 -0.2932
16198TIP3    H170009   0.812   4.456   0.776 -0.8066 -1.3986 -0.2574
16198TIP3    H270010   0.958   4.437   0.741 -0.5221  0.6572 -0.3264
16199TIP3   OH270011   3.482   1.447   4.684  0.0542  0.5912 -0.2325
16199TIP3    H170012   3.549   1.449   4.615  0.5730  2.4340  0.2529
16199TIP3    H270013   3.439   1.362   4.674 -0.7670  1.2572 -3.6511
16200TIP3   OH270014   3.865   4.021  15.635 -0.1628 -0.0981  0.2341
16200TIP3    H170015   3.887   4.092  15.695  1.4050  0.3953 -0.8655
16200TIP3    H270016   3.948   3.976  15.618 -0.2508  0.5628 -2.5065
16201TIP3   OH270017   0.990   1.737  13.511 -0.5971 -0.4014  0.1586
16201TIP3    H170018   1.063   1.796  13.490 -0.8022 -0.5632 -1.0515
16201TIP3    H270019   1.021   1.688  13.587 -0.3118  1.0560  1.0288
16202TIP3   OH270020   3.853   1.135   1.222  0.1036 -0.9674 -0.0088
16202TIP3    H170021   3.775   1.095   1.183 -1.7420  2.9526 -0.8067
16202TIP3    H270022   3.920   1.131   1.153 -0.1177 -2.2469 -0.1728
16203TIP3   OH270023   3.178   4.594   1.133  0.3556 -0.8927 -0.6177
16203TIP3    H170024   3.272   4.596   1.118  0.4098  0.9189 -0.3203
16203TIP3    H270025   3.140   4.578   1.046  0.9185 -0.4766 -0.9454
16204TIP3   OH270026   1.015   5.626  14.369 -0.0746 -0.3435 -0.4966
16204TIP3    H170027   0.943   5.688  14.354 -0.0930 -0.2851 -0.1600
16204TIP3    H270028   1.034   5.591  14.282  0.2968  0.5284 -0.7750
16205TIP3   OH270029   0.994   3.962   5.377  0.5379  0.0952  0.4581
16205TIP3    H170030   1.014   3.988   5.467  0.1471  0.8559  0.3377
16205TIP3    H270031   0.963   3.872   5.383 -1.1166  0.6828  1.3109
16206TIP3   OH270032   4.569   0.136   4.446 -0.4895 -0.0441  0.0821
16206TIP3    H170033   4.652   0.139   4.493 -0.1541 -0.2077 -0.5051
16206TIP3    H270034   4.504   0.122   4.515  0.1403 -1.8073  0.3725
16207TIP3   OH270035   2.388   3.673   1.137 -0.3911  0.1216  0.3133
16207TIP3    H170036   2.438   3.755   1.136  1.8609 -1.1614 -0.6696
16207TIP3    H270037   2.336   3.677   1.056  1.6025 -0.4219 -1.0740
16208TIP3   OH270038   2.985   6.035  14.869 -0.3490  0.7332  0.2325
16208TIP3    H170039   3.035   5.953  14.868  3.0086  2.5720 -1.5825
16208TIP3    H270040   2.927   6.030  14.794  0.0634  0.1307 -0.0487
16209TIP3   OH270041   5.028   3.100   4.260  0.3861  0.3242  0.5654
16209TIP3    H170042   5.002   3.155   4.334 -1.9400  0.1152  0.0003
16209TIP3    H270043   5.038   3.161   4.187  1.8270  0.4261  0.8188
16210TIP3   OH270044   1.982   3.468   3.371 -0.2764 -0.7944  0.4209
16210TIP3    H170045   1.896   3.426   3.370 -1.5533  1.6543 -0.7618
16210TIP3    H270046   1.972   3.545   3.315  2.5405 -0.0937  0.7188
16211TIP3   OH270047   4.661   4.989   0.404  0.6866  0.0693  0.4087
16211TIP3    H170048   4.597   5.061   0.410  1.4109  0.7912 -0.3753
16211TIP3    H270049   4.688   4.989   0.312 -0.9186 -2.6496 -0.1780
16212TIP3   OH270050   1.779   2.216   5.416 -0.0507  0.1703  0.1770
16212TIP3    H170051   1.870   2.231   5.392  0.2793 -2.6921 -0.6444
16212TIP3    H270052   1.775   2.238   5.509  1.1812  1.3422 -0.0159
16213TIP3   OH270053   6.238   6.382   5.349 -0.2791 -0.1287  0.0829
16213TIP3    H170054   6.304   6.333   5.397  0.3222  0.2226 -0.3679
16213TIP3    H270055   6.164   6.390   5.410 -0.4262 -1.6481  0.1373
16214TIP3   OH270056   3.641   1.697   3.427 -0.6942  0.7013  0.1736
16214TIP3    H170057   3.576   1.686   3.496 -1.2129 -0.9582 -0.5291
16214TIP3    H270058   3.707   1.754   3.466 -1.3551  0.4387  1.7730
16215TIP3   OH270059   5.991   6.602   4.486  0.1078  0.1971  0.5898
16215TIP3    H170060   5.942   6.560   4.416  0.9853 -1.2618  0.8133
16215TIP3    H270061   5.962   6.558   4.566  1.2529 -0.2137  0.8003
16216TIP3   OH270062   3.415   2.681   3.513 -0.5611  0.0420 -0.1760
16216TIP3    H170063   3.418   2.603   3.458  0.9229 -1.0378  1.3232
16216TIP3    H270064   3.363   2.655   3.589  0.7459  0.1568  0.7903
16217TIP3   OH270065   4.725   0.490  15.433  0.2889  0.0384 -0.5306
16217TIP3    H170066   4.709   0.426  15.502  0.3279  0.6418  0.0465
16217TIP3    H270067   4.736   0.438  15.354  2.1739 -0.8003  0.2345
16218TIP3   OH270068   0.734   0.916  16.677 -0.3068 -0.7503  0.4788
16218TIP3    H170069   0.739   1.011  16.680 -0.3853 -0.7062 -0.4898
16218TIP3    H270070   0.800   0.887  16.739  0.6022 -0.0633 -0.1372
16219TIP3   OH270071   1.123   4.937  16.052  0.0280 -0.2729  0.4426
16219TIP3    H170072   1.173   5.015  16.026  0.8205 -1.4069 -1.6920
16219TIP3    H270073   1.046   4.972  16.097  0.6488  1.7086  0.0838
16220TIP3   OH270074   5.838   0.316  17.030  0.2908 -0.3475  0.1186
16220TIP3    H170075   5.918   0.305  16.978 -0.6239 -0.9345 -1.2223
16220TIP3    H270076   5.849   0.400  17.074  0.5544  0.8333 -2.0716
16221TIP3   OH270077   5.212   0.136  15.996  0.2329  0.2694 -0.4950
16221TIP3    H170078   5.237   0.130  16.089  0.3892  3.0428 -0.2988
16221TIP3    H270079   5.124   0.098  15.993 -0.2795  1.2403  1.0268
16222TIP3   OH270080   1.928   5.289  11.635 -0.1400 -0.1459 -0.5125
16222TIP3    H170081   1.978   5.370  11.632 -0.2834 -0.0272  0.1406
16222TIP3    H270082   1.906   5.271  11.544  0.9859 -0.1362 -0.8077
16223TIP3   OH270083   6.017   3.038  14.065 -0.4273 -0.0630 -0.0825
16223TIP3    H170084   6.020   2.944  14.085 -1.0472 -0.1377 -0.2898
16223TIP3    H270085   5.965   3.043  13.984  1.8776  0.2443 -1.6180
16224TIP3   OH270086   1.515   6.241  12.408  0.0475 -0.3790 -0.0643
16224TIP3    H170087   1.540   6.175  12.343  0.9738  0.9169 -1.0679
16224TIP3    H270088   1.435   6.280  12.374  0.5661  0.3432 -0.4739
16225TIP3   OH270089   2.491   0.306  15.039 -0.1086 -0.3605 -0.2456
16225TIP3    H170090   2.463   0.229  14.989  0.1586 -1.3336  1.0382
16225TIP3    H270091   2.585   0.312  15.022 -0.0613 -0.5517 -0.0662
16226TIP3   OH270092   2.752   0.322   1.418  0.1182  0.0318 -0.0364
16226TIP3    H170093   2.766   0.411   1.450 -0.0326 -0.0517  0.2678
16226TIP3    H270094   2.759   0.267   1.496 -0.7591 -0.1220 -0.0572
16227TIP3   OH270095   6.094   0.682   0.142  0.9590  0.4419 -0.0308
16227TIP3    H170096   6.074   0.773   0.121  3.2178  1.1059  0.4104
16227TIP3    H270097   6.059   0.670   0.231  2.0905  1.4244  0.5698
16228TIP3   OH270098   2.773   6.279   3.707 -1.2385 -0.2425 -0.2414
16228TIP3    H170099   2.730   6.194   3.711 -0.3899 -0.6510  1.0823
16228TIP3    H270100   2.739   6.326   3.783 -0.1501 -0.2015  0.2380
16229TIP3   OH270101   5.910   0.807  14.607  0.5415 -0.1330 -0.0105
16229TIP3    H170102   5.838   0.832  14.549  1.0604  0.2806 -0.4924
16229TIP3    H270103   5.869   0.758  14.678 -0.4220  1.3639  0.5137
16230TIP3   OH270104   6.421   4.251   1.434 -0.1498  0.2011 -1.0224
16230TIP3    H170105   6.361   4.192   1.388 -1.3373  0.3793  0.2403
16230TIP3    H270106   6.445   4.205   1.514  1.1454  0.2947 -1.3268
16231TIP3   OH270107   0.397   1.522   0.252 -0.5206 -0.7729  0.2093
16231TIP3    H170108   0.445   1.550   0.174  0.2929 -0.1424  0.9179
16231TIP3    H270109   0.306   1.540   0.231 -0.3866 -1.2128 -0.8390
16232TIP3   OH270110   6.186   3.361  10.597  0.5524  0.3770 -0.5563
16232TIP3    H170111   6.135   3.416  10.538  0.1630 -0.1998 -0.7626
16232TIP3    H270112   6.177   3.404  10.682 -0.0278  0.4535 -0.6502
16233TIP3   OH270113   4.026   0.764  15.405 -0.1710 -0.0034 -0.1644
16233TIP3    H170114   3.978   0.765  15.488 -2.2423 -1.6530 -1.2485
16233TIP3    H270115   3.987   0.834  15.353 -2.2438 -1.9386 -1.3968
16234TIP3   OH270116   1.284   3.334  15.450  0.3027  0.6397 -1.0143
16234TIP3    H170117   1.319   3.259  15.498  0.5391  2.2667  1.6008
16234TIP3    H270118   1.216   3.298  15.393  0.2399 -1.5079  0.3290
16235TIP3   OH270119   5.880   5.901  13.511  0.2218 -0.1354 -0.2437
16235TIP3    H170120   5.851   5.830  13.569  0.2021 -3.3843 -3.7671
16235TIP3    H270121   5.973   5.913  13.533 -0.1383 -0.1390  1.4187
16236TIP3   OH270122   5.761   3.095   5.343  0.7140 -0.2088  0.1296
16236TIP3    H170123   5.707   3.168   5.373  1.0246  0.2647 -0.4273
16236TIP3    H270124   5.839   3.097   5.398  0.7839 -0.0336  0.0239
16237TIP3   OH270125   5.178   3.406  14.259  0.3979 -0.0686  0.3443
16237TIP3    H170126   5.173   3.454  14.176 -0.1621  0.9559  0.9419
16237TIP3    H270127   5.270   3.410  14.283  0.0980  2.8183  1.5036
16238TIP3   OH270128   0.645   4.100   6.368 -0.0486 -0.4964 -0.3875
16238TIP3    H170129   0.726   4.070   6.410 -0.0890  0.6618  0.5747
16238TIP3    H270130   0.583   4.028   6.382 -0.4105  0.2383  2.6573
16239TIP3   OH270131   4.116   6.218   3.983  0.2257 -0.3589  0.1183
16239TIP3    H170132   4.153   6.130   3.978  0.9373 -0.0360 -0.7133
16239TIP3    H270133   4.183   6.274   3.943  0.4217  0.7739  1.9453
16240TIP3   OH270134   2.879   3.474  12.332 -0.2588 -0.4360  0.4694
16240TIP3    H170135   2.877   3.540  12.262  0.0788 -1.8175 -0.9157
16240TIP3    H270136   2.914   3.520  12.408 -2.3647  1.6170  0.3069
16241TIP3   OH270137   5.241   1.982  15.087  0.1443 -0.0791  0.4473
16241TIP3    H170138   5.194   1.950  15.164  0.0747  1.3434  1.0361
16241TIP3    H270139   5.173   1.990  15.019 -0.0781  0.0515  0.6825
16242TIP3   OH270140   5.058   2.980  16.756  0.3241  0.3350  0.2155
16242TIP3    H170141   4.983   2.929  16.727  1.7676 -0.4491 -2.5333
16242TIP3    H270142   5.085   2.938  16.838 -0.8712 -0.7939  0.0621
16243TIP3   OH270143   6.245   3.209  13.482 -0.1850 -0.0970 -0.0876
16243TIP3    H170144   6.185   3.283  13.478  0.2527  0.3054  0.6045
16243TIP3    H270145   6.226   3.167  13.566 -0.3615 -0.7213 -0.4277
16244TIP3   OH270146   3.013   1.982  15.449 -0.1399 -0.1337 -0.0803
16244TIP3    H170147   3.085   1.961  15.508 -0.2315  1.0283  0.4782
16244TIP3    H270148   2.972   2.060  15.487 -1.1521 -0.2564 -0.8569
16245TIP3   OH270149   0.948   1.979  16.216  0.1722  0.0827 -0.2930
16245TIP3    H170150   0.885   2.019  16.157 -1.5135 -1.0483  0.6549
16245TIP3    H270151   0.942   2.030  16.297 -0.4781 -0.7830  0.2220
16246TIP3   OH270152   1.437   1.919  14.130  0.4924  0.0371 -0.4697
16246TIP3    H170153   1.494   1.842  14.135  1.0725  0.4876  0.0909
16246TIP3    H270154   1.361   1.896  14.184  0.8985  0.0470  0.1167
16247TIP3   OH270155   2.615   3.123  15.558 -0.1216  0.0854  0.1277
16247TIP3    H170156   2.646   3.145  15.645  0.4299 -0.9211  0.1994
16247TIP3    H270157   2.567   3.201  15.529 -1.1063  0.0971  1.6925
16248TIP3   OH270158   2.258   3.150  16.915 -0.4948 -0.1471  0.4070
16248TIP3    H170159   2.320   3.097  16.865 -0.4761  2.8808 -3.2319
16248TIP3    H270160   2.312   3.213  16.962 -0.7117  0.4730 -0.1741
16249TIP3   OH270161   2.876   6.344  16.904  0.2308  0.2485 -0.1091
16249TIP3    H170162   2.849   6.345  16.996 -0.2028 -0.8007 -0.2047
16249TIP3    H270163   2.903   6.253  16.889  0.2773  0.4093 -1.0172
16250TIP3   OH270164   3.210   0.291  16.269  0.0033 -0.4596 -0.5240
16250TIP3    H170165   3.201   0.230  16.343 -0.6745 -0.6270 -0.7362
16250TIP3    H270166   3.301   0.285  16.244  0.5185  0.3880  0.9892
16251TIP3   OH270167   2.279   5.060   5.498  0.9494  0.4297 -0.4075
16251TIP3    H170168   2.305   5.150   5.518  0.1081  1.0614 -1.9314
16251TIP3    H270169   2.250   5.064   5.407  1.8452 -1.6074 -0.8349
16252TIP3   OH270170   5.311   3.716   0.563 -0.1257 -0.3022  0.7715
16252TIP3    H170171   5.286   3.801   0.600 -1.0892 -1.3978  2.7973
16252TIP3    H270172   5.247   3.655   0.598 -0.8912 -1.5908 -2.4840
16253TIP3   OH270173   3.211   3.661  14.018  0.6018 -0.1499  0.3212
16253TIP3    H170174   3.260   3.685  13.940  0.0666  0.2163  0.0897
16253TIP3    H270175   3.266   3.596  14.063  1.4128  0.4414  0.2060
16254TIP3   OH270176   1.370   4.390   1.435 -0.0894  0.1413 -0.1851
16254TIP3    H170177   1.385   4.346   1.352  0.5815  2.3073 -1.2957
16254TIP3    H270178   1.357   4.319   1.498  3.1971 -1.7412 -1.3499
16255TIP3   OH270179   3.399   5.883   5.176 -0.9364  0.3791  0.1110
16255TIP3    H170180   3.364   5.874   5.265 -0.5406  2.8920  0.6128
16255TIP3    H270181   3.406   5.978   5.163  0.9762  0.0485 -1.8394
16256TIP3   OH270182   6.198   0.411  14.578 -0.3091  0.3879 -0.0737
16256TIP3    H170183   6.125   0.467  14.551 -2.5888 -3.0118 -1.6848
16256TIP3    H270184   6.234   0.377  14.496  2.6690  1.3314  0.7362
16257TIP3   OH270185   5.741   5.402   5.057  0.1759 -0.8249  0.1895
16257TIP3    H170186   5.774   5.349   5.129  0.6628  0.2166  0.7674
16257TIP3    H270187   5.646   5.392   5.060  0.3292 -3.3715 -1.1060
16258TIP3   OH270188   6.085   6.616   2.928  1.1274  0.1999 -0.3983
16258TIP3    H170189   6.175   6.647   2.917  1.4028 -0.2649  0.4579
16258TIP3    H270190   6.032   6.675   2.874  2.1223 -0.4958 -2.2061
16259TIP3   OH270191   2.068   2.226  13.218  0.2966 -0.2100 -0.5177
16259TIP3    H170192   2.023   2.310  13.215 -1.2912 -1.0289 -0.7880
16259TIP3    H270193   2.063   2.199  13.310 -0.4502 -0.6338 -0.6719
16260TIP3   OH270194   3.925   1.223  13.244  0.5658 -0.1279  0.6411
16260TIP3    H170195   3.839   1.265  13.242  0.7026  0.1512  0.5108
16260TIP3    H270196   3.987   1.295  13.255  1.0269  0.1164 -2.5187
16261TIP3   OH270197   1.365   3.604  15.315  0.1958  0.0000  0.1883
16261TIP3    H170198   1.373   3.518  15.356 -0.3810  0.2628  0.8687
16261TIP3    H270199   1.444   3.612  15.261  1.1714 -0.2074  1.5342
16262TIP3   OH270200   1.977   5.679  14.142 -0.2374  0.1381  1.2600
16262TIP3    H170201   1.927   5.619  14.088  0.1236  0.3083  0.7337
16262TIP3    H270202   1.930   5.762  14.137  1.5038  1.1009 -1.4839
16263TIP3   OH270203   5.935   3.437  15.359 -0.6700  0.2555  0.2385
16263TIP3    H170204   6.020   3.400  15.337 -0.0066  2.1648 -0.5419
16263TIP3    H270205   5.926   3.420  15.453  0.8474  0.5769  0.4679
16264TIP3   OH270206   2.338   5.744   4.306 -0.4909  0.1714 -0.6658
16264TIP3    H170207   2.325   5.809   4.375 -1.6828 -1.2771  0.5314
16264TIP3    H270208   2.286   5.668   4.334  0.6879 -1.2335 -2.1052
16265TIP3   OH270209   4.673   1.562  11.703 -0.3702 -0.5946 -0.6983
16265TIP3    H170210   4.660   1.504  11.778 -1.3670 -1.3197 -1.4016
16265TIP3    H270211   4.677   1.504  11.627  0.0484  0.1637 -1.2758
16266TIP3   OH270212   6.501   0.018   4.875  0.1229  0.5378  0.5642
16266TIP3    H170213   6.408   0.041   4.864 -0.0146  0.6613  1.8261
16266TIP3    H270214   6.501  -0.078   4.881  0.1959  0.4715 -0.3758
16267TIP3   OH270215   3.877   0.890  14.571 -0.2513 -0.7201  0.2073
16267TIP3    H170216   3.939   0.831  14.614 -0.0254 -0.4865  0.2050
16267TIP3    H270217   3.840   0.942  14.642 -1.6801 -1.9736  0.4349
16268TIP3   OH270218   0.425   0.762   4.195  0.5458  0.3010 -0.2384
16268TIP3    H170219   0.452   0.671   4.205  0.4305  0.0418 -1.9972
16268TIP3    H270220   0.409   0.792   4.284  0.2850 -1.4885  0.3531
16269TIP3   OH270221   1.749   1.938  12.204 -0.3027 -0.4024  0.0179
16269TIP3    H170222   1.662   1.967  12.230 -0.3238  0.3179 -0.8046
16269TIP3    H270223   1.744   1.928  12.109  0.8224  0.8749 -0.2228
16270TIP3   OH270224   1.287   4.107  11.840  0.6154  0.5771 -0.0456
16270TIP3    H170225   1.317   4.017  11.851  1.5923  1.0103  1.0439
16270TIP3    H270226   1.358   4.152  11.795  0.7824  1.1376  0.7491
16271TIP3   OH270227   4.881   5.380  15.754  0.2643 -1.3025  0.2163
16271TIP3    H170228   4.960   5.414  15.797  0.0605  2.6092 -2.0441
16271TIP3    H270229   4.832   5.338  15.825  2.3623  0.0081  2.6181
16272TIP3   OH270230   3.289   4.646  15.203 -0.1095 -0.3766  0.0922
16272TIP3    H170231   3.298   4.682  15.291 -0.8549  0.3935 -0.1328
16272TIP3    H270232   3.201   4.609  15.201  0.1358 -0.9637 -0.1369
16273TIP3   OH270233   0.498   6.606   2.594 -0.1277 -0.3628 -0.5268
16273TIP3    H170234   0.568   6.566   2.645 -0.3718 -1.5825 -1.1088
16273TIP3    H270235   0.543   6.661   2.530  0.3285 -1.3115 -1.0418
16274TIP3   OH270236   0.421   4.828  16.341  0.1778  0.0344  0.0950
16274TIP3    H170237   0.465   4.748  16.310 -0.4786  0.5205 -2.2447
16274TIP3    H270238   0.466   4.899  16.295  1.3586  1.2030  2.8146
16275TIP3   OH270239   5.736   5.721   3.637  0.4148  0.2684 -0.4131
16275TIP3    H170240   5.829   5.727   3.614  0.3098  2.2391 -0.4985
16275TIP3    H270241   5.734   5.686   3.726  1.1446 -1.0379 -0.8815
16276TIP3   OH270242   4.201   2.089   1.289 -0.4565 -0.4347 -0.3046
16276TIP3    H170243   4.173   1.997   1.295 -1.4192 -0.1199  0.3525
16276TIP3    H270244   4.132   2.138   1.334 -0.5576  0.7370 -1.6660
16277TIP3   OH270245   2.742   5.583  10.734 -0.1384  0.1888  0.2468
16277TIP3    H170246   2.778   5.625  10.656  1.6457 -0.8925  0.4519
16277TIP3    H270247   2.758   5.490  10.721  1.7437  0.0935  2.6101
16278TIP3   OH270248   2.502   5.179  15.828 -0.3964  0.1041 -0.2995
16278TIP3    H170249   2.591   5.194  15.797 -0.7309 -0.7651 -1.8193
16278TIP3    H270250   2.447   5.230  15.768 -1.0052 -0.6362 -0.3926
16279TIP3   OH270251   3.147   5.694  15.955 -0.5496  0.2876 -0.2111
16279TIP3    H170252   3.095   5.646  15.890 -1.9781  0.3728  0.8087
16279TIP3    H270253   3.210   5.745  15.903  0.3873 -1.9247 -1.3655
16280TIP3   OH270254   4.098   2.190  10.873 -0.1161 -0.2781 -0.5445
16280TIP3    H170255   4.125   2.272  10.832 -0.6137 -0.6650 -1.6927
16280TIP3    H270256   4.166   2.127  10.848  0.2120 -0.2429  0.2488
16281TIP3   OH270257   2.799   5.143  15.767  0.0913 -0.2283 -0.2549
16281TIP3    H170258   2.858   5.179  15.833  0.5889 -0.0406 -0.7981
16281TIP3    H270259   2.801   5.206  15.695  0.3488 -0.9312 -0.8781
16282TIP3   OH270260   2.132   5.745  15.051  0.5191  0.0761  0.0800
16282TIP3    H170261   2.124   5.833  15.088 -1.1602 -0.2131  0.4821
16282TIP3    H270262   2.215   5.712  15.086  0.1488  0.7154  1.6425
16283TIP3   OH270263   4.854   4.720  12.056  0.3084 -0.0409 -0.0516
16283TIP3    H170264   4.863   4.626  12.042  0.0269 -0.2094  0.8655
16283TIP3    H270265   4.865   4.758  11.969  1.2860 -0.8541 -0.3063
16284TIP3   OH270266   4.339   0.252  16.270  0.7299 -0.1443  0.8212
16284TIP3    H170267   4.260   0.292  16.306 -0.0698 -2.4544  1.8098
16284TIP3    H270268   4.408   0.272  16.334  0.6369  0.6401  0.6861
16285TIP3   OH270269   1.841   2.805   1.211 -0.3205 -0.0301 -0.0941
16285TIP3    H170270   1.816   2.735   1.271  1.1097  1.3858  2.3123
16285TIP3    H270271   1.885   2.760   1.139 -2.9790 -1.8683 -0.7261
16286TIP3   OH270272   1.000   5.597  15.535  0.1400  0.7812  0.0803
16286TIP3    H170273   1.060   5.572  15.464  1.0640  0.9403  0.7731
16286TIP3    H270274   0.994   5.692  15.528 -1.4498  0.6271 -1.0639
16287TIP3   OH270275   1.678   1.365   1.088 -0.4888  0.2255 -0.1588
16287TIP3    H170276   1.657   1.295   1.026 -0.3144 -0.4986  0.5826
16287TIP3    H270277   1.593   1.393   1.122 -0.5784  0.5606 -0.6511
16288TIP3   OH270278   2.888   0.048   6.136  0.3534  0.0306 -0.0500
16288TIP3    H170279   2.829   0.119   6.162  0.1236 -1.3266  3.9101
16288TIP3    H270280   2.963   0.057   6.194  1.4795 -1.5065 -1.1837
16289TIP3   OH270281   3.055   3.523  12.111  0.3977 -0.0484 -0.2370
16289TIP3    H170282   2.979   3.516  12.053  0.2740  1.1634 -0.2378
16289TIP3    H270283   3.060   3.437  12.154 -1.8440  0.2749  0.8222
16290TIP3   OH270284   0.224   5.066  15.610 -0.5177 -0.4198 -0.3670
16290TIP3    H170285   0.222   5.009  15.686  1.4060 -1.2292 -0.8425
16290TIP3    H270286   0.133   5.094  15.597 -0.7285  0.8942  3.0061
16291TIP3   OH270287   2.185   1.393  16.344  0.3051  0.4461  0.0158
16291TIP3    H170288   2.132   1.336  16.400 -2.6062  1.8243 -1.1520
16291TIP3    H270289   2.134   1.474  16.337  3.7454  2.9282  0.7674
16292TIP3   OH270290   4.067   1.065   5.930 -0.5114  0.4602  0.3391
16292TIP3    H170291   3.982   1.042   5.891 -1.4906  0.1323  2.5280
16292TIP3    H270292   4.057   1.156   5.956  0.1873  0.7226 -0.2882
16293TIP3   OH270293   3.161   6.467  11.666  0.2934 -0.1672  0.1984
16293TIP3    H170294   3.193   6.553  11.638 -2.6343  0.5408 -1.4204
16293TIP3    H270295   3.199   6.455  11.753 -0.9418  3.9004  1.5299
16294TIP3   OH270296   1.908   5.129   5.951  0.2818 -0.1229  0.9045
16294TIP3    H170297   1.835   5.078   5.915  0.8882 -1.4469  1.4660
16294TIP3    H270298   1.985   5.097   5.904  0.6792  0.2671  1.2776
16295TIP3   OH270299   4.046   5.103  15.395 -0.9238 -0.7459 -0.2465
16295TIP3    H170300   3.963   5.069  15.431  0.0320 -0.9537  1.9349
16295TIP3    H270301   4.038   5.198  15.401 -0.9536 -0.7689  0.0873
16296TIP3   OH270302   5.849   4.724   0.692 -0.2942 -0.4427 -0.2634
16296TIP3    H170303   5.862   4.721   0.787 -1.9640 -0.2830  0.0039
16296TIP3    H270304   5.885   4.809   0.665  0.0649 -0.4307  0.2416
16297TIP3   OH270305   1.018   5.037   2.297  0.0834  0.2678 -0.0619
16297TIP3    H170306   1.040   4.951   2.335  0.7129  0.0807 -0.8170
16297TIP3    H270307   1.029   5.098   2.369 -1.3432 -0.3980  0.7582
16298TIP3   OH270308   1.875   2.408  11.958  0.5302  0.1399  0.6134
16298TIP3    H170309   1.884   2.389  12.051 -1.6957 -0.2782  0.7860
16298TIP3    H270310   1.874   2.322  11.916  0.4011  0.2819  0.3243
16299TIP3   OH270311   2.535   5.354  13.974  0.9086 -0.4438  0.5175
16299TIP3    H170312   2.604   5.289  13.985  1.3152 -0.5073 -1.9541
16299TIP3    H270313   2.572   5.420  13.915 -1.2313 -0.7322 -1.2857
16300TIP3   OH270314   6.314   1.643   1.795 -0.1066  0.2349  0.1963
16300TIP3    H170315   6.345   1.700   1.865  0.3970  0.0225  0.1554
16300TIP3    H270316   6.246   1.694   1.750  0.3508  0.8158  0.1437
16301TIP3   OH270317   6.653   6.197   1.774  0.3423  0.2691 -0.4846
16301TIP3    H170318   6.706   6.126   1.737 -0.1457 -0.7271  0.6666
16301TIP3    H270319   6.670   6.192   1.868 -1.8322 -0.1349 -0.0642
16302TIP3   OH270320   2.039   1.174   5.084 -0.7176  0.2461  0.0808
16302TIP3    H170321   1.980   1.151   5.011  0.2045 -0.2475 -0.5257
16302TIP3    H270322   1.997   1.134   5.160 -1.7939  0.9208 -0.1272
16303TIP3   OH270323   3.622   4.767  12.998 -0.4418 -0.4526  0.3831
16303TIP3    H170324   3.541   4.771  13.050 -0.2699  2.3228  0.5453
16303TIP3    H270325   3.593   4.741  12.911 -1.3815 -0.4778  0.6934
16304TIP3   OH270326   4.180   4.845  11.878 -0.2144 -0.1106 -0.4319
16304TIP3    H170327   4.100   4.864  11.927  0.7482 -0.5150  1.3843
16304TIP3    H270328   4.238   4.919  11.895  0.1525 -0.2602 -0.9687
16305TIP3   OH270329   3.272   1.161   0.225 -0.4897  1.0090 -0.0620
16305TIP3    H170330   3.249   1.183   0.315 -1.0997  1.1231 -0.2442
16305TIP3    H270331   3.189   1.144   0.182 -0.3223  2.4277 -0.9932
16306TIP3   OH270332   5.541   6.206  12.183  0.1925  0.7125 -0.3783
16306TIP3    H170333   5.594   6.279  12.216 -1.5716  1.3973  1.1039
16306TIP3    H270334   5.480   6.246  12.122  0.2888  0.1818 -0.8340
16307TIP3   OH270335   0.017   6.807   0.142  0.3096 -0.2051 -0.1140
16307TIP3    H170336  -0.054   6.870   0.138 -1.7127 -2.1148  2.2090
16307TIP3    H270337   0.005   6.752   0.065  0.6842  0.8144 -0.9156
16308TIP3   OH270338   5.842   5.826  15.088 -0.4395  0.2938  0.0602
16308TIP3    H170339   5.796   5.883  15.027  0.4246  1.6256  0.5964
16308TIP3    H270340   5.926   5.808  15.046 -0.8298 -0.8710 -0.2447
16309TIP3   OH270341   4.198   3.969  12.665  0.3025 -0.0963 -0.6388
16309TIP3    H170342   4.188   4.064  12.670 -0.2422 -0.1951  0.2716
16309TIP3    H270343   4.292   3.954  12.679  0.4055  0.3009 -0.8755
16310TIP3   OH270344   3.762   4.025  13.061 -0.2593 -0.1487 -0.2212
16310TIP3    H170345   3.829   4.008  13.128 -1.5393 -0.0599  1.1321
16310TIP3    H270346   3.809   4.019  12.978  1.0296 -2.1635  0.5759
16311TIP3   OH270347   4.281   5.146   2.118 -0.2750  0.0668 -0.3696
16311TIP3    H170348   4.304   5.204   2.191 -1.0642 -0.6665  0.4920
16311TIP3    H270349   4.279   5.059   2.157 -2.3952 -0.1535 -0.8346
16312TIP3   OH270350   6.054   3.924  12.488  0.4432 -0.0245  0.2846
16312TIP3    H170351   6.024   4.015  12.484  1.2363  0.2597  0.5881
16312TIP3    H270352   6.140   3.929  12.530  1.0311 -0.7945 -0.7775
16313TIP3   OH270353   5.779   3.699   0.613  0.1681 -0.1682 -0.0833
16313TIP3    H170354   5.800   3.774   0.558 -0.3328 -0.7045 -1.0380
16313TIP3    H270355   5.822   3.625   0.569 -0.7368 -0.6957 -0.0950
16314TIP3   OH270356   1.015   0.240   6.204  0.0648  0.2550  0.0977
16314TIP3    H170357   1.108   0.217   6.204  0.4231  1.5376  1.7357
16314TIP3    H270358   1.011   0.326   6.247 -1.8774  0.2447  0.0360
16315TIP3   OH270359   0.462   4.460   4.930 -0.1494 -0.2604 -0.5520
16315TIP3    H170360   0.493   4.471   4.840  1.3143  0.0882 -0.0285
16315TIP3    H270361   0.513   4.387   4.965  1.3310  1.3405  0.8283
16316TIP3   OH270362   0.047   1.883  13.259 -0.3264 -0.5805  0.0432
16316TIP3    H170363   0.112   1.910  13.194  0.2688 -1.1097  0.4028
16316TIP3    H270364  -0.033   1.869  13.209 -0.1611  0.0677 -0.4120
16317TIP3   OH270365   2.506   2.663  11.771  0.3990 -0.0035 -0.4156
16317TIP3    H170366   2.563   2.649  11.695  0.2935 -3.1101 -0.0390
16317TIP3    H270367   2.564   2.657  11.847  0.4019  2.5062 -0.1053
16318TIP3   OH270368   4.893   4.449  12.917  0.7047  0.3080 -0.4553
16318TIP3    H170369   4.814   4.397  12.917  0.8439  0.0667 -1.8267
16318TIP3    H270370   4.880   4.513  12.846  0.7661  1.8028  0.8093
16319TIP3   OH270371   2.439   1.644   0.813  0.1310  0.1307 -0.2533
16319TIP3    H170372   2.509   1.589   0.849  2.0414  1.0108 -2.3633
16319TIP3    H270373   2.378   1.582   0.773  1.0714 -0.5619 -0.6455
16320TIP3   OH270374   3.757   5.935   1.942  0.3892 -0.1370  0.6582
16320TIP3    H170375   3.818   5.920   1.870  0.3161 -0.5810  0.6810
16320TIP3    H270376   3.727   6.025   1.931  0.9663  0.0463  0.5860
16321TIP3   OH270377   4.134   0.300  13.125 -0.1758 -0.1085  0.4661
16321TIP3    H170378   4.197   0.334  13.188  1.4861 -4.1636  1.3384
16321TIP3    H270379   4.172   0.318  13.039  0.6490  0.1057  0.8735
16322TIP3   OH270380   6.243   4.691   2.815  0.5581 -0.0333  0.9379
16322TIP3    H170381   6.251   4.596   2.805  0.3180 -0.1544  1.8084
16322TIP3    H270382   6.212   4.703   2.905 -1.8344  0.7224  0.1098
16323TIP3   OH270383   3.020   5.599  12.041 -0.2191  0.0856 -0.1466
16323TIP3    H170384   3.003   5.693  12.040  2.4122  0.6439  0.3696
16323TIP3    H270385   2.950   5.563  12.096 -0.4867  1.9235  0.7992
16324TIP3   OH270386   3.929   5.289  14.861  0.2233  0.6097 -0.0844
16324TIP3    H170387   3.912   5.195  14.860 -0.3042  0.7012 -0.1212
16324TIP3    H270388   4.022   5.297  14.884  0.1029  0.0976  0.6280
16325TIP3   OH270389   1.340   2.464  16.465  0.3351 -0.2654  0.3358
16325TIP3    H170390   1.396   2.428  16.534 -1.9124 -0.1661  2.3425
16325TIP3    H270391   1.300   2.541  16.505 -0.2097  0.4615 -1.5114
16326TIP3   OH270392   0.616   1.793  11.645 -0.4178  0.3867 -0.1264
16326TIP3    H170393   0.531   1.755  11.624 -0.1278 -0.6582  0.4997
16326TIP3    H270394   0.610   1.884  11.618 -1.6432  0.2499 -0.3358
16327TIP3   OH270395   5.153   6.118   2.209 -0.4587  0.2356 -0.0502
16327TIP3    H170396   5.236   6.135   2.253 -0.4762  0.8926 -0.2536
16327TIP3    H270397   5.172   6.125   2.116 -0.3312 -1.5883 -0.1974
16328TIP3   OH270398   0.841   3.607  15.508  0.8266  0.0378 -0.0277
16328TIP3    H170399   0.910   3.544  15.529  0.5440 -0.2641 -0.0048
16328TIP3    H270400   0.864   3.685  15.558 -1.2593 -1.4822  3.6933
16329TIP3   OH270401   5.551   0.461   2.001 -0.3348  0.3615 -0.1217
16329TIP3    H170402   5.637   0.469   1.960 -1.2474  0.8041 -2.0979
16329TIP3    H270403   5.558   0.386   2.059  1.3091  0.2638 -0.4009
16330TIP3   OH270404   1.690   4.541  11.005  0.7304  0.6616 -0.3190
16330TIP3    H170405   1.623   4.603  11.033  0.5705  0.5047 -0.3575
16330TIP3    H270406   1.732   4.584  10.930 -0.8665 -0.2296 -1.7955
16331TIP3   OH270407   6.635   5.676   4.499 -0.1703  0.3153 -0.2845
16331TIP3    H170408   6.583   5.749   4.533 -0.1409  0.3024 -0.2116
16331TIP3    H270409   6.682   5.712   4.424 -1.2155  0.0186 -1.1084
16332TIP3   OH270410   5.490   1.164  14.242  0.5197 -0.4531 -0.2701
16332TIP3    H170411   5.409   1.170  14.292  0.7481  0.7774  0.0017
16332TIP3    H270412   5.488   1.078  14.201 -1.2804 -0.1579 -0.8695
16333TIP3   OH270413   4.398   3.479   2.005 -0.0196 -0.0176  0.2890
16333TIP3    H170414   4.468   3.517   2.057  2.6904 -2.7161 -1.0722
16333TIP3    H270415   4.427   3.490   1.914 -0.9831 -1.8601 -0.2934
16334TIP3   OH270416   2.853   6.339  13.917  0.5412 -0.2178 -0.2701
16334TIP3    H170417   2.885   6.419  13.960 -0.6232  1.2602 -1.9855
16334TIP3    H270418   2.901   6.268  13.960  0.1232  1.1850  2.7733
16335TIP3   OH270419   3.442   5.479  11.818  0.1284  0.2783 -0.3110
16335TIP3    H170420   3.352   5.486  11.785 -0.0249  0.6417  0.1789
16335TIP3    H270421   3.433   5.437  11.904  0.3260  1.2652  0.1992
16336TIP3   OH270422   5.596   0.394   4.071  0.0414  0.3972  0.9071
16336TIP3    H170423   5.518   0.389   4.016 -0.5433  1.8894  1.5488
16336TIP3    H270424   5.661   0.340   4.026 -1.0430 -0.0381 -0.1749
16337TIP3   OH270425   2.041   1.525  10.843 -0.4004  0.5130 -0.4296
16337TIP3    H170426   2.012   1.446  10.889 -1.7461  1.0652 -0.2857
16337TIP3    H270427   2.136   1.515  10.836 -0.3712 -0.4269  0.8837
16338TIP3   OH270428   0.120   5.727   2.341 -0.3494 -0.2626 -0.1955
16338TIP3    H170429   0.042   5.771   2.372  0.8783  2.4458 -0.6306
16338TIP3    H270430   0.100   5.702   2.251 -0.6137  0.7577 -0.4285
16339TIP3   OH270431   3.432   1.998   1.763  0.3228 -0.1063 -0.1228
16339TIP3    H170432   3.508   2.014   1.708  0.0641 -0.1043 -0.4903
16339TIP3    H270433   3.446   2.051   1.841 -0.7204  2.3390 -1.4905
16340TIP3   OH270434   2.948   5.577  16.684  0.7939 -0.8089  0.1637
16340TIP3    H170435   2.933   5.484  16.696  1.0806 -0.8660  0.0847
16340TIP3    H270436   2.970   5.610  16.771 -2.2098 -0.2527  0.8260
16341TIP3   OH270437   2.883   5.505  12.897 -0.0395  0.3819  0.5735
16341TIP3    H170438   2.829   5.581  12.919 -0.6836  0.2172 -0.3424
16341TIP3    H270439   2.969   5.541  12.875 -0.5127  0.9188 -0.4445
16342TIP3   OH270440   4.953   1.344  12.574  0.8801  0.0880  0.3342
16342TIP3    H170441   4.981   1.311  12.660 -1.3882 -0.2225  1.0037
16342TIP3    H270442   4.924   1.433  12.591  1.2842  0.3550 -0.3211
16343TIP3   OH270443   2.962   5.530  14.284  0.1683  0.2481 -0.1208
16343TIP3    H170444   2.956   5.515  14.190  1.4289 -1.7782  0.0592
16343TIP3    H270445   2.877   5.500  14.318  0.6422 -1.5731 -0.3994
16344TIP3   OH270446   5.371   0.347  10.817  0.0133 -0.5420  0.3843
16344TIP3    H170447   5.436   0.339  10.747  0.9145  2.5134  0.6965
16344TIP3    H270448   5.405   0.292  10.888 -0.0574 -2.3772 -0.9444
16345TIP3   OH270449   5.334   4.084   4.745  0.1576 -0.2964  0.1276
16345TIP3    H170450   5.399   4.018   4.722  1.2305  1.4832 -2.3690
16345TIP3    H270451   5.354   4.105   4.837  0.9618 -2.0950  0.4027
16346TIP3   OH270452   0.217   3.326  11.180  0.0675  0.0660  0.1833
16346TIP3    H170453   0.288   3.389  11.180  0.8693 -0.7869  1.2033
16346TIP3    H270454   0.261   3.241  11.170 -0.6287 -0.5962  2.1866
16347TIP3   OH270455   6.802   6.435   2.059 -0.2544 -0.5732 -0.5333
16347TIP3    H170456   6.897   6.446   2.068 -0.2792  0.0076 -0.9153
16347TIP3    H270457   6.772   6.517   2.020 -0.9466 -0.6651 -0.2081
16348TIP3   OH270458   5.807   0.286  16.319 -0.2832  0.1414  0.0133
16348TIP3    H170459   5.748   0.211  16.323  1.6555 -1.6398 -2.0826
16348TIP3    H270460   5.858   0.281  16.400 -0.9236 -0.1272  0.4023
16349TIP3   OH270461   6.785   2.315  15.061 -0.0223 -0.2832  0.4304
16349TIP3    H170462   6.824   2.400  15.043 -0.5812  0.3137  1.9436
16349TIP3    H270463   6.859   2.254  15.061  0.4825  0.3194  0.1426
16350TIP3   OH270464   0.478   3.435  11.734 -0.2493 -0.7168  0.7520
16350TIP3    H170465   0.431   3.497  11.789 -0.4362 -1.1556  1.0912
16350TIP3    H270466   0.409   3.386  11.688 -0.1540 -1.5872  1.4951
16351TIP3   OH270467   0.752   2.770  15.569  0.3514 -0.3334 -0.1344
16351TIP3    H170468   0.783   2.682  15.545 -0.1325 -0.6666  0.4311
16351TIP3    H270469   0.796   2.828  15.508 -0.6252 -1.1346 -1.6751
16352TIP3   OH270470   5.070   0.024  12.184 -0.1354  0.3999 -0.4150
16352TIP3    H170471   5.085   0.089  12.253  0.8797 -0.3247  0.0644
16352TIP3    H270472   4.985  -0.014  12.206  0.2222  0.0988  0.5182
16353TIP3   OH270473   5.065   6.727  16.336  0.1044 -0.0567 -0.3019
16353TIP3    H170474   5.018   6.651  16.370  0.3091 -0.0736 -0.0527
16353TIP3    H270475   5.127   6.692  16.273 -0.0356 -0.0597 -0.4390
16354TIP3   OH270476   1.025   0.603   3.140  0.2415  0.2692  0.2427
16354TIP3    H170477   0.941   0.558   3.139  0.7654 -0.8780  2.0726
16354TIP3    H270478   1.048   0.613   3.048 -1.5166 -0.1077 -0.2765
16355TIP3   OH270479   0.111   1.426   4.723 -0.1066  0.3041 -0.5716
16355TIP3    H170480   0.042   1.489   4.740  0.9519  0.8638  2.1841
16355TIP3    H270481   0.084   1.347   4.771  0.7949  0.2695 -0.1109
16356TIP3   OH270482   0.960   0.539   4.515  0.0659 -0.0502  0.1484
16356TIP3    H170483   0.883   0.493   4.548 -0.5866  1.0958  0.2466
16356TIP3    H270484   0.963   0.621   4.564  0.9454  0.2357 -0.3514
16357TIP3   OH270485   2.964   3.143   0.173  0.0195 -0.2543 -0.5249
16357TIP3    H170486   3.043   3.181   0.135  0.6662 -0.0138  0.9562
16357TIP3    H270487   2.937   3.207   0.239 -0.5216 -1.0494  0.0348
16358TIP3   OH270488   0.068   1.701  16.057 -0.0615  0.5751  0.2835
16358TIP3    H170489   0.131   1.772  16.047 -0.0070  0.5190  0.2245
16358TIP3    H270490   0.102   1.648  16.128  0.6567 -0.1872 -0.6003
16359TIP3   OH270491   4.387   5.307  12.950  0.8100 -0.0431 -0.1952
16359TIP3    H170492   4.323   5.279  12.884 -0.4138  1.2410  0.4084
16359TIP3    H270493   4.419   5.225  12.987 -0.6347 -0.7332 -0.3787
16360TIP3   OH270494   6.150   0.183   2.636 -0.4036 -0.0491  0.2340
16360TIP3    H170495   6.099   0.264   2.629 -0.9645 -0.2584  1.5449
16360TIP3    H270496   6.241   0.211   2.628 -0.3614  1.2204  3.4852
16361TIP3   OH270497   0.478   1.187   0.116 -0.8723 -0.0495  0.6331
16361TIP3    H170498   0.403   1.212   0.171  0.0979 -1.4974  2.7159
16361TIP3    H270499   0.448   1.109   0.069 -0.7508 -0.5471  1.3609
16362TIP3   OH270500   1.137   5.920   1.088  0.1601 -0.2736 -0.5178
16362TIP3    H170501   1.181   5.941   1.006  1.5430  0.8227  0.4532
16362TIP3    H270502   1.158   5.827   1.103  0.4728 -0.2927 -1.0618
16363TIP3   OH270503   4.718   6.335  12.936 -0.0984  0.8998 -0.3425
16363TIP3    H170504   4.769   6.415  12.948 -0.4955  1.1811 -0.4814
16363TIP3    H270505   4.701   6.303  13.024  1.3573  0.1300 -0.3284
16364TIP3   OH270506   2.028   5.108   3.577 -0.1920  0.2866 -0.3596
16364TIP3    H170507   1.963   5.058   3.625 -0.7201  1.6633  0.4199
16364TIP3    H270508   2.005   5.200   3.594  0.6512  0.8022 -1.8427
16365TIP3   OH270509   5.763   5.505   0.461 -0.1032  0.0251 -0.2172
16365TIP3    H170510   5.811   5.586   0.443 -0.9909  0.4665 -0.6609
16365TIP3    H270511   5.705   5.494   0.386 -0.4647 -0.6674  0.1554
16366TIP3   OH270512   2.906   3.490  12.819  0.0595 -0.2120 -0.6622
16366TIP3    H170513   2.811   3.499  12.826  0.0839 -0.8921  1.4374
16366TIP3    H270514   2.937   3.579  12.800 -0.7480  1.2321  3.6289
16367TIP3   OH270515   0.711   1.772  13.200  0.1138  0.3752 -0.1186
16367TIP3    H170516   0.627   1.789  13.242  0.5683  1.5767  0.3695
16367TIP3    H270517   0.760   1.854  13.210  0.6952  0.3129 -1.9552
16368TIP3   OH270518   3.529   6.063  14.840 -0.1209 -0.3352 -0.6930
16368TIP3    H170519   3.570   6.041  14.756  0.5026 -1.0507 -0.2067
16368TIP3    H270520   3.601   6.095  14.895 -0.1558 -1.7451  0.2174
16369TIP3   OH270521   2.788   1.242  11.576  0.2356 -0.5219  0.7284
16369TIP3    H170522   2.843   1.290  11.639 -0.5998 -0.0746  1.1313
16369TIP3    H270523   2.731   1.309  11.539  2.5011 -0.1658 -2.6064
16370TIP3   OH270524   4.699   5.819   3.867 -0.4575  0.1255 -0.1898
16370TIP3    H170525   4.605   5.804   3.859 -0.5734  0.6710  0.1128
16370TIP3    H270526   4.718   5.890   3.805 -0.5458  1.1616  0.9192
16371TIP3   OH270527   1.762   1.743  16.213 -0.2740  0.9638  0.6469
16371TIP3    H170528   1.853   1.746  16.185 -0.6692 -1.4621 -1.3598
16371TIP3    H270529   1.749   1.652  16.240 -2.0670  1.2994  1.0231
16372TIP3   OH270530   0.422   0.755  12.634 -0.8944 -0.2501  0.0280
16372TIP3    H170531   0.412   0.782  12.542 -1.2371  1.2363  0.4681
16372TIP3    H270532   0.346   0.793  12.678 -1.0962 -1.5256  0.8252
16373TIP3   OH270533   0.035   2.959  11.001 -0.4345 -0.3894  0.3710
16373TIP3    H170534  -0.002   2.964  10.913 -1.0273  0.5063  0.6647
16373TIP3    H270535   0.129   2.955  10.987 -0.5685 -1.8764 -0.3585
16374TIP3   OH270536   6.102   3.954   4.473  0.2754  0.3102  0.4514
16374TIP3    H170537   6.145   4.008   4.407 -0.1830 -0.6521 -0.6579
16374TIP3    H270538   6.026   3.917   4.429 -0.2712 -0.0336  1.6437
16375TIP3   OH270539   5.196   2.563  16.856 -0.2268  0.6507  0.4627
16375TIP3    H170540   5.135   2.519  16.914  0.2040  0.5508  0.8473
16375TIP3    H270541   5.242   2.492  16.811  0.2401  0.7075  0.8428
16376TIP3   OH270542   0.765   5.694   5.158 -0.4126 -0.4899 -0.2557
16376TIP3    H170543   0.802   5.779   5.185  1.4118 -0.2892 -3.0584
16376TIP3    H270544   0.677   5.694   5.197 -0.6749  2.8852 -0.4994
16377TIP3   OH270545   0.869   5.392   2.463 -0.1155 -0.5131  0.3983
16377TIP3    H170546   0.865   5.316   2.521 -0.7637 -0.1315  0.8643
16377TIP3    H270547   0.839   5.465   2.517 -1.0437 -0.2065 -0.4956
16378TIP3   OH270548   6.142   2.817   3.263 -0.8533  0.1745  0.2309
16378TIP3    H170549   6.186   2.884   3.211 -1.0968  0.5576  0.5136
16378TIP3    H270550   6.203   2.742   3.262 -1.1087 -0.0361 -1.0631
16379TIP3   OH270551   2.878   2.598  16.676  0.1079  0.8045 -0.0910
16379TIP3    H170552   2.858   2.579  16.585  0.0451  1.0820 -0.1381
16379TIP3    H270553   2.793   2.593  16.721  0.1089  0.8544 -0.0835
16380TIP3   OH270554   5.297   2.915  11.815 -0.0048  0.9195  0.6669
16380TIP3    H170555   5.283   2.909  11.720  1.3793  2.1861  0.3554
16380TIP3    H270556   5.216   2.954  11.849 -1.1646 -0.9990  0.2583
16381TIP3   OH270557   0.230   4.278  14.467 -0.0231  0.0054 -0.4904
16381TIP3    H170558   0.215   4.194  14.510  0.7398 -1.8058 -3.4709
16381TIP3    H270559   0.324   4.281  14.451 -0.0198  1.5189 -0.2989
16382TIP3   OH270560   0.738   4.595  11.584 -0.6653  0.0190 -0.1514
16382TIP3    H170561   0.663   4.652  11.598 -0.5816 -0.1693  1.1962
16382TIP3    H270562   0.739   4.578  11.489 -0.9246  1.8904 -0.5153
16383TIP3   OH270563   4.218   5.999   0.941  0.1788 -0.0961 -0.0459
16383TIP3    H170564   4.227   6.092   0.919 -0.3615 -0.1493 -0.5260
16383TIP3    H270565   4.307   5.969   0.958  0.3378  0.5562  0.3028
16384TIP3   OH270566   3.010   0.956  16.264 -0.3279  0.2200  0.4607
16384TIP3    H170567   3.078   1.016  16.232 -3.0213  2.5407 -1.4003
16384TIP3    H270568   2.929   1.005  16.254 -2.3303 -2.3780  2.6587
16385TIP3   OH270569   0.115   3.468   6.024  0.1739 -0.8886  0.0839
16385TIP3    H170570   0.131   3.562   6.038  0.5065 -0.6738 -1.5523
16385TIP3    H270571   0.200   3.433   5.997  0.5349 -2.0936  2.5169
16386TIP3   OH270572   4.880   3.362  16.357 -0.4515 -0.5488 -0.5773
16386TIP3    H170573   4.867   3.281  16.308 -2.6182 -0.2602 -0.6065
16386TIP3    H270574   4.967   3.354  16.395  0.9824 -1.2187 -3.6508
16387TIP3   OH270575   1.072   0.648   6.705 -0.5836  0.3571 -0.2298
16387TIP3    H170576   1.101   0.739   6.713 -1.7598  0.6250  1.5142
16387TIP3    H270577   0.984   0.655   6.667 -0.8177 -0.0285  0.2394
16388TIP3   OH270578   0.653   4.805   4.974  0.3373 -0.2649  0.0879
16388TIP3    H170579   0.615   4.780   4.890 -1.6520  0.1918  0.8048
16388TIP3    H270580   0.678   4.722   5.015  1.1278 -0.5019 -0.8410
16389TIP3   OH270581   2.929   3.290   1.740 -0.0422 -0.3244 -0.0833
16389TIP3    H170582   2.890   3.375   1.758 -0.1807 -0.6346  1.1530
16389TIP3    H270583   2.938   3.288   1.644 -0.3439  0.9288 -0.1587
16390TIP3   OH270584   2.740   0.524  12.558 -0.1821  0.0281 -0.1653
16390TIP3    H170585   2.824   0.564  12.582 -0.5284  0.2394  0.7353
16390TIP3    H270586   2.759   0.430  12.555  0.1050  0.0789 -0.0226
16391TIP3   OH270587   3.744   0.905   0.207 -0.1601  0.7476 -0.4159
16391TIP3    H170588   3.658   0.941   0.231 -1.5050 -1.7160 -1.1484
16391TIP3    H270589   3.764   0.944   0.122 -1.8455 -0.4770 -1.4550
16392TIP3   OH270590   6.405   4.522  12.770 -0.3743 -0.5222 -0.2573
16392TIP3    H170591   6.486   4.526  12.720 -0.0937 -0.2149  0.2096
16392TIP3    H270592   6.394   4.610  12.805 -0.4317 -0.7890  0.4126
16393TIP3   OH270593   2.682   0.404   4.102  0.2845 -0.4265 -0.1248
16393TIP3    H170594   2.745   0.376   4.035  0.3371 -0.6332  0.0107
16393TIP3    H270595   2.714   0.488   4.132 -1.8903  1.7502 -3.2550
16394TIP3   OH270596   2.393   3.908   2.533  0.3633 -0.0454 -0.7738
16394TIP3    H170597   2.314   3.943   2.492  0.7343 -0.3761 -1.7948
16394TIP3    H270598   2.391   3.814   2.513  1.6193  0.1321 -1.8712
16395TIP3   OH270599   6.623   0.062   1.788  0.3906  0.5257 -0.6579
16395TIP3    H170600   6.637   0.146   1.832 -0.2790  0.3452 -0.0904
16395TIP3    H270601   6.594   0.003   1.857  1.9785 -0.4981 -0.8139
16396TIP3   OH270602   1.654   4.715  12.213  0.1653  0.4163 -0.1029
16396TIP3    H170603   1.588   4.771  12.255 -1.2557 -0.6656 -0.8196
16396TIP3    H270604   1.615   4.691  12.129  2.6417  1.9373 -1.7913
16397TIP3   OH270605   2.867   2.719  14.123  0.5011  0.0566 -0.0995
16397TIP3    H170606   2.900   2.670  14.198  0.9060 -0.1990 -0.4419
16397TIP3    H270607   2.784   2.755  14.153  1.3829  1.2689  1.0045
16398TIP3   OH270608   5.622   2.008  16.907 -0.3149 -0.1736 -0.0124
16398TIP3    H170609   5.637   2.085  16.962 -0.8942 -0.6850  0.8984
16398TIP3    H270610   5.608   2.043  16.819  0.8683  0.6538  0.1039
16399TIP3   OH270611   0.999   0.607  13.763 -0.0846  0.0396  0.2731
16399TIP3    H170612   0.950   0.688  13.751 -1.3698 -0.9239 -1.4897
16399TIP3    H270613   1.072   0.614  13.702 -0.3202 -0.2106 -0.0401
16400TIP3   OH270614   2.317   3.284   1.455  0.3039  0.7588 -0.1153
16400TIP3    H170615   2.226   3.311   1.447  0.0394 -0.0733 -0.0055
16400TIP3    H270616   2.365   3.342   1.396 -0.6193 -0.3812 -2.0402
16401TIP3   OH270617   5.078   4.605   6.620  0.2925 -0.7355 -0.1852
16401TIP3    H170618   4.990   4.623   6.654  0.9700 -1.2538  2.0409
16401TIP3    H270619   5.112   4.537   6.678  2.5928  0.2459 -0.2806
16402TIP3   OH270620   4.656   1.888   1.193  0.1049 -0.7383  0.3382
16402TIP3    H170621   4.738   1.845   1.172  1.1890  0.7925  1.2751
16402TIP3    H270622   4.662   1.909   1.286 -1.2818 -0.4463  0.3894
16403TIP3   OH270623   0.174   2.869   1.301 -0.2033 -0.0539  0.7927
16403TIP3    H170624   0.125   2.939   1.344  0.7733  0.2617  1.4210
16403TIP3    H270625   0.266   2.892   1.315  0.1297 -1.2759  0.7096
16404TIP3   OH270626   6.779   5.046   4.852 -0.2375 -0.0030  0.2092
16404TIP3    H170627   6.702   5.008   4.811  0.7093 -2.1342  0.2575
16404TIP3    H270628   6.821   4.972   4.896  2.8770  0.6199 -1.4392
16405TIP3   OH270629   2.395   3.250   3.611 -0.2415 -0.3057 -0.5555
16405TIP3    H170630   2.405   3.331   3.661 -0.9160 -0.3008 -0.4182
16405TIP3    H270631   2.306   3.255   3.575 -1.1002 -1.8967  1.1598
16406TIP3   OH270632   4.918   5.155   5.938  0.5120  0.2002  0.6464
16406TIP3    H170633   4.829   5.121   5.936  0.7500 -0.4351 -1.5475
16406TIP3    H270634   4.968   5.090   5.988  0.0596 -0.2256  0.5506
16407TIP3   OH270635   4.519   3.546   4.823 -0.1387 -0.7433  0.4175
16407TIP3    H170636   4.477   3.517   4.742 -0.8163 -3.0218  1.5007
16407TIP3    H270637   4.467   3.621   4.851 -0.7487 -0.7851 -0.5467
16408TIP3   OH270638   4.342   0.938   2.910  0.0634  0.0133  0.2256
16408TIP3    H170639   4.306   1.020   2.943  1.0742  1.4427 -1.9816
16408TIP3    H270640   4.266   0.884   2.891 -0.6977  1.1151  0.0877
16409TIP3   OH270641   3.157   0.198  14.922  0.1172 -0.8882  0.5464
16409TIP3    H170642   3.205   0.182  14.841 -2.3306  0.2323 -1.2476
16409TIP3    H270643   3.100   0.122  14.932  1.1462 -1.5335  1.8824
16410TIP3   OH270644   5.459   0.599  13.565 -0.3858  0.1889 -0.0584
16410TIP3    H170645   5.464   0.595  13.469 -0.1058  1.1882 -0.0915
16410TIP3    H270646   5.550   0.591  13.594 -0.5768 -1.3500  0.1909
16411TIP3   OH270647   1.627   6.705   5.955 -0.1013  0.1348  0.4400
16411TIP3    H170648   1.705   6.703   5.900  0.1102  1.9615  0.6229
16411TIP3    H270649   1.645   6.773   6.020 -1.2425 -0.4598  1.4155
16412TIP3   OH270650   4.231   6.765  16.656  0.1963  0.1033 -0.5135
16412TIP3    H170651   4.188   6.780  16.740  3.4480  0.4123  1.2682
16412TIP3    H270652   4.160   6.745  16.595 -2.3030 -0.2485  2.3124
16413TIP3   OH270653   5.044   5.328   2.915  0.1043 -0.0731  0.1350
16413TIP3    H170654   5.105   5.366   2.978  1.1058  0.3010 -1.0025
16413TIP3    H270655   5.071   5.367   2.831 -1.2095 -0.5098 -0.5068
16414TIP3   OH270656   6.592   0.445  14.568  0.4883  0.3861  0.6936
16414TIP3    H170657   6.604   0.402  14.653 -0.4349  0.3387  0.8065
16414TIP3    H270658   6.588   0.373  14.505  0.1867  0.3709  0.7304
16415TIP3   OH270659   3.668   1.093   5.316  0.1050  0.4501  0.0069
16415TIP3    H170660   3.752   1.114   5.275 -0.2893  1.8608 -0.1281
16415TIP3    H270661   3.674   1.129   5.404 -0.6225  1.2763 -0.2594
16416TIP3   OH270662   4.656   3.567  14.733 -0.0510  0.0957 -0.3109
16416TIP3    H170663   4.644   3.482  14.691 -1.1088  0.8899 -1.7354
16416TIP3    H270664   4.687   3.547  14.821 -2.2963 -1.8570  0.1299
16417TIP3   OH270665   4.780   3.926  12.983  0.3359  0.2403  0.4020
16417TIP3    H170666   4.793   3.856  13.047  0.5755 -0.5642 -0.5085
16417TIP3    H270667   4.715   3.891  12.922  1.8992  0.0063 -1.2015
16418TIP3   OH270668   2.716   0.600  16.212  0.7448 -0.3467 -0.2217
16418TIP3    H170669   2.808   0.573  16.218  0.9293  0.1453 -0.7478
16418TIP3    H270670   2.711   0.652  16.131  0.1539  0.2141  0.1615
16419TIP3   OH270671   2.175   3.362  13.167  0.3870  0.1490 -0.1166
16419TIP3    H170672   2.092   3.382  13.123 -0.2874 -0.5721  0.7866
16419TIP3    H270673   2.210   3.448  13.192 -0.1742  0.4525 -0.3560
16420TIP3   OH270674   3.746   3.812   4.016  0.0072 -0.0287  0.1473
16420TIP3    H170675   3.675   3.849   3.963  0.1411  1.1727  0.7726
16420TIP3    H270676   3.752   3.870   4.092  0.8437 -0.8316  0.7137
16421TIP3   OH270677   5.719   5.800   0.948 -0.3508  0.1486  0.1444
16421TIP3    H170678   5.724   5.735   0.878  1.0124  0.5323 -0.1440
16421TIP3    H270679   5.632   5.788   0.986 -0.5874 -0.9972 -0.7121
16422TIP3   OH270680   3.255   3.647   2.219  0.1318  0.6667  0.3455
16422TIP3    H170681   3.305   3.617   2.294 -2.5849 -2.2154  1.2132
16422TIP3    H270682   3.282   3.590   2.147 -0.6607  0.2389  0.3805
16423TIP3   OH270683   0.352   0.768  16.411  0.3006 -0.1060 -0.4218
16423TIP3    H170684   0.267   0.798  16.445  0.6247 -0.5815  0.8653
16423TIP3    H270685   0.347   0.673  16.416  1.6990 -0.1198  1.7596
16424TIP3   OH270686   4.346   0.864  13.544 -0.0373 -0.7446  0.3244
16424TIP3    H170687   4.279   0.804  13.579 -0.6919 -0.5597 -0.5735
16424TIP3    H270688   4.306   0.902  13.466  0.9091 -0.1879  0.0917
16425TIP3   OH270689   6.267   3.223   3.030  0.5347 -0.1455 -0.5648
16425TIP3    H170690   6.333   3.155   3.040  0.9642  0.3185 -0.1690
16425TIP3    H270691   6.192   3.191   3.079  0.6319 -0.4563 -0.6138
16426TIP3   OH270692   5.758   4.786  13.032 -0.0570  0.0657  0.2088
16426TIP3    H170693   5.769   4.710  13.089  0.4798 -0.7339 -0.9243
16426TIP3    H270694   5.763   4.862  13.091 -0.1819 -0.7539  1.2952
16427TIP3   OH270695   3.855   3.448   3.086  0.0747 -0.1849  0.0148
16427TIP3    H170696   3.795   3.520   3.066  0.7110 -0.1632 -2.0513
16427TIP3    H270697   3.940   3.490   3.096  0.2589 -0.5205 -0.1156
16428TIP3   OH270698   2.946   0.136  11.684  0.1730  0.4418  0.9105
16428TIP3    H170699   2.997   0.200  11.634  0.6769 -0.9182 -0.3942
16428TIP3    H270700   3.012   0.080  11.725 -0.1936 -1.0751 -0.4565
16429TIP3   OH270701   1.563   0.877   2.162 -0.3070  0.7063 -0.0652
16429TIP3    H170702   1.623   0.923   2.221 -0.3758  4.0617 -2.2862
16429TIP3    H270703   1.477   0.883   2.205  0.3106 -0.9688  1.4927
16430TIP3   OH270704   5.432   3.445   1.559 -0.0288 -0.1245  0.0322
16430TIP3    H170705   5.454   3.503   1.486  0.7388 -1.7819 -1.1231
16430TIP3    H270706   5.352   3.482   1.596  0.0940  1.2918 -1.0398
16431TIP3   OH270707   0.985   2.100   3.060  0.5341  0.3690  0.4263
16431TIP3    H170708   1.043   2.025   3.074  0.3616  0.3004  0.7838
16431TIP3    H270709   0.928   2.101   3.136 -0.6975 -0.2553 -0.4481
16432TIP3   OH270710   0.685   0.634   4.791  0.1870  0.2857 -0.2319
16432TIP3    H170711   0.627   0.708   4.775 -1.8104 -1.1469  0.0077
16432TIP3    H270712   0.663   0.605   4.880 -0.6022 -1.8382 -1.0623
16433TIP3   OH270713   1.787   1.850   1.650 -0.1610  0.3238  0.2411
16433TIP3    H170714   1.809   1.841   1.743 -1.0296 -1.1241  0.3397
16433TIP3    H270715   1.836   1.780   1.607 -0.1486  0.6782 -0.3241
16434TIP3   OH270716   2.133   0.868   4.122  0.5251  0.0302 -0.6871
16434TIP3    H170717   2.156   0.953   4.160 -0.5141  0.0078  0.0269
16434TIP3    H270718   2.111   0.888   4.031  3.3550  0.0346 -1.4766
16435TIP3   OH270719   1.531   4.126   1.700  0.2286 -0.6341 -0.0404
16435TIP3    H170720   1.559   4.210   1.663  0.5535 -0.6037  0.2740
16435TIP3    H270721   1.494   4.078   1.625  0.6942 -0.4917 -0.3644
16436TIP3   OH270722   6.393   1.817   3.282 -0.3618 -0.0908  0.2073
16436TIP3    H170723   6.442   1.788   3.358 -1.4905  0.9814  1.4023
16436TIP3    H270724   6.304   1.829   3.314 -0.1747  3.8824 -0.2950
16437TIP3   OH270725   6.280   6.205   1.638 -0.5868 -0.3333 -0.6745
16437TIP3    H170726   6.285   6.262   1.715 -0.5641  0.1787 -1.0534
16437TIP3    H270727   6.292   6.117   1.674  2.5710  0.0899 -0.4234
16438TIP3   OH270728   1.219   0.088   1.039 -0.3138 -0.3581  0.3137
16438TIP3    H170729   1.295   0.052   1.086  0.5054  0.6755 -0.1754
16438TIP3    H270730   1.179   0.148   1.102  2.1651  2.8767 -0.9422
16439TIP3   OH270731   2.080   3.026   3.261 -0.0813  0.6529  0.4498
16439TIP3    H170732   2.107   2.974   3.185 -0.7871  0.5514  0.2574
16439TIP3    H270733   2.136   3.103   3.260  1.8373 -0.6476  1.4327
16440TIP3   OH270734   0.992   5.340   3.869 -0.1072 -0.1141 -0.1950
16440TIP3    H170735   0.954   5.417   3.911  1.2570 -0.3680  1.6024
16440TIP3    H270736   1.078   5.368   3.839 -0.0173 -0.6615 -0.4746
16441TIP3   OH270737   6.128   4.332  11.703 -0.0476  0.3018  0.0128
16441TIP3    H170738   6.151   4.270  11.635 -1.4366 -1.4142  1.0083
16441TIP3    H270739   6.157   4.291  11.784  0.9618  1.9907  0.5685
16442TIP3   OH270740   4.584   3.310  15.003 -0.1061 -0.3297  0.1058
16442TIP3    H170741   4.490   3.320  14.985  0.0409  0.6243 -0.1847
16442TIP3    H270742   4.595   3.217  15.021 -0.7630 -0.8979 -2.0584
16443TIP3   OH270743   0.868   5.747  13.370  0.0369 -0.0268  0.4206
16443TIP3    H170744   0.915   5.664  13.362  1.1711  0.5114  1.3113
16443TIP3    H270745   0.839   5.749  13.461  0.6144  0.8597  0.5939
16444TIP3   OH270746   4.477   0.479  15.200 -0.1937  0.3457  0.1404
16444TIP3    H170747   4.491   0.404  15.259  0.0073  0.6709  0.5143
16444TIP3    H270748   4.451   0.440  15.117 -0.5722 -0.1198  0.4702
16445TIP3   OH270749   5.472   3.704  11.050 -0.4798 -0.0727 -1.0084
16445TIP3    H170750   5.548   3.652  11.075 -1.0739  0.2229  1.6447
16445TIP3    H270751   5.504   3.760  10.979  1.6844 -0.2066 -0.2123
16446TIP3   OH270752   2.258   4.310   5.406 -0.0296  0.3371  0.8731
16446TIP3    H170753   2.268   4.217   5.423 -1.6032 -0.1238 -0.5020
16446TIP3    H270754   2.272   4.320   5.312  0.5020  1.5644  1.0528
16447TIP3   OH270755   3.014   5.903  10.731 -0.4914 -0.1608 -0.2792
16447TIP3    H170756   2.943   5.887  10.792  0.5880 -2.9041  0.4120
16447TIP3    H270757   3.076   5.958  10.779 -0.6513 -0.4831  0.2904
16448TIP3   OH270758   2.036   4.656  14.960 -0.1735 -0.6471  0.3387
16448TIP3    H170759   2.014   4.725  15.022  0.6579 -1.1631  1.2370
16448TIP3    H270760   2.018   4.574  15.006  1.1694 -1.0515  0.2121
16449TIP3   OH270761   2.845   2.365   4.918  0.1368  0.2293 -0.0933
16449TIP3    H170762   2.844   2.460   4.936 -0.9654  0.2505 -0.2273
16449TIP3    H270763   2.827   2.325   5.003 -0.0844  0.1590 -0.1748
16450TIP3   OH270764   5.806   4.511   4.096  0.0425  0.0631 -0.1263
16450TIP3    H170765   5.860   4.589   4.092 -0.7468  0.7873  1.9617
16450TIP3    H270766   5.781   4.494   4.005  0.5291  2.0034 -0.6645
16451TIP3   OH270767   2.716   6.409  15.129  0.0018  0.0199  0.3435
16451TIP3    H170768   2.677   6.466  15.195 -0.4416 -0.1022  0.1892
16451TIP3    H270769   2.786   6.462  15.090 -0.5082  0.5222  0.0941
16452TIP3   OH270770   1.442   5.374   1.283  0.0193 -0.1690  0.3068
16452TIP3    H170771   1.504   5.362   1.212  0.5973  0.1418  0.7505
16452TIP3    H270772   1.401   5.288   1.295 -0.2221 -0.1755 -0.5161
16453TIP3   OH270773   6.214   2.467   5.489 -0.0296  0.2353 -0.5132
16453TIP3    H170774   6.307   2.484   5.475  0.1676  0.4367  0.9119
16453TIP3    H270775   6.189   2.524   5.562 -1.3207  0.3124 -0.9790
16454TIP3   OH270776   5.984   4.840  13.318  0.0579 -0.0475 -0.2369
16454TIP3    H170777   5.918   4.900  13.285  1.5166  0.5613 -2.2620
16454TIP3    H270778   5.976   4.762  13.264  0.9093 -0.0095 -0.4376
16455TIP3   OH270779   3.305   1.187   1.824  0.0801  0.4904 -0.1863
16455TIP3    H170780   3.330   1.241   1.749 -0.3162 -0.6705 -1.1934
16455TIP3    H270781   3.380   1.190   1.883  1.1077  0.0253 -1.4368
16456TIP3   OH270782   1.467   5.820   5.039  0.1647  0.8569 -0.6204
16456TIP3    H170783   1.504   5.780   5.118 -0.1601 -1.3669 -1.5186
16456TIP3    H270784   1.531   5.799   4.970 -1.5315 -0.9767 -1.7344
16457TIP3   OH270785   5.847   6.500  11.705 -0.2392  0.3054 -0.9447
16457TIP3    H170786   5.911   6.437  11.674 -0.6502 -0.6185  0.0458
16457TIP3    H270787   5.898   6.567  11.750 -0.0445 -1.1809  1.1304
16458TIP3   OH270788   4.085   1.444   0.339 -0.4604  0.2255  0.3505
16458TIP3    H170789   4.025   1.428   0.266 -2.1423 -1.9585  2.0939
16458TIP3    H270790   4.097   1.539   0.339 -2.5279  0.5608 -1.1267
16459TIP3   OH270791   1.222   6.644   1.695  0.2203 -0.5902  0.2345
16459TIP3    H170792   1.271   6.573   1.738 -1.6480 -1.6239  0.7710
16459TIP3    H270793   1.260   6.724   1.730  1.3906 -1.3447  0.7621
16460TIP3   OH270794   1.913   3.001   1.542 -0.4902 -0.0707  0.7342
16460TIP3    H170795   1.871   2.918   1.521  3.4966 -2.9415  2.5869
16460TIP3    H270796   1.960   3.026   1.462 -2.8900  1.3906 -0.3101
16461TIP3   OH270797   1.489   3.291   0.560 -0.4948 -0.2299  0.3676
16461TIP3    H170798   1.584   3.280   0.562 -0.2289  1.3191 -1.1182
16461TIP3    H270799   1.464   3.273   0.470 -1.4980  0.1975  0.5422
16462TIP3   OH270800   2.981   4.433  13.710  0.4983 -0.0770  0.1788
16462TIP3    H170801   3.054   4.425  13.649  1.4847  1.4441  1.0855
16462TIP3    H270802   2.986   4.355  13.765  0.0875 -1.0612 -1.1274
16463TIP3   OH270803   3.666   2.387  13.111  0.0114 -0.5285  0.2688
16463TIP3    H170804   3.758   2.376  13.088 -0.0287  0.1570 -0.2475
16463TIP3    H270805   3.633   2.297  13.121  0.8057 -0.7753  0.7981
16464TIP3   OH270806   5.223   3.817   4.636 -0.7407  0.2016  0.2551
16464TIP3    H170807   5.179   3.830   4.552  1.3714  0.6158 -0.8584
16464TIP3    H270808   5.261   3.903   4.657 -1.1709  0.0867  1.6258
16465TIP3   OH270809   4.730   3.322  15.994  0.9709  0.3191  0.1553
16465TIP3    H170810   4.712   3.322  15.900  0.9012 -1.4581  0.1420
16465TIP3    H270811   4.643   3.312  16.034  0.9979  1.0970  0.4182
16466TIP3   OH270812   1.921   1.336   0.074  0.4514  0.0566  0.0973
16466TIP3    H170813   1.903   1.406   0.137 -1.2487 -1.5035  1.4252
16466TIP3    H270814   1.838   1.322   0.029  1.1645 -0.1440 -1.2258
16467TIP3   OH270815   1.141   0.786  16.619 -0.0382  0.0523 -0.3175
16467TIP3    H170816   1.211   0.819  16.675 -1.2480  0.7021  0.8449
16467TIP3    H270817   1.099   0.865  16.584  0.3596 -0.3369 -1.7441
16468TIP3   OH270818   0.806   1.220   1.589  0.2665  0.1026 -0.5764
16468TIP3    H170819   0.731   1.213   1.647  0.2071 -1.1595 -0.7633
16468TIP3    H270820   0.878   1.249   1.645 -0.2885  1.0411 -0.3404
16469TIP3   OH270821   1.435   2.026   0.901  0.4324  0.1924 -0.4293
16469TIP3    H170822   1.422   1.934   0.923  1.6739  0.1506  0.1698
16469TIP3    H270823   1.473   2.065   0.979 -1.7763  1.6663  0.0167
16470TIP3   OH270824   4.664   4.797   2.278  0.4072  0.4166  0.1103
16470TIP3    H170825   4.628   4.856   2.212 -1.1410 -1.4355 -0.8044
16470TIP3    H270826   4.738   4.755   2.234  1.7782  1.9181  0.9052
16471TIP3   OH270827   1.015   0.063   0.299 -0.7698  0.3512 -0.1958
16471TIP3    H170828   0.929   0.092   0.328 -0.3641  0.9557  0.4347
16471TIP3    H270829   1.072   0.139   0.312 -0.1073 -0.0903 -0.4463
16472TIP3   OH270830   0.302   2.333   3.836 -0.4448 -0.0529 -0.0001
16472TIP3    H170831   0.395   2.313   3.847 -0.0243  1.4978 -0.5769
16472TIP3    H270832   0.274   2.365   3.921  0.0637  1.3761 -0.3487
16473TIP3   OH270833   6.292   2.346  13.189  0.0706 -0.1140  0.8632
16473TIP3    H170834   6.314   2.258  13.158 -2.4400 -1.0046  1.3717
16473TIP3    H270835   6.374   2.380  13.224  1.3537 -1.8302 -0.2868
16474TIP3   OH270836   1.716   4.297  16.149  0.2859 -0.6612  0.1004
16474TIP3    H170837   1.688   4.294  16.241  0.8120  0.5617  0.3235
16474TIP3    H270838   1.739   4.207  16.128 -1.5690 -1.3040  0.6009
16475TIP3   OH270839   6.024   3.090  10.665  0.4940 -0.2073 -0.6619
16475TIP3    H170840   5.942   3.131  10.692  1.2916  1.3044 -0.4031
16475TIP3    H270841   6.071   3.075  10.747  0.5266 -0.9616 -0.8162
16476TIP3   OH270842   4.496   2.992   3.039 -0.3390  0.3663  0.7089
16476TIP3    H170843   4.531   2.903   3.035 -2.0070 -0.3504  1.1561
16476TIP3    H270844   4.531   3.027   3.121  2.1770  0.9916 -0.5539
16477TIP3   OH270845   5.607   1.848  13.642  0.1744 -0.2454  0.2054
16477TIP3    H170846   5.629   1.761  13.608  1.5264  0.7556 -1.6435
16477TIP3    H270847   5.675   1.905  13.607 -2.1466  2.0438 -0.8657
16478TIP3   OH270848   1.612   1.238  16.032  0.2486 -0.6129  0.3742
16478TIP3    H170849   1.625   1.301  15.961  1.2775 -1.9006 -0.6413
16478TIP3    H270850   1.517   1.237  16.046  0.0106 -0.4051 -1.0552
16479TIP3   OH270851   0.568   2.201   4.601  0.1358  0.1050  0.3305
16479TIP3    H170852   0.487   2.225   4.556  1.4538  0.7419 -1.8577
16479TIP3    H270853   0.541   2.183   4.692 -2.1513  2.0351  0.1204
16480TIP3   OH270854   2.042   5.393   0.050  0.2927 -0.1998 -0.0903
16480TIP3    H170855   1.996   5.467   0.010 -0.3794 -1.0099 -0.8627
16480TIP3    H270856   2.065   5.423   0.138 -0.4638  0.7230 -0.1972
16481TIP3   OH270857   0.111   5.069  14.345 -0.1522  0.3111  0.4703
16481TIP3    H170858   0.203   5.052  14.321 -0.2188  1.7321 -0.9488
16481TIP3    H270859   0.090   4.999  14.407  1.1564 -1.5477 -1.0300
16482TIP3   OH270860   3.634   6.795  12.756  0.2488 -0.0588 -0.0320
16482TIP3    H170861   3.676   6.744  12.687 -0.8531 -0.0149 -0.7472
16482TIP3    H270862   3.544   6.762  12.760  0.4837 -0.6362  1.9433
16483TIP3   OH270863   1.322   5.440   6.643 -0.2290  0.0974  0.7294
16483TIP3    H170864   1.378   5.486   6.706  0.4522  1.4597 -0.7912
16483TIP3    H270865   1.377   5.431   6.565 -1.1544 -1.2512  0.2134
16484TIP3   OH270866   0.332   6.760  15.960  0.3779 -0.2210  0.1114
16484TIP3    H170867   0.396   6.829  15.975  0.6368 -0.4598  0.1036
16484TIP3    H270868   0.251   6.795  15.997  0.0690  0.8118 -1.4561
16485TIP3   OH270869   1.945   2.192  15.458 -0.3494 -0.3037 -0.2593
16485TIP3    H170870   1.991   2.108  15.467 -2.3381 -1.3505  0.9477
16485TIP3    H270871   1.959   2.236  15.542 -3.2202 -1.6450  1.0881
16486TIP3   OH270872   2.176   0.508  11.313  0.0631  0.0337  0.2337
16486TIP3    H170873   2.265   0.541  11.303 -0.6209  2.9225  2.3599
16486TIP3    H270874   2.185   0.434  11.373  1.2018 -1.1172 -1.2834
16487TIP3   OH270875   2.074   0.397  12.398 -1.0817 -0.3765 -0.3083
16487TIP3    H170876   2.142   0.364  12.338  0.0474  3.3064 -1.3111
16487TIP3    H270877   1.994   0.351  12.371 -0.5089  0.5691 -4.3334
16488TIP3   OH270878   1.872   3.291   2.442 -0.0139 -0.7020 -0.6020
16488TIP3    H170879   1.932   3.361   2.415 -1.4718  1.0479  0.4073
16488TIP3    H270880   1.785   3.329   2.433 -1.0648 -3.2505 -2.2674
16489TIP3   OH270881   3.133   5.716  13.698  0.0281 -0.2168  0.5441
16489TIP3    H170882   3.189   5.759  13.634  0.2239  1.1764  1.6052
16489TIP3    H270883   3.116   5.783  13.764 -1.7550 -1.0235  0.9703
16490TIP3   OH270884   2.563   6.553  13.411 -0.3619 -0.7649  0.1680
16490TIP3    H170885   2.530   6.503  13.485  1.6301 -0.3520  1.3970
16490TIP3    H270886   2.523   6.640  13.420 -1.1439 -1.0989 -0.0146
16491TIP3   OH270887   1.071   1.857   3.124  0.4953 -0.8506  0.3342
16491TIP3    H170888   1.027   1.822   3.201 -0.6030  0.5356  0.3712
16491TIP3    H270889   1.069   1.785   3.061 -0.5165 -1.2961  0.8527
16492TIP3   OH270890   0.574   0.910  13.738  0.0434  0.0252  0.0723
16492TIP3    H170891   0.557   0.972  13.667 -2.2581 -0.7066 -0.0909
16492TIP3    H270892   0.597   0.966  13.813 -0.5779  0.9823 -0.4309
16493TIP3   OH270893   4.479   0.027   2.642  0.0724 -0.0890 -0.4150
16493TIP3    H170894   4.432   0.013   2.560 -1.7004 -1.4480  0.7482
16493TIP3    H270895   4.567  -0.007   2.626 -0.6796 -1.7109 -1.3433
16494TIP3   OH270896   2.856   6.025  13.669 -0.2082 -0.2548  0.2111
16494TIP3    H170897   2.927   6.038  13.732 -0.1444  1.2378 -0.1370
16494TIP3    H270898   2.900   6.004  13.587 -0.2296 -0.6227  0.2915
16495TIP3   OH270899   1.861   1.112  14.894 -0.0288  0.2863  0.0237
16495TIP3    H170900   1.813   1.078  14.969 -1.1174  2.6175  0.4970
16495TIP3    H270901   1.869   1.038  14.834 -3.3861 -0.5139  0.3590
16496TIP3   OH270902   0.318   4.594  17.027 -0.2319  0.5989 -0.8569
16496TIP3    H170903   0.261   4.530  16.982 -0.5226  1.0951 -1.2028
16496TIP3    H270904   0.265   4.673  17.032  0.3442  0.9949 -0.9565
16497TIP3   OH270905   3.429   4.545   1.018 -0.4213 -0.0263 -0.0090
16497TIP3    H170906   3.419   4.471   0.959  0.9420  0.4458 -0.8715
16497TIP3    H270907   3.478   4.510   1.092 -0.7886 -0.2533  0.1299
16498TIP3   OH270908   0.488   6.508  11.725  0.4548 -0.2069  0.0715
16498TIP3    H170909   0.406   6.485  11.768 -0.5986  0.1599 -1.6489
16498TIP3    H270910   0.478   6.476  11.636  1.5868  1.1518 -0.5874
16499TIP3   OH270911   5.508   4.545  15.651  0.0771 -0.3681 -1.2325
16499TIP3    H170912   5.536   4.562  15.562  0.1877  0.5352 -1.0282
16499TIP3    H270913   5.488   4.631  15.688  0.6936 -0.6613 -0.1655
16500TIP3   OH270914   6.540   6.152   4.726 -0.2620 -0.7268 -0.8450
16500TIP3    H170915   6.499   6.162   4.640  0.0442  0.0410 -0.9111
16500TIP3    H270916   6.467   6.147   4.787 -0.4792 -1.0842 -1.1355
16501TIP3   OH270917   3.590   5.421  10.208  0.0589 -0.2563 -0.1981
16501TIP3    H170918   3.667   5.466  10.242 -0.6046 -0.3210  1.5078
16501TIP3    H270919   3.584   5.341  10.259 -2.4342  0.8420  1.4506
16502TIP3   OH270920   5.973   6.418   6.098  0.1122 -0.0781  0.0139
16502TIP3    H170921   6.068   6.424   6.105  0.1297  0.0267 -0.3041
16502TIP3    H270922   5.942   6.508   6.113  0.1436  0.1316 -1.1141
16503TIP3   OH270923   3.349   0.375  12.537 -0.2031 -0.3822  0.6528
16503TIP3    H170924   3.313   0.395  12.451 -0.3822  0.8905  1.0031
16503TIP3    H270925   3.331   0.282  12.549 -1.5648 -0.2409 -0.0304
16504TIP3   OH270926   2.125   6.633   3.532  0.3114 -0.1550 -0.8869
16504TIP3    H170927   2.103   6.693   3.461 -0.3802 -1.1791 -1.5721
16504TIP3    H270928   2.173   6.562   3.489  1.2388 -0.0492 -0.0703
16505TIP3   OH270929   5.957   1.009  12.022  0.5471  0.2180 -0.4577
16505TIP3    H170930   6.005   1.061  12.086  2.1560 -1.1934 -0.4402
16505TIP3    H270931   5.884   0.972  12.072  1.2649 -0.1298  0.3776
16506TIP3   OH270932   2.423   3.445  12.870 -0.1775 -0.4870  0.1197
16506TIP3    H170933   2.334   3.479  12.881 -0.3126 -0.7943 -0.0247
16506TIP3    H270934   2.479   3.510  12.913 -0.5453 -0.7615  1.0188
16507TIP3   OH270935   2.901   4.199   5.061 -0.5407 -0.0191  0.0137
16507TIP3    H170936   2.805   4.192   5.057 -0.5330 -0.2951  0.2219
16507TIP3    H270937   2.918   4.293   5.056 -0.9086  0.1519  1.3358
16508TIP3   OH270938   0.422   5.023   6.342  0.6242  0.2973 -0.1733
16508TIP3    H170939   0.430   5.049   6.250  1.1797 -0.8657 -0.4700
16508TIP3    H270940   0.505   4.981   6.362  1.3064  2.2882  1.4774
16509TIP3   OH270941   3.169   4.363   2.027 -0.5239  0.0210 -0.3531
16509TIP3    H170942   3.219   4.432   2.073  2.4229 -0.8914 -1.9011
16509TIP3    H270943   3.157   4.398   1.939 -1.3582 -0.4031 -0.4120
16510TIP3   OH270944   1.633   3.955  11.194  0.0143 -0.7101 -0.4757
16510TIP3    H170945   1.585   3.874  11.181  0.1015 -1.2464  2.0541
16510TIP3    H270946   1.714   3.929  11.238  0.1592  0.7019  0.1573
16511TIP3   OH270947   6.547   0.401   3.389  0.5038 -0.3543 -0.3332
16511TIP3    H170948   6.552   0.450   3.471 -2.7194 -0.3112 -0.0412
16511TIP3    H270949   6.577   0.313   3.411 -0.3607 -0.3565  0.9494
16512TIP3   OH270950   6.481   2.868  16.245  0.1179  0.5435 -0.6346
16512TIP3    H170951   6.480   2.809  16.169 -0.3989  1.3584 -1.2740
16512TIP3    H270952   6.448   2.951  16.211 -0.2513  0.8833  0.5208
16513TIP3   OH270953   1.387   4.654  12.486  0.7078  0.2389 -0.1138
16513TIP3    H170954   1.436   4.585  12.442  0.1101 -0.8652  0.8816
16513TIP3    H270955   1.411   4.645  12.578 -0.5433  0.3610  0.2433
16514TIP3   OH270956   6.707   1.949  15.079 -0.8580  0.1661 -0.1722
16514TIP3    H170957   6.758   1.980  15.154 -2.3508  0.8651  0.5884
16514TIP3    H270958   6.683   2.028  15.031 -0.4590 -0.2294 -1.0541
16515TIP3   OH270959   4.555   0.572   1.753  0.3018  0.3241 -0.4061
16515TIP3    H170960   4.494   0.498   1.748 -0.1800  0.7805 -1.6187
16515TIP3    H270961   4.634   0.536   1.794 -0.4720 -0.4796  0.4204
16516TIP3   OH270962   3.182   0.411  12.862  0.4829  0.1764 -0.4497
16516TIP3    H170963   3.262   0.447  12.899  0.6956  0.2572 -0.9680
16516TIP3    H270964   3.181   0.445  12.772  0.6993 -1.1259 -0.9627
16517TIP3   OH270965   3.013   0.480   0.042  0.9177  0.1543  0.0045
16517TIP3    H170966   3.068   0.443   0.112  0.9532  0.9988  0.4399
16517TIP3    H270967   2.940   0.520   0.088  1.9101  2.4112 -0.2507
16518TIP3   OH270968   6.698   6.674   5.676  0.1801 -0.5654  0.1722
16518TIP3    H170969   6.744   6.737   5.732  1.3819  0.9849 -2.4189
16518TIP3    H270970   6.606   6.684   5.701  0.2485  2.6215 -0.3843
16519TIP3   OH270971   4.038   4.544   5.180  0.4784 -0.5135 -0.0229
16519TIP3    H170972   3.989   4.626   5.171 -1.7484 -1.7097  0.4657
16519TIP3    H270973   4.116   4.568   5.230 -0.6266  1.1280  1.0084
16520TIP3   OH270974   3.733   2.298   2.555  0.0415 -0.1977 -0.4555
16520TIP3    H170975   3.715   2.296   2.649 -1.9673 -1.5591 -0.7981
16520TIP3    H270976   3.759   2.388   2.538 -0.0196  0.1967  1.3220
16521TIP3   OH270977   1.303   3.357  13.291  0.5560  0.4370  0.0209
16521TIP3    H170978   1.213   3.337  13.317  0.1090  0.2018 -1.5480
16521TIP3    H270979   1.356   3.291  13.336 -0.0035  0.8255  1.2759
16522TIP3   OH270980   2.649   1.838  15.071  0.2616  0.3526 -0.0228
16522TIP3    H170981   2.625   1.797  14.988  0.9412 -1.9392  0.8238
16522TIP3    H270982   2.744   1.833  15.073  0.2043 -0.7313  1.3695
16523TIP3   OH270983   5.101   5.247  12.040  0.0342 -0.2458  0.0792
16523TIP3    H170984   5.113   5.176  11.977 -0.0605 -1.4337  1.3566
16523TIP3    H270985   5.008   5.267  12.036  0.2565  0.6974 -1.1690
16524TIP3   OH270986   1.747   5.419   1.241  0.0880  0.4863 -0.6546
16524TIP3    H170987   1.824   5.451   1.288 -0.0512  1.0234 -0.7869
16524TIP3    H270988   1.677   5.479   1.267 -0.4388 -0.3581 -0.0568
16525TIP3   OH270989   6.639   2.101   0.261 -0.1304 -0.0838 -0.4752
16525TIP3    H170990   6.602   2.085   0.348  0.0099  2.5890  0.1429
16525TIP3    H270991   6.730   2.072   0.268 -0.6590 -1.8571 -0.4331
16526TIP3   OH270992   5.112   6.341   4.673 -0.0674 -0.0671 -0.5852
16526TIP3    H170993   5.027   6.334   4.628 -0.6623  1.8282  0.1452
16526TIP3    H270994   5.146   6.426   4.646  0.7248  0.0069  0.5816
16527TIP3   OH270995   2.233   5.148   0.739 -0.4892  0.1339 -0.2521
16527TIP3    H170996   2.237   5.238   0.705  0.8662  0.9178  1.7926
16527TIP3    H270997   2.144   5.138   0.771 -0.7771  0.5792 -0.8924
16528TIP3   OH270998   2.222   0.070   4.608 -0.2014  0.0553 -0.5172
16528TIP3    H170999   2.268   0.149   4.636  0.4677 -0.1418 -1.0479
16528TIP3    H271000   2.202   0.024   4.690  0.2119  0.3205 -0.2618
16529TIP3   OH271001   3.208   5.334   4.393 -0.1580 -0.3817  0.3870
16529TIP3    H171002   3.296   5.304   4.418  0.7300  0.6807 -1.2996
16529TIP3    H271003   3.163   5.255   4.365  0.6798 -0.7724  0.1141
16530TIP3   OH271004   3.341   5.413  15.021  0.1667 -0.2115  0.5181
16530TIP3    H171005   3.359   5.500  15.055 -0.4692 -0.2049  0.8572
16530TIP3    H271006   3.259   5.387  15.063 -0.3436 -0.4422 -0.5638
16531TIP3   OH271007   6.384   1.913   1.957 -0.7599 -0.1342 -0.2967
16531TIP3    H171008   6.411   1.991   2.006 -3.8793  2.4349 -2.2507
16531TIP3    H271009   6.313   1.875   2.010 -1.1109  0.0287 -0.6417
16532TIP3   OH271010   0.224   4.591   1.674  0.3307 -0.5973  0.4650
16532TIP3    H171011   0.281   4.584   1.751 -0.8028 -0.5928  1.3403
16532TIP3    H271012   0.279   4.631   1.607  0.8875  0.9744  1.7822
16533TIP3   OH271013   1.514   4.524   6.222  0.5886  0.7911 -0.5120
16533TIP3    H171014   1.445   4.578   6.184 -0.7805  0.1657  0.9302
16533TIP3    H271015   1.529   4.562   6.309  0.5746 -0.2840 -0.0177
16534TIP3   OH271016   6.581   6.213   2.847 -0.3042  0.4116  0.1223
16534TIP3    H171017   6.652   6.168   2.803  0.5624  2.6289 -0.9094
16534TIP3    H271018   6.601   6.205   2.940 -0.9386 -2.3832  0.1176
16535TIP3   OH271019   4.440   1.998   5.692 -0.1512  0.7116 -0.0965
16535TIP3    H171020   4.517   1.943   5.676  0.3978  1.3466  0.3478
16535TIP3    H271021   4.401   1.960   5.771 -1.1223 -0.4951 -1.1036
16536TIP3   OH271022   5.857   2.567   6.145  0.1382 -0.3713  0.5443
16536TIP3    H171023   5.875   2.474   6.155 -1.0116 -0.8527 -1.4539
16536TIP3    H271024   5.806   2.589   6.223  1.8385 -0.9762  1.8826
16537TIP3   OH271025   2.010   1.662  12.019  0.2493  0.0466 -0.0818
16537TIP3    H171026   1.971   1.665  11.932 -0.0207 -0.7485  0.0044
16537TIP3    H271027   2.085   1.721  12.014 -0.8672  1.5191 -0.2923
16538TIP3   OH271028   6.440   3.009   1.641 -0.0396 -0.1176 -0.3576
16538TIP3    H171029   6.427   2.915   1.628  1.8302 -0.7943  1.9262
16538TIP3    H271030   6.384   3.031   1.716  1.3398 -0.0239  0.6920
16539TIP3   OH271031   3.414   2.108   3.101 -0.4430 -0.8246 -0.1211
16539TIP3    H171032   3.508   2.125   3.093 -0.8116  1.2798 -0.3947
16539TIP3    H271033   3.406   2.060   3.184  0.6787  0.9494  1.0832
16540TIP3   OH271034   1.088   2.349  11.886 -0.1814  0.0919 -0.8851
16540TIP3    H171035   1.013   2.375  11.941 -0.6728 -0.3825 -1.3128
16540TIP3    H271036   1.055   2.276  11.835  0.6931 -0.3524 -0.8326
16541TIP3   OH271037   5.774   5.257   4.642  0.1237  0.2289  0.3419
16541TIP3    H171038   5.808   5.321   4.579  0.6710 -1.0002 -0.6518
16541TIP3    H271039   5.833   5.183   4.635  0.4939  0.2281  2.7047
16542TIP3   OH271040   5.568   1.612  12.670  0.0667  0.0737 -0.4609
16542TIP3    H171041   5.516   1.554  12.724 -0.7350 -0.4492 -1.7423
16542TIP3    H271042   5.520   1.618  12.587  1.6979  0.1022 -1.4594
16543TIP3   OH271043   5.846   3.800   4.903  0.3472  0.1321  0.3946
16543TIP3    H171044   5.936   3.789   4.933  0.7839 -1.8405 -1.4159
16543TIP3    H271045   5.847   3.770   4.813 -2.1002  0.2960  0.2530
16544TIP3   OH271046   1.513   1.045  10.921 -0.3071  0.8967  0.0107
16544TIP3    H171047   1.480   1.128  10.889 -0.7391  0.1466 -1.6207
16544TIP3    H271048   1.606   1.045  10.897 -0.6720  0.2553 -1.5393
16545TIP3   OH271049   3.698   4.945   2.170  0.3112 -0.0573 -0.1517
16545TIP3    H171050   3.700   5.004   2.246 -0.8697 -0.7356  0.4432
16545TIP3    H271051   3.609   4.955   2.135  0.6867 -0.1327 -1.1517
16546TIP3   OH271052   3.429   6.004  11.167 -0.0194 -0.0789 -0.4180
16546TIP3    H171053   3.515   6.036  11.139  0.0904  0.9111  1.0030
16546TIP3    H271054   3.447   5.953  11.246 -0.6900 -0.2890 -0.3993
16547TIP3   OH271055   5.555   1.866   3.561  0.1542 -0.2996 -0.3662
16547TIP3    H171056   5.628   1.899   3.613 -0.9837 -1.0224  1.8201
16547TIP3    H271057   5.477   1.892   3.610 -0.9866 -1.3460 -1.5517
16548TIP3   OH271058   0.986   3.589  11.210  0.1446  0.2122  0.2618
16548TIP3    H171059   1.037   3.528  11.157 -0.0333 -0.1665  0.5220
16548TIP3    H271060   1.041   3.607  11.287  0.7110  1.3158 -0.3689
16549TIP3   OH271061   0.740   2.158   1.217 -0.0225 -0.0141  0.1612
16549TIP3    H171062   0.690   2.090   1.262 -1.6302  1.6300  1.0330
16549TIP3    H271063   0.787   2.203   1.288  1.1395 -0.2744 -0.4167
16550TIP3   OH271064   0.397   5.262   3.636 -0.7266 -0.2577 -0.2387
16550TIP3    H171065   0.315   5.302   3.662 -1.2597 -1.4491 -0.0104
16550TIP3    H271066   0.409   5.190   3.697 -0.2656 -0.9960 -1.1700
16551TIP3   OH271067   3.238   0.293   1.586 -0.4307  0.3464  0.0240
16551TIP3    H171068   3.208   0.230   1.520 -0.7420  0.4331  0.0853
16551TIP3    H271069   3.333   0.295   1.574 -0.5630  1.0387 -1.0208
16552TIP3   OH271070   4.601   1.027  15.710 -0.8542  0.0094  0.0937
16552TIP3    H171071   4.667   1.034  15.779 -0.0882  0.6486 -0.6811
16552TIP3    H271072   4.545   1.104  15.722 -0.4180  0.3914 -0.2992
16553TIP3   OH271073   0.041   0.710  13.311  0.3497 -0.4646 -0.3781
16553TIP3    H171074   0.129   0.674  13.305  0.5828  0.0058  0.1999
16553TIP3    H271075  -0.012   0.652  13.257  0.8760 -1.2015 -0.1197
16554TIP3   OH271076   2.040   1.732  11.040  0.3953 -0.0938 -0.5146
16554TIP3    H171077   2.088   1.682  10.973 -0.2762 -0.5434 -0.6678
16554TIP3    H271078   1.979   1.786  10.990 -0.8193 -1.1770 -0.2424
16555TIP3   OH271079   4.772   1.444  15.714  0.3317 -0.0684  0.1263
16555TIP3    H171080   4.824   1.371  15.681 -1.5306 -1.3072 -0.2310
16555TIP3    H271081   4.712   1.466  15.642  0.5439  1.5438  0.3899
16556TIP3   OH271082   4.025   3.115  14.099 -0.1481 -0.4084 -0.5117
16556TIP3    H171083   3.956   3.165  14.056 -0.4630 -1.4194 -1.2095
16556TIP3    H271084   4.098   3.177  14.108 -1.3551  0.8978  0.8972
16557TIP3   OH271085   5.282   0.133  16.255 -0.5132 -0.0635  0.0142
16557TIP3    H171086   5.294   0.211  16.309  0.8090 -0.1009 -0.1873
16557TIP3    H271087   5.278   0.061  16.318  0.0997 -0.0117  0.1207
16558TIP3   OH271088   2.254   0.956  14.797  0.3961 -0.2887  0.3873
16558TIP3    H171089   2.226   0.873  14.758  4.1361 -1.3018 -0.5410
16558TIP3    H271090   2.272   1.013  14.723  0.9198  0.2444  0.9157
16559TIP3   OH271091   5.220   0.858   0.934 -0.1806 -0.0074 -0.1188
16559TIP3    H171092   5.138   0.833   0.976  0.3206  0.5590  1.2464
16559TIP3    H271093   5.194   0.904   0.855 -1.1635 -0.3719 -0.0206
16560TIP3   OH271094   1.989   3.833   6.366 -0.4366  0.4337 -0.5157
16560TIP3    H171095   2.043   3.837   6.446  0.0978 -1.0349 -0.7712
16560TIP3    H271096   2.051   3.852   6.295 -0.6541  0.5525 -0.6725
16561TIP3   OH271097   0.238   2.170   6.545 -0.2672 -0.2799 -0.1579
16561TIP3    H171098   0.310   2.188   6.484  0.0489  1.1478  0.5998
16561TIP3    H271099   0.281   2.149   6.628 -0.7219  0.0336  0.1600
16562TIP3   OH271100   0.217   4.051   1.306 -0.2981 -0.1895  0.1503
16562TIP3    H171101   0.206   4.079   1.397 -1.5209  1.5449 -0.4818
16562TIP3    H271102   0.297   4.095   1.276 -0.1996 -0.3210  0.2186
16563TIP3   OH271103   3.734   3.163  17.135  0.4825 -0.0600 -0.4999
16563TIP3    H171104   3.811   3.200  17.179 -0.2218  1.3306 -0.3888
16563TIP3    H271105   3.763   3.151  17.044  0.9641  0.0698 -0.3705
16564TIP3   OH271106   2.093   5.677   1.046  0.0973 -0.3027  0.5422
16564TIP3    H171107   2.155   5.669   0.973  0.4497 -1.6797  0.9614
16564TIP3    H271108   2.059   5.766   1.038  2.3839  0.6411  0.5059
16565TIP3   OH271109   5.404   5.127   3.340  0.1622 -0.2935  0.3177
16565TIP3    H171110   5.394   5.168   3.254 -1.0593  0.0719  0.6152
16565TIP3    H271111   5.343   5.175   3.397 -0.0680 -1.4381  1.0612
16566TIP3   OH271112   0.841   1.001   5.371  0.1171  0.0714  0.0060
16566TIP3    H171113   0.893   1.046   5.304  3.2052 -1.2835  1.3293
16566TIP3    H271114   0.866   0.909   5.363 -0.1881 -0.2647  2.3303
16567TIP3   OH271115   2.529   4.820  13.514 -0.1310 -0.3728  0.2108
16567TIP3    H171116   2.465   4.781  13.454  0.4132  1.7231 -1.8805
16567TIP3    H271117   2.606   4.764  13.507  0.4733  0.6423 -2.3747
16568TIP3   OH271118   1.897   4.089  17.042  0.2236  0.1199 -0.4312
16568TIP3    H171119   1.988   4.085  17.073  0.6060 -0.5277 -1.5371
16568TIP3    H271120   1.858   4.008  17.073 -0.1352  0.6298  0.4727
16569TIP3   OH271121   1.280   3.186   0.759  0.1238  0.1011 -0.3412
16569TIP3    H171122   1.263   3.111   0.702 -0.1385 -0.0784 -0.0290
16569TIP3    H271123   1.296   3.259   0.698 -0.4230 -0.0251 -0.6454
16570TIP3   OH271124   3.107   4.940  15.927  0.0497 -0.1659  0.3131
16570TIP3    H171125   3.021   4.938  15.969 -0.7593 -2.3014 -1.2627
16570TIP3    H271126   3.092   4.906  15.839  2.2312  1.1089 -0.6514
16571TIP3   OH271127   0.525   3.416   1.739 -0.1157  0.9520 -0.0607
16571TIP3    H171128   0.557   3.501   1.710  0.2171  0.3523 -1.5946
16571TIP3    H271129   0.491   3.375   1.659  1.5367 -1.1265  0.1898
16572TIP3   OH271130   6.593   4.915   4.727 -0.9100  0.5289 -0.0733
16572TIP3    H171131   6.570   4.877   4.812  1.5226  0.0054  0.4075
16572TIP3    H271132   6.573   4.847   4.663  1.3369 -0.8271  0.5678
16573TIP3   OH271133   0.376   4.477   4.280 -0.1452 -0.2877  0.2026
16573TIP3    H171134   0.313   4.546   4.302 -0.0817  0.1964 -1.0652
16573TIP3    H271135   0.327   4.396   4.292 -0.9026  0.0685 -0.3958
16574TIP3   OH271136   3.151   5.439   0.345 -0.5763  1.1675 -0.1175
16574TIP3    H171137   3.175   5.454   0.437 -0.1681 -1.7490  0.3358
16574TIP3    H271138   3.102   5.518   0.320 -1.5117  1.6582  2.8633
16575TIP3   OH271139   1.991   2.872   4.649 -0.3475  0.5444 -0.3505
16575TIP3    H171140   1.901   2.839   4.657 -0.4198  0.9984  1.0388
16575TIP3    H271141   1.984   2.948   4.592 -0.8430  0.5539 -0.2787
16576TIP3   OH271142   1.533   1.571   4.655  0.0586 -0.2079  0.2251
16576TIP3    H171143   1.577   1.486   4.656  1.0072  0.2364 -0.9649
16576TIP3    H271144   1.486   1.573   4.572 -2.8385 -0.9267  1.7358
16577TIP3   OH271145   2.062   0.405   0.480  0.5394 -0.0709 -0.1447
16577TIP3    H171146   2.068   0.461   0.557  0.9567  0.2955 -0.4350
16577TIP3    H271147   1.968   0.393   0.466  0.4180 -2.2356  1.8882
16578TIP3   OH271148   1.686   2.661  15.524  0.3138  0.0724  0.0297
16578TIP3    H171149   1.601   2.690  15.491  0.9275  0.6998 -1.0624
16578TIP3    H271150   1.698   2.708  15.606 -0.5222 -0.2561  0.3465
16579TIP3   OH271151   1.692   2.410  12.880  0.2066 -0.9017 -0.1252
16579TIP3    H171152   1.708   2.503  12.865 -1.5263 -0.7195 -1.0421
16579TIP3    H271153   1.614   2.390  12.828  1.3474 -3.1972 -1.1122
16580TIP3   OH271154   2.448   5.624   6.295  0.2406 -0.4575 -0.1132
16580TIP3    H171155   2.358   5.637   6.326  0.0680 -0.3861 -0.6293
16580TIP3    H271156   2.464   5.530   6.305  0.1002 -0.4720 -0.0306
16581TIP3   OH271157   0.316   4.084   2.224 -0.5680 -0.3499 -0.1373
16581TIP3    H171158   0.332   4.133   2.305  0.6847  1.9273 -1.6649
16581TIP3    H271159   0.224   4.058   2.229 -1.4219  2.5339  0.6241
16582TIP3   OH271160   1.963   3.384  16.994  0.8244 -0.2931  0.3274
16582TIP3    H171161   1.889   3.334  16.961 -1.5644  0.8843  3.4321
16582TIP3    H271162   2.003   3.327  17.060 -1.3341  1.2813  3.1987
16583TIP3   OH271163   0.184   0.530   4.230 -0.5595 -0.5888 -0.0264
16583TIP3    H171164   0.249   0.512   4.162  0.1394 -0.4143  0.5869
16583TIP3    H271165   0.235   0.556   4.307 -1.2136 -2.5718  1.1585
16584TIP3   OH271166   5.543   1.584   1.641 -0.1317 -0.0612  0.4197
16584TIP3    H171167   5.518   1.492   1.641 -1.1053  0.1658  2.1916
16584TIP3    H271168   5.625   1.587   1.689 -0.5521  0.0843  1.1425
16585TIP3   OH271169   2.600   2.256   2.037  0.3527 -0.5279 -0.3482
16585TIP3    H171170   2.599   2.325   2.104 -1.9698 -1.4985  0.6956
16585TIP3    H271171   2.682   2.209   2.053  0.1290 -0.3786  1.4377
16586TIP3   OH271172   6.341   6.445   5.042  0.0739 -0.0143 -0.7800
16586TIP3    H171173   6.368   6.379   4.979  0.0668  0.9477 -1.8122
16586TIP3    H271174   6.246   6.437   5.046  0.0302  0.2379 -1.2560
16587TIP3   OH271175   0.126   4.603  15.832  0.2797 -0.8181 -0.0460
16587TIP3    H171176   0.106   4.524  15.780  0.4134  0.3819 -2.0285
16587TIP3    H271177   0.040   4.633  15.863 -0.0728 -0.4159 -1.3511
16588TIP3   OH271178   0.023   2.955  15.641  0.0786 -0.1161 -0.1501
16588TIP3    H171179  -0.067   2.980  15.663 -0.1903 -2.2828  1.6427
16588TIP3    H271180   0.072   2.969  15.722  0.8931 -0.8120 -0.5063
16589TIP3   OH271181   3.291   0.316  16.950 -0.2203  0.8907 -0.2016
16589TIP3    H171182   3.291   0.404  16.989 -0.0665  1.0563 -0.5778
16589TIP3    H271183   3.237   0.264  17.010  2.4250  0.3833  1.9767
16590TIP3   OH271184   0.810   6.135   2.026 -0.7316  0.1798 -0.1793
16590TIP3    H171185   0.816   6.122   1.931  1.7760 -1.6628  0.1280
16590TIP3    H271186   0.882   6.194   2.047 -0.9224  0.1315  0.6424
16591TIP3   OH271187   3.138   5.966   2.810  0.5817  0.2774  0.0395
16591TIP3    H171188   3.194   6.012   2.872 -0.5162  0.9153  0.5791
16591TIP3    H271189   3.188   5.887   2.786  0.4697 -0.7403  2.8002
16592TIP3   OH271190   5.249   3.528  16.289 -0.2875  0.2925 -0.3909
16592TIP3    H171191   5.293   3.501  16.208  0.7955  1.0666 -0.0829
16592TIP3    H271192   5.317   3.523  16.356 -0.8175  0.9760  0.2097
16593TIP3   OH271193   2.988   5.013  16.554 -0.3020  0.2466 -0.1017
16593TIP3    H171194   3.068   5.007  16.606 -0.9474  0.7410  0.9966
16593TIP3    H271195   3.000   4.950  16.483  1.4434  0.9761 -0.4996
16594TIP3   OH271196   5.482   5.754   5.765 -0.4521  0.4915  0.1896
16594TIP3    H171197   5.395   5.719   5.750 -0.3474  0.1544  0.3468
16594TIP3    H271198   5.490   5.757   5.861  0.5775 -1.7343  0.2361
16595TIP3   OH271199   2.999   6.602  14.598 -0.7401  0.5737 -0.2207
16595TIP3    H171200   3.049   6.534  14.642 -1.1249  0.2554 -0.2705
16595TIP3    H271201   2.908   6.585  14.622 -0.8089  1.2655  0.0274
16596TIP3   OH271202   5.602   3.737  13.862  0.0220  0.4714 -0.0296
16596TIP3    H171203   5.691   3.772  13.862  0.4520 -0.5004  1.6628
16596TIP3    H271204   5.613   3.645  13.885 -1.4048  0.2297 -0.2266
16597TIP3   OH271205   1.420   6.411  13.467 -0.6287 -0.0674 -0.4511
16597TIP3    H171206   1.338   6.365  13.483  0.3319 -0.9963  2.3289
16597TIP3    H271207   1.485   6.341  13.461  0.2583  0.7574 -0.6646
16598TIP3   OH271208   4.642   5.798  15.535 -0.2364  0.4519 -0.4523
16598TIP3    H171209   4.718   5.857  15.532 -0.6178  0.9491 -0.4406
16598TIP3    H271210   4.680   5.711  15.545  0.3305  0.7197 -0.1980
16599TIP3   OH271211   2.158   3.679  16.224 -0.5505 -0.1219 -0.4491
16599TIP3    H171212   2.159   3.684  16.129  0.3942 -0.5518 -0.4789
16599TIP3    H271213   2.065   3.677  16.248 -0.7914  0.0830 -1.3469
16600TIP3   OH271214   2.556   4.479  10.611 -0.2405 -0.0193  0.1428
16600TIP3    H171215   2.509   4.562  10.622  0.2601  0.0329  2.4837
16600TIP3    H271216   2.603   4.489  10.528 -0.6702  1.7983  0.0695
16601TIP3   OH271217   6.047   6.469  13.917 -0.0895 -0.4075  0.3767
16601TIP3    H171218   5.983   6.412  13.874 -1.3170 -0.3091  1.9900
16601TIP3    H271219   6.057   6.543  13.858 -2.1346 -0.0133  0.4768
16602TIP3   OH271220   2.050   1.751   4.721  0.2442 -0.1759  0.6010
16602TIP3    H171221   2.009   1.808   4.785  0.9471  0.2844  0.6516
16602TIP3    H271222   1.983   1.736   4.655  0.0882  0.8025  0.5285
16603TIP3   OH271223   3.243   1.819   1.682 -0.0532 -0.1248 -0.9119
16603TIP3    H171224   3.327   1.842   1.721 -0.5415  0.0130  0.1092
16603TIP3    H271225   3.242   1.863   1.597 -0.2870  2.3247  0.2724
16604TIP3   OH271226   0.993   3.637   0.585 -0.0416 -0.3036  0.0488
16604TIP3    H171227   1.057   3.708   0.595 -0.0256 -0.4579  1.1216
16604TIP3    H271228   0.920   3.662   0.641 -1.7802  0.7667 -2.5184
16605TIP3   OH271229   4.865   2.130   4.135 -0.3360  0.2362  0.2765
16605TIP3    H171230   4.960   2.123   4.147  0.1976  1.8234 -2.3516
16605TIP3    H271231   4.853   2.207   4.080 -2.8449 -1.8831 -2.4370
16606TIP3   OH271232   1.578   3.507   0.262 -0.3590  0.2484 -0.1515
16606TIP3    H171233   1.670   3.480   0.260  0.2311  1.9659  1.3966
16606TIP3    H271234   1.572   3.578   0.198  0.1573  2.1427  1.7868
16607TIP3   OH271235   1.073   6.480  15.366 -0.3393 -0.2894 -0.0075
16607TIP3    H171236   1.124   6.482  15.446 -1.4644 -1.5612  0.7853
16607TIP3    H271237   1.112   6.410  15.314 -0.6684 -0.6157  0.1811
16608TIP3   OH271238   2.469   2.465  16.979  0.7464  0.3184 -0.2757
16608TIP3    H171239   2.450   2.513  17.060 -0.1300  0.2218 -0.4137
16608TIP3    H271240   2.516   2.387  17.008  0.6075  0.3783  0.1210
16609TIP3   OH271241   0.961   2.835   5.134 -0.1998  0.3035  0.2009
16609TIP3    H171242   0.981   2.777   5.061 -0.2511  0.4181  0.0943
16609TIP3    H271243   1.003   2.794   5.209 -0.8175 -0.2386  0.2593
16610TIP3   OH271244   2.322   3.649   0.868  0.1731 -0.2689  0.2669
16610TIP3    H171245   2.307   3.707   0.794  2.4593  0.2695  0.1835
16610TIP3    H271246   2.241   3.598   0.874 -1.1559  1.5885 -0.8232
16611TIP3   OH271247   1.615   0.979  16.124  0.0973 -0.2367 -0.5305
16611TIP3    H171248   1.666   1.059  16.113 -0.2686 -0.0144 -0.6068
16611TIP3    H271249   1.550   0.981  16.054 -0.9019  0.1681  0.3783
16612TIP3   OH271250   4.976   3.847   2.023 -0.1218  0.3231  0.2621
16612TIP3    H171251   5.040   3.787   1.984 -1.3678 -1.7500  1.2216
16612TIP3    H271252   4.896   3.834   1.971 -0.4250  1.1631  0.4977
16613TIP3   OH271253   0.595   4.904  16.620 -0.2239  0.3506 -0.4969
16613TIP3    H171254   0.557   4.968  16.680 -0.1242  1.2321 -1.3532
16613TIP3    H271255   0.613   4.827  16.675  3.2360  2.3406  1.4961
16614TIP3   OH271256   6.395   5.422   5.398  0.0218 -0.0558  0.4881
16614TIP3    H171257   6.335   5.354   5.370 -0.7488  0.5837  0.5427
16614TIP3    H271258   6.348   5.504   5.382  0.0926  0.3903  2.3011
16615TIP3   OH271259   5.857   4.641  14.111  0.3995  0.0404 -0.4491
16615TIP3    H171260   5.887   4.726  14.078  0.1981 -0.5202 -2.1348
16615TIP3    H271261   5.783   4.618  14.055  0.4453 -1.2567 -0.0054
16616TIP3   OH271262   1.644   3.176   6.078 -0.0568  0.2284  0.3314
16616TIP3    H171263   1.597   3.157   5.997  0.6682  2.3524 -0.6668
16616TIP3    H271264   1.579   3.165   6.147 -0.9012 -0.8422 -0.5967
16617TIP3   OH271265   3.948   2.402   4.946  0.3234 -0.0203  0.2575
16617TIP3    H171266   3.943   2.309   4.924  0.1477 -0.1640  0.9068
16617TIP3    H271267   3.951   2.446   4.861 -2.1476 -0.4624 -0.1287
16618TIP3   OH271268   5.701   3.622   3.467  0.0400  0.6572  0.0959
16618TIP3    H171269   5.663   3.573   3.540  1.6884  0.9863  1.2244
16618TIP3    H271270   5.791   3.591   3.462 -0.0748  0.5432 -1.9220
16619TIP3   OH271271   3.718   1.490  15.628  0.0288 -0.2551  0.3525
16619TIP3    H171272   3.678   1.423  15.683 -0.4350 -1.0058 -0.8575
16619TIP3    H271273   3.673   1.571  15.652 -0.0485 -0.5331  1.1800
16620TIP3   OH271274   3.251   2.272   4.453  0.0330  0.9093 -0.2556
16620TIP3    H171275   3.185   2.219   4.496  1.1590  0.1309  0.5519
16620TIP3    H271276   3.216   2.287   4.365 -0.2746 -1.2797 -0.5584
16621TIP3   OH271277   6.376   1.041  15.044  0.3558 -0.1880 -0.2472
16621TIP3    H171278   6.427   1.020  14.966 -1.0234  0.6588 -1.4239
16621TIP3    H271279   6.345   1.130  15.030  0.9613  0.4069  1.7983
16622TIP3   OH271280   4.244   0.017  16.338 -0.1720  0.6706 -0.4383
16622TIP3    H171281   4.155   0.042  16.364  1.1358  2.3959  2.8541
16622TIP3    H271282   4.280   0.096  16.298  0.5358  0.6542  0.1545
16623TIP3   OH271283   3.735   5.401   6.055 -0.1380 -0.1071  0.3962
16623TIP3    H171284   3.762   5.309   6.061  2.0938  0.5524  1.9502
16623TIP3    H271285   3.796   5.439   5.991 -0.4392  0.4896  0.4597
16624TIP3   OH271286   6.199   2.471  10.868 -0.1588  0.0904 -0.3459
16624TIP3    H171287   6.141   2.496  10.795  1.0804  0.0754 -1.3687
16624TIP3    H271288   6.247   2.551  10.888 -0.5179  0.1007  0.5015
16625TIP3   OH271289   6.772   2.443   0.009  0.2710  0.1481 -0.0320
16625TIP3    H171290   6.764   2.534  -0.019 -0.6692 -0.5260 -2.1600
16625TIP3    H271291   6.840   2.407  -0.047  0.4899 -0.5237  0.6517
16626TIP3   OH271292   3.498   2.564   6.018 -0.3774  0.1630 -1.0329
16626TIP3    H171293   3.459   2.520   6.094 -1.9409 -0.4621 -2.1585
16626TIP3    H271294   3.515   2.653   6.049 -1.1956 -0.0172 -0.0046
16627TIP3   OH271295   2.841   0.404  11.653 -0.0307  0.0994  0.0993
16627TIP3    H171296   2.813   0.313  11.650  0.2018  0.0352 -0.1862
16627TIP3    H271297   2.821   0.439  11.567 -0.2021  0.3455  0.2373
16628TIP3   OH271298   3.385   4.644   2.984 -0.4976 -0.0968  0.0563
16628TIP3    H171299   3.419   4.676   3.067  0.0518 -0.5888  0.0275
16628TIP3    H271300   3.291   4.660   2.989 -0.5243 -0.4540  0.9269
16629TIP3   OH271301   1.523   5.398  14.428 -0.5641  0.1903  0.7172
16629TIP3    H171302   1.560   5.361  14.508 -1.0501  0.7542  1.2136
16629TIP3    H271303   1.429   5.381  14.436 -0.3665 -2.3423 -1.1119
16630TIP3   OH271304   0.981   5.030   5.062 -0.5373 -0.1244 -0.4528
16630TIP3    H171305   1.063   5.031   5.012 -1.1797 -1.6052 -1.5884
16630TIP3    H271306   0.915   5.061   5.000 -0.7593  1.9578  0.7197
16631TIP3   OH271307   3.303   1.436  14.197  0.1089  0.4439 -0.0721
16631TIP3    H171308   3.292   1.400  14.109 -0.0943  0.0791  0.1002
16631TIP3    H271309   3.395   1.420  14.218  0.5493  1.8615 -0.7989
16632TIP3   OH271310   5.602   2.400  12.643  0.2892 -0.4844  0.6225
16632TIP3    H171311   5.671   2.334  12.655  2.1004  1.3044  0.5442
16632TIP3    H271312   5.551   2.368  12.568 -0.2688 -2.8433  1.8876
16633TIP3   OH271313   2.626   2.398  15.244  0.0103  0.3955 -0.4895
16633TIP3    H171314   2.671   2.314  15.233 -1.2893 -0.1866 -1.7118
16633TIP3    H271315   2.632   2.416  15.338 -1.5229 -2.1751  0.2097
16634TIP3   OH271316   4.719   6.709  17.002 -0.5069 -0.0529 -0.5733
16634TIP3    H171317   4.645   6.755  17.040  0.2320  0.7894 -0.1375
16634TIP3    H271318   4.790   6.773  17.000  0.4426 -1.0513 -0.2736
16635TIP3   OH271319   5.962   4.305   1.858 -0.1334 -0.4994 -0.5347
16635TIP3    H171320   5.944   4.220   1.897 -1.5756 -0.6575 -1.4847
16635TIP3    H271321   6.055   4.321   1.877 -0.5552 -0.8884  2.2529
16636TIP3   OH271322   3.177   6.078   5.093  0.2390  0.6423 -0.1745
16636TIP3    H171323   3.151   6.067   5.184  0.1792 -0.0012 -0.2704
16636TIP3    H271324   3.132   6.008   5.046  2.2531 -0.6241 -0.3235
16637TIP3   OH271325   3.192   0.702  12.075 -0.0448  0.3415 -0.3724
16637TIP3    H171326   3.282   0.676  12.059 -0.2407 -0.3135 -0.4631
16637TIP3    H271327   3.185   0.791  12.041  0.9097  0.8932  0.8282
16638TIP3   OH271328   2.314   3.781  14.558 -0.1867 -0.4616 -0.5206
16638TIP3    H171329   2.224   3.779  14.588 -0.0949 -0.8763 -0.2579
16638TIP3    H271330   2.348   3.694  14.578  0.8654  0.2947  1.2318
16639TIP3   OH271331   3.746   5.475  11.943 -0.2402 -0.3713  0.0632
16639TIP3    H171332   3.723   5.458  12.034 -0.5462 -0.7088 -0.0750
16639TIP3    H271333   3.665   5.461  11.895 -0.4933  1.3989 -0.0812
16640TIP3   OH271334   0.412   0.639   0.179 -0.3479  0.5521  0.5427
16640TIP3    H171335   0.456   0.556   0.160  2.3437  1.7208  1.2582
16640TIP3    H271336   0.363   0.622   0.260 -1.5511 -0.8626 -0.4186
16641TIP3   OH271337   0.851   0.488   2.236  0.3917  0.0938 -0.4356
16641TIP3    H171338   0.859   0.552   2.165  2.4006  0.3815 -0.0014
16641TIP3    H271339   0.828   0.406   2.191 -1.4322  0.8994 -1.0661
16642TIP3   OH271340   2.904   0.320  13.565 -0.6964 -0.4089 -0.0275
16642TIP3    H171341   2.939   0.318  13.654 -0.1913 -0.0353 -0.2117
16642TIP3    H271342   2.919   0.409  13.535 -0.9384 -0.5093 -0.4590
16643TIP3   OH271343   3.944   3.265  14.747  0.0225  0.2546  0.3709
16643TIP3    H171344   3.916   3.222  14.667  1.2786  2.2040 -1.2140
16643TIP3    H271345   3.870   3.256  14.807 -0.3882 -2.5511 -0.4319
16644TIP3   OH271346   2.101   6.686   5.024 -0.1764 -0.0990  0.2936
16644TIP3    H171347   2.119   6.740   5.101  0.4491 -0.6520  0.5421
16644TIP3    H271348   2.125   6.597   5.050  0.9929 -0.1539 -0.8441
16645TIP3   OH271349   6.444   5.964   3.981 -0.0631 -0.0139 -0.2932
16645TIP3    H171350   6.350   5.951   3.969  0.1374  0.1742 -2.4693
16645TIP3    H271351   6.475   5.992   3.895  1.9176  0.3867  0.5043
16646TIP3   OH271352   2.387   4.791   5.243  0.0209  0.1328 -0.4076
16646TIP3    H171353   2.370   4.709   5.290 -0.3398  0.1241 -0.5474
16646TIP3    H271354   2.477   4.814   5.266 -0.0271 -0.0667 -0.0118
16647TIP3   OH271355   6.043   0.979   1.354  0.2891  0.3752 -0.0279
16647TIP3    H171356   5.976   0.911   1.360  0.9541 -0.4559 -1.5655
16647TIP3    H271357   6.079   0.985   1.442 -0.0569 -0.9874  0.2272
16648TIP3   OH271358   2.984   1.517   2.306  0.4537 -0.1671  0.1828
16648TIP3    H171359   3.068   1.562   2.305  0.0084  0.8076 -2.1190
16648TIP3    H271360   2.943   1.544   2.388  1.5234  1.1028  0.3382
16649TIP3   OH271361   2.479   1.751   0.411  0.0294  0.3710 -0.4383
16649TIP3    H171362   2.442   1.709   0.489  1.1527 -0.8977 -0.5688
16649TIP3    H271363   2.531   1.823   0.446 -0.7515  0.8000 -0.1274
16650TIP3   OH271364   6.316   4.300  12.378 -0.4332 -0.1889 -0.2335
16650TIP3    H171365   6.403   4.261  12.371 -0.5244 -0.3841 -0.3093
16650TIP3    H271366   6.256   4.225  12.376 -0.6194 -0.0338 -0.5370
16651TIP3   OH271367   5.457   1.419  14.003 -0.3657  0.1716 -0.3142
16651TIP3    H171368   5.473   1.438  14.095 -1.3825 -3.9187  0.9523
16651TIP3    H271369   5.404   1.492  13.971  1.9003  2.8313  1.5973
16652TIP3   OH271370   2.587   5.866   0.745  0.0665 -0.2280 -0.3065
16652TIP3    H171371   2.545   5.939   0.792  1.5125 -0.2728  1.1325
16652TIP3    H271372   2.679   5.870   0.772  0.6641 -1.1369 -2.0915
16653TIP3   OH271373   1.156   2.521   2.665  0.1492  0.0955 -0.0231
16653TIP3    H171374   1.235   2.468   2.651  0.4441  0.2645  0.9074
16653TIP3    H271375   1.108   2.514   2.583  0.5303 -1.0213 -0.1736
16654TIP3   OH271376   3.830   2.869   4.490 -0.2136  0.3430  0.3919
16654TIP3    H171377   3.898   2.835   4.432 -0.0770  1.4118 -0.0873
16654TIP3    H271378   3.837   2.815   4.569  0.0492 -0.6889 -0.3052
16655TIP3   OH271379   3.176   1.197   0.497 -0.1277 -0.0245  0.4313
16655TIP3    H171380   3.178   1.139   0.574  0.5861  0.7848  1.0455
16655TIP3    H271381   3.212   1.280   0.529 -3.4046  1.6191  0.2371
16656TIP3   OH271382   1.373   4.757   5.337 -0.1976 -0.4014 -0.6619
16656TIP3    H171383   1.316   4.774   5.412  0.3838  1.8173 -0.6428
16656TIP3    H271384   1.394   4.664   5.343 -0.5689 -0.3871  1.6539
16657TIP3   OH271385   3.764   3.763  11.522  0.1788  0.0967 -0.1650
16657TIP3    H171386   3.764   3.675  11.485 -2.1161  0.8424 -2.1771
16657TIP3    H271387   3.810   3.817  11.457 -1.0202  0.8614 -0.4135
16658TIP3   OH271388   4.405   5.101   1.899 -0.0619 -1.1818 -0.2016
16658TIP3    H171389   4.356   5.124   1.978 -1.1572 -0.6896 -1.0048
16658TIP3    H271390   4.420   5.184   1.854  0.0244 -1.5189 -0.8129
16659TIP3   OH271391   3.164   4.391  11.414 -0.6914 -0.3462 -0.5242
16659TIP3    H171392   3.213   4.309  11.401 -2.5953 -1.2777 -2.3680
16659TIP3    H271393   3.209   4.455  11.359  0.2541 -0.3564  0.2093
16660TIP3   OH271394   1.209   3.646  13.512 -0.1011 -0.5550  0.1919
16660TIP3    H171395   1.248   3.623  13.596 -0.3110 -0.9385  0.1854
16660TIP3    H271396   1.258   3.723  13.483  1.3532 -1.6384 -0.3095
16661TIP3   OH271397   6.068   0.583   2.913 -0.2425  0.1034 -0.2199
16661TIP3    H171398   6.115   0.603   2.994 -1.0151  1.6222 -0.1020
16661TIP3    H271399   6.106   0.644   2.849 -1.7363  1.0699 -0.2184
16662TIP3   OH271400   4.019   6.502   1.164 -0.4631  0.3440  0.1793
16662TIP3    H171401   3.930   6.513   1.200 -0.5015  1.5547 -0.2583
16662TIP3    H271402   4.031   6.407   1.159 -0.2826  0.0330  3.8280
16663TIP3   OH271403   2.345   3.028  12.009 -0.1157 -0.2880 -0.4228
16663TIP3    H171404   2.410   3.085  11.970 -0.9223  0.3091 -0.9370
16663TIP3    H271405   2.308   2.980  11.936 -0.1326 -0.7429 -0.1159
16664TIP3   OH271406   1.192   1.378   3.194 -0.0849 -0.1177 -0.4479
16664TIP3    H171407   1.200   1.292   3.153  0.2119  0.6124 -2.0084
16664TIP3    H271408   1.108   1.376   3.240  0.5075 -1.6528  0.6306
16665TIP3   OH271409   4.554   5.901   5.733  0.3212  0.2826  0.5462
16665TIP3    H171410   4.589   5.991   5.727  0.9227 -0.0465 -1.3030
16665TIP3    H271411   4.484   5.908   5.798 -0.6936  2.4324 -0.6743
16666TIP3   OH271412   4.416   2.481  16.973 -0.0364 -0.0749  0.5085
16666TIP3    H171413   4.506   2.503  16.998  0.2230 -0.5344 -0.0111
16666TIP3    H271414   4.363   2.554  17.007  0.5353  0.2211  0.7742
16667TIP3   OH271415   1.437   5.960   3.748  0.2343 -0.1281 -0.1980
16667TIP3    H171416   1.456   5.927   3.836 -1.8531 -2.0445 -0.3656
16667TIP3    H271417   1.344   5.985   3.752  0.0509 -0.4403 -1.9040
16668TIP3   OH271418   5.130   6.770  15.506 -0.0178 -0.0533  0.0424
16668TIP3    H171419   5.099   6.830  15.439  1.7545  0.4885 -0.3564
16668TIP3    H271420   5.124   6.683  15.466  1.0527  0.2686 -0.8775
16669TIP3   OH271421   1.806   5.091   0.202 -0.1324 -0.3640 -0.0159
16669TIP3    H171422   1.718   5.073   0.169 -0.0488  1.2879 -1.2520
16669TIP3    H271423   1.863   5.074   0.127  0.1831  2.2667 -0.4616
16670TIP3   OH271424   4.936   0.772   5.620  0.0574  0.4385  0.4617
16670TIP3    H171425   4.935   0.680   5.593 -0.5967  0.9487 -1.4281
16670TIP3    H271426   4.915   0.770   5.713  0.3040 -1.3313  0.5157
16671TIP3   OH271427   5.723   1.700   0.190 -0.4804 -0.0728  0.0056
16671TIP3    H171428   5.730   1.745   0.106 -1.7961 -0.1749 -0.1822
16671TIP3    H271429   5.649   1.742   0.234 -1.4926 -1.7548 -0.0157
16672TIP3   OH271430   4.896   1.204   0.047 -0.2310 -0.3222 -0.1861
16672TIP3    H171431   4.940   1.187   0.131  2.3249 -0.0632 -1.3882
16672TIP3    H271432   4.898   1.120   0.002  2.4699  0.4056 -1.6849
16673TIP3   OH271433   2.958   1.609  14.252 -0.5058  0.3548 -0.1093
16673TIP3    H171434   3.043   1.642  14.225 -0.5495  0.1776 -0.4606
16673TIP3    H271435   2.938   1.658  14.332 -0.2164  0.6200 -0.1975
16674TIP3   OH271436   4.555   2.729  13.855 -0.2374  0.1052 -0.9195
16674TIP3    H171437   4.648   2.706  13.844 -0.1832 -0.3000  0.2094
16674TIP3    H271438   4.515   2.649  13.889 -0.6193  0.8252  0.3891
16675TIP3   OH271439   5.414   0.724   1.941 -0.0452  0.5626  0.3412
16675TIP3    H171440   5.474   0.796   1.960 -0.5017  0.8220  0.8266
16675TIP3    H271441   5.431   0.659   2.010 -0.8861  0.9970  0.9818
16676TIP3   OH271442   6.102   4.330   1.044 -0.1475  0.3804 -0.1561
16676TIP3    H171443   6.131   4.420   1.025 -1.3889  0.5463 -1.4477
16676TIP3    H271444   6.007   4.337   1.049 -0.2443 -0.8582 -0.1350
16677TIP3   OH271445   6.020   3.292   1.006  0.2695  0.3221 -0.0684
16677TIP3    H171446   5.944   3.236   0.988  0.6750 -0.2013 -0.1794
16677TIP3    H271447   6.007   3.321   1.096 -0.0226  0.1649 -0.0563
16678TIP3   OH271448   4.621   6.453  15.696 -0.6657  0.1692  0.2387
16678TIP3    H171449   4.629   6.448  15.601 -0.7530 -0.8092  0.2752
16678TIP3    H271450   4.561   6.526  15.711  0.2089  1.0525 -0.4033
16679TIP3   OH271451   2.079   1.437   4.977 -0.2132 -0.2218  0.2540
16679TIP3    H171452   2.101   1.396   4.893 -1.4337 -0.1090 -0.1299
16679TIP3    H271453   2.044   1.366   5.030 -0.6556 -0.0394  0.2109
16680TIP3   OH271454   4.382   4.330  14.637  0.2796 -0.5252  0.6861
16680TIP3    H171455   4.427   4.402  14.681  0.9691 -0.4828 -0.0612
16680TIP3    H271456   4.438   4.254  14.654  0.4371 -0.5502  0.0822
16681TIP3   OH271457   3.856   3.926  12.112 -0.6329 -0.2329 -0.0916
16681TIP3    H171458   3.837   4.007  12.065  0.3588 -0.4007 -0.8203
16681TIP3    H271459   3.883   3.955  12.200 -2.3557  0.0884  0.3600
16682TIP3   OH271460   2.136   5.289   5.752  0.1213  0.2326  0.6307
16682TIP3    H171461   2.063   5.342   5.720 -0.0919  0.3395  1.2735
16682TIP3    H271462   2.115   5.200   5.724  0.5664  0.5021 -0.6069
16683TIP3   OH271463   6.494   1.837   2.248 -0.3527 -0.0411  0.0815
16683TIP3    H171464   6.529   1.924   2.265  0.0747 -0.3591  0.8639
16683TIP3    H271465   6.571   1.782   2.233 -0.6278 -0.2520 -0.5914
16684TIP3   OH271466   4.992   0.755  13.279 -0.0308  0.1240  0.2838
16684TIP3    H171467   4.899   0.745  13.260 -0.3324 -0.3618  1.8437
16684TIP3    H271468   5.034   0.760  13.194 -1.5366  0.8658 -0.4561
16685TIP3   OH271469   1.794   2.417   2.908  0.2422  0.1989  0.6868
16685TIP3    H171470   1.734   2.396   2.979  0.2489  0.7924  0.8693
16685TIP3    H271471   1.866   2.464   2.951  0.7459 -0.3310  0.4430
16686TIP3   OH271472   4.649   1.920  14.744 -0.5771  0.3500  0.0796
16686TIP3    H171473   4.709   1.847  14.730  0.3412  1.1494 -0.2544
16686TIP3    H271474   4.704   1.998  14.734 -1.8536  1.1334 -1.2406
16687TIP3   OH271475   0.608   1.238   2.610 -0.1485  0.4233 -0.5381
16687TIP3    H171476   0.699   1.219   2.635 -0.6298 -0.1920  0.8664
16687TIP3    H271477   0.588   1.320   2.655  0.1419  1.3202 -2.0049
16688TIP3   OH271478   4.644   2.125   3.464 -0.1482  0.2437  0.6159
16688TIP3    H171479   4.632   2.100   3.372  0.6218  2.0460 -0.0326
16688TIP3    H271480   4.664   2.043   3.509  0.8464 -0.5068 -1.0741
16689TIP3   OH271481   5.902   3.069   1.789 -0.2046 -0.0524 -0.5885
16689TIP3    H171482   5.854   3.003   1.739 -0.1005 -0.9684  0.4812
16689TIP3    H271483   5.884   3.151   1.743 -1.2580 -0.6484 -1.2993
16690TIP3   OH271484   6.503   1.748  14.462 -0.7711  0.1975  0.0739
16690TIP3    H171485   6.409   1.731  14.455 -0.8824  1.1984 -1.3447
16690TIP3    H271486   6.510   1.843  14.473  0.0780  0.1831 -0.2155
16691TIP3   OH271487   5.814   5.614   2.232  0.4362  0.5167 -1.5818
16691TIP3    H171488   5.887   5.552   2.236 -1.5858 -1.9979 -0.9857
16691TIP3    H271489   5.742   5.563   2.195 -1.4805  2.3954 -0.6274
16692TIP3   OH271490   2.200   1.790  15.045 -0.4125  0.3816 -0.0352
16692TIP3    H171491   2.105   1.799  15.033 -1.0153 -2.9922  1.2587
16692TIP3    H271492   2.211   1.707  15.090  3.1597  1.1366  0.7880
16693TIP3   OH271493   4.422   3.848  15.692  0.8617 -0.2951  0.3345
16693TIP3    H171494   4.415   3.853  15.787  1.1579  0.1065  0.3393
16693TIP3    H271495   4.472   3.926  15.668 -1.3140  0.9615 -0.3979
16694TIP3   OH271496   6.613   4.256   5.415 -0.4221 -0.0933  0.3641
16694TIP3    H171497   6.532   4.259   5.363  0.7765  1.0384 -1.5652
16694TIP3    H271498   6.665   4.187   5.373 -0.0968 -0.3519  1.1765
16695TIP3   OH271499   6.232   0.328  16.410 -0.5548  0.4633  0.0174
16695TIP3    H171500   6.310   0.378  16.385  0.0115 -0.2934  0.2298
16695TIP3    H271501   6.163   0.361  16.352 -0.1711  1.4038  0.0835
16696TIP3   OH271502   1.679   6.264   4.905  0.2060 -1.0699 -0.8709
16696TIP3    H171503   1.670   6.202   4.977 -0.2172 -1.0698 -0.9191
16696TIP3    H271504   1.703   6.210   4.830  2.3412 -0.8680 -0.3730
16697TIP3   OH271505   5.272   4.385  15.647 -0.3284 -0.0379 -0.2352
16697TIP3    H171506   5.331   4.450  15.685  0.2185 -0.3496 -0.5273
16697TIP3    H271507   5.308   4.301  15.676 -1.3994 -0.2061  0.6757
16698TIP3   OH271508   5.492   1.154  11.733 -0.0650 -0.1235  0.1312
16698TIP3    H171509   5.525   1.150  11.823  2.0047 -1.6021 -0.6134
16698TIP3    H271510   5.434   1.079  11.725  1.4448 -1.2978 -0.3178
16699TIP3   OH271511   1.334   1.648   5.215 -0.0923  0.2545 -0.0026
16699TIP3    H171512   1.316   1.673   5.305  1.0511  0.6968  0.1261
16699TIP3    H271513   1.342   1.732   5.168  2.8148  0.2074  0.2313
16700TIP3   OH271514   4.685   6.202   3.101 -0.0450  0.5678  0.0464
16700TIP3    H171515   4.751   6.166   3.041  0.2702  1.3999 -0.1171
16700TIP3    H271516   4.605   6.207   3.048 -0.4304 -1.0487  0.4285
16701TIP3   OH271517   3.599   5.459  14.663 -0.4375 -0.2950 -0.0372
16701TIP3    H171518   3.606   5.366  14.682 -0.5218  0.0710  2.0453
16701TIP3    H271519   3.689   5.492  14.669 -0.6007  0.0160  0.8969
16702TIP3   OH271520   1.667   1.015  14.448 -0.0874 -0.5348  0.1241
16702TIP3    H171521   1.759   1.018  14.476 -0.2800 -0.0853  0.7210
16702TIP3    H271522   1.654   1.096  14.400 -0.4278 -0.1230  0.8842
16703TIP3   OH271523   3.109   2.400   3.488  0.5107  0.0794 -0.0089
16703TIP3    H171524   3.108   2.342   3.564 -0.2170  1.3724  0.9973
16703TIP3    H271525   3.035   2.371   3.435 -0.0830  0.3082  0.6759
16704TIP3   OH271526   2.728   5.515   3.019 -0.2788 -0.5667 -0.5490
16704TIP3    H171527   2.764   5.558   3.096 -1.0893 -0.8910  0.0314
16704TIP3    H271528   2.802   5.470   2.979  0.4035  0.6347 -0.6769
16705TIP3   OH271529   3.594   2.655  13.030  0.0733  0.1367  0.3971
16705TIP3    H171530   3.517   2.688  13.077 -0.9809 -0.5512 -0.7742
16705TIP3    H271531   3.615   2.573  13.073 -2.8388 -2.1478 -2.0819
16706TIP3   OH271532   1.962   4.550   5.141 -0.3775 -0.3672 -0.2906
16706TIP3    H171533   1.929   4.632   5.104  1.2871  0.7757  0.6135
16706TIP3    H271534   2.025   4.578   5.207  0.7195 -2.4053 -0.4134
16707TIP3   OH271535   6.658   4.387   3.599 -0.2221 -0.1063  0.2807
16707TIP3    H171536   6.583   4.348   3.554 -2.3780  1.1902  2.4995
16707TIP3    H271537   6.702   4.313   3.640 -2.2005 -0.6766  1.5424
16708TIP3   OH271538   6.217   5.934   1.716  0.1551  0.5107 -0.4091
16708TIP3    H171539   6.308   5.914   1.738  0.1206  0.3625 -0.4036
16708TIP3    H271540   6.167   5.904   1.792  0.1728  1.2823 -0.0757
16709TIP3   OH271541   6.501   0.904  13.874 -0.8585  0.0171  0.6295
16709TIP3    H171542   6.507   0.953  13.792 -0.2410  0.9115  1.1823
16709TIP3    H271543   6.589   0.868  13.886 -1.0149 -0.3145  0.7751
16710TIP3   OH271544   4.580   0.927   4.597 -0.1871  0.2192 -0.4970
16710TIP3    H171545   4.673   0.903   4.605 -0.0073  0.5669 -1.3231
16710TIP3    H271546   4.568   0.997   4.660 -0.8170 -2.1840  2.2412
16711TIP3   OH271547   1.001   5.057  16.840  0.0773 -0.6398  0.0544
16711TIP3    H171548   0.972   5.124  16.778  0.4453 -1.6090 -1.2099
16711TIP3    H271549   1.081   5.092  16.879  0.1103 -0.2177 -0.3883
16712TIP3   OH271550   6.642   4.663  14.788  0.4612  0.8315 -0.1985
16712TIP3    H171551   6.672   4.672  14.697  3.3229  0.6726  0.6351
16712TIP3    H271552   6.652   4.750  14.826 -0.2091  0.7759  0.1245
16713TIP3   OH271553   4.558   5.739  12.395  0.0160  0.8149  0.1435
16713TIP3    H171554   4.466   5.741  12.368  0.3101 -0.1911 -1.0605
16713TIP3    H271555   4.562   5.671  12.462 -0.1288  0.8578  0.1953
16714TIP3   OH271556   1.677   6.363  15.355  0.4365  0.9440  0.0174
16714TIP3    H171557   1.642   6.449  15.331  0.3989  1.2093  0.9897
16714TIP3    H271558   1.652   6.306  15.282 -0.5098  1.5137 -0.1294
16715TIP3   OH271559   5.874   6.374   5.318  0.7829 -0.0312 -0.1986
16715TIP3    H171560   5.884   6.365   5.412 -0.7431 -2.5728 -0.1791
16715TIP3    H271561   5.830   6.459   5.306 -1.2732 -0.7468  1.6278
16716TIP3   OH271562   2.173   4.401  15.938  0.5059 -0.2566  0.2215
16716TIP3    H171563   2.090   4.430  15.975  0.7306  1.8063 -0.7429
16716TIP3    H271564   2.151   4.379  15.847  0.8037 -0.8422  0.2909
16717TIP3   OH271565   2.821   3.994  17.025  0.4050 -0.5764 -0.5860
16717TIP3    H171566   2.771   3.969  16.947 -0.2742 -1.2099  0.0331
16717TIP3    H271567   2.912   3.974  17.004 -0.0154 -3.0588 -0.3665
16718TIP3   OH271568   6.003   4.898   5.060  0.0428 -0.2015 -0.1562
16718TIP3    H171569   5.927   4.951   5.035  0.9846  0.8052 -1.0221
16718TIP3    H271570   5.968   4.829   5.116 -1.4760  0.3311 -0.4201
16719TIP3   OH271571   5.542   2.555   1.015  0.0525  0.3439 -0.0360
16719TIP3    H171572   5.608   2.493   0.985 -0.4316  0.2839 -1.0088
16719TIP3    H271573   5.496   2.582   0.936 -1.0044  0.4825  0.5990
16720TIP3   OH271574   2.119   6.225  13.901 -0.4293  0.0631  0.4152
16720TIP3    H171575   2.063   6.151  13.925 -0.8261  0.4553  0.7111
16720TIP3    H271576   2.207   6.189  13.902 -0.7103 -0.7094 -0.6218
16721TIP3   OH271577   2.808   3.182   3.222 -0.1613 -0.3971  0.2472
16721TIP3    H171578   2.809   3.173   3.317 -1.1359 -1.3185  0.1938
16721TIP3    H271579   2.716   3.169   3.198  0.1212 -0.4828 -0.8447
16722TIP3   OH271580   4.911   5.306  12.343 -0.4744 -0.4799 -0.2821
16722TIP3    H171581   4.970   5.350  12.282  0.6164 -1.2096  0.2211
16722TIP3    H271582   4.876   5.232  12.294  0.5446 -1.1745  0.0059
16723TIP3   OH271583   1.150   5.494   5.682 -0.1877  0.5447  0.8045
16723TIP3    H171584   1.058   5.489   5.710 -0.2117 -0.4384  0.5735
16723TIP3    H271585   1.199   5.453   5.754 -0.3288 -2.9181 -0.8761
16724TIP3   OH271586   1.856   1.397   5.235  0.5721  0.4022 -0.1584
16724TIP3    H171587   1.779   1.341   5.225  1.6033 -0.9446 -0.8597
16724TIP3    H271588   1.836   1.451   5.312 -1.0662  0.1094 -0.3351
16725TIP3   OH271589   4.277   2.350   1.486 -0.3323  0.4989  0.1876
16725TIP3    H171590   4.341   2.363   1.556 -0.9767  1.1957  0.6568
16725TIP3    H271591   4.196   2.329   1.531 -0.2545 -1.3097 -0.4278
16726TIP3   OH271592   2.973   0.048  12.053  0.0978 -0.2545  0.0417
16726TIP3    H171593   3.048   0.034  11.996 -1.3131 -1.6164 -1.6144
16726TIP3    H271594   3.007   0.037  12.142  2.0813  0.5242 -0.5676
16727TIP3   OH271595   3.856   5.934   4.526  0.0835  0.0837 -0.0783
16727TIP3    H171596   3.863   5.916   4.620  1.0581 -1.0364 -0.3370
16727TIP3    H271597   3.880   6.026   4.518  0.1709  0.1448  0.7489
16728TIP3   OH271598   6.619   3.551  11.220 -0.1708  0.1731  0.0721
16728TIP3    H171599   6.541   3.497  11.223 -0.9267  1.1166 -1.3299
16728TIP3    H271600   6.691   3.489  11.211 -0.8441 -0.6629  0.4048
16729TIP3   OH271601   3.667   3.533   6.742 -0.5076 -0.1557 -0.4614
16729TIP3    H171602   3.744   3.477   6.739 -0.8369 -0.5832 -1.8772
16729TIP3    H271603   3.699   3.617   6.776  0.4378 -0.5273 -0.4032
16730TIP3   OH271604   4.206   1.592  11.267  0.1483  0.1525 -0.3810
16730TIP3    H171605   4.154   1.594  11.348 -1.5900 -1.6039 -1.3640
16730TIP3    H271606   4.159   1.531  11.210  0.8860  1.8715 -3.0183
16731TIP3   OH271607   3.978   4.748   2.878 -0.4490 -0.5880 -0.1635
16731TIP3    H171608   4.018   4.691   2.943 -0.4015 -0.7674 -0.3479
16731TIP3    H271609   3.931   4.688   2.819  0.2973 -0.5195 -0.8521
16732TIP3   OH271610   1.006   6.705   0.884 -0.0743 -0.3773 -0.6519
16732TIP3    H171611   0.980   6.744   0.800  0.7604 -0.5997 -1.0209
16732TIP3    H271612   1.064   6.769   0.924  0.5866 -0.8474 -0.8510
16733TIP3   OH271613   5.462   2.681   0.080  0.1033 -0.5391  0.1735
16733TIP3    H171614   5.404   2.757   0.078  2.5356  1.4383 -1.2991
16733TIP3    H271615   5.525   2.702   0.149  0.9058 -1.1318 -0.3702
16734TIP3   OH271616   0.041   2.358   1.955  0.0337 -0.2380 -0.3597
16734TIP3    H171617   0.004   2.420   1.891 -0.8770 -1.4384 -1.0209
16734TIP3    H271618   0.042   2.407   2.037  0.3383  1.0230 -1.0772
16735TIP3   OH271619   5.274   0.674   4.407 -0.3194  0.4693  0.5179
16735TIP3    H171620   5.310   0.707   4.490  0.9910 -0.1462  0.2195
16735TIP3    H271621   5.243   0.586   4.427  1.2975 -0.2331  0.0613
16736TIP3   OH271622   4.995   2.788  12.961  0.8308 -0.1708  0.2331
16736TIP3    H171623   4.918   2.744  12.923  2.4388 -1.7046 -1.4030
16736TIP3    H271624   4.962   2.826  13.043 -1.5210 -1.3024 -0.1010
16737TIP3   OH271625   1.214   1.487   3.928 -0.0633  0.2100 -0.1440
16737TIP3    H171626   1.309   1.477   3.918 -0.0989 -2.4313  1.2282
16737TIP3    H271627   1.177   1.437   3.856 -0.3372 -1.2992  0.9850
16738TIP3   OH271628   1.552   3.549   1.493  0.2630 -0.1321 -0.4445
16738TIP3    H171629   1.578   3.522   1.581  0.8093 -1.2856 -0.9391
16738TIP3    H271630   1.615   3.617   1.469  1.4458 -1.3148 -0.7551
16739TIP3   OH271631   3.704   6.521  11.614  0.4104 -0.3753  1.0319
16739TIP3    H171632   3.621   6.516  11.661 -0.1090  2.0191  0.5263
16739TIP3    H271633   3.763   6.567  11.674 -0.0222  1.9636 -0.2043
16740TIP3   OH271634   0.265   3.098   1.122 -0.6200 -0.1163 -0.2046
16740TIP3    H171635   0.256   3.155   1.045  0.0122  1.3336  0.7462
16740TIP3    H271636   0.349   3.124   1.160 -0.7733 -1.0457  0.7884
16741TIP3   OH271637   6.381   1.041  16.013 -0.0359 -0.1542 -0.4825
16741TIP3    H171638   6.377   1.133  16.041 -0.0859 -0.4200  0.3995
16741TIP3    H271639   6.430   1.044  15.930  3.6155  0.2701  1.4913
16742TIP3   OH271640   2.008   0.587  12.589  0.4286  0.9390  0.2949
16742TIP3    H171641   2.094   0.604  12.626  1.0236 -1.0119 -0.0692
16742TIP3    H271642   2.025   0.550  12.503 -0.4962 -2.9980  1.5968
16743TIP3   OH271643   6.286   6.425  14.307 -0.2722 -0.1918 -0.4401
16743TIP3    H171644   6.349   6.416  14.379 -0.1818  0.3747 -0.4436
16743TIP3    H271645   6.272   6.519  14.299 -2.5614 -0.3505  0.8033
16744TIP3   OH271646   4.333   5.472   3.405 -0.2281  0.5774 -0.0530
16744TIP3    H171647   4.353   5.503   3.316  2.2533 -0.4399  0.0717
16744TIP3    H271648   4.334   5.376   3.398  1.7195  0.4479  1.3623
16745TIP3   OH271649   5.434   5.045   4.976  0.0085 -0.7335 -0.0947
16745TIP3    H171650   5.501   5.097   4.932 -0.4895 -0.0347 -0.0438
16745TIP3    H271651   5.439   5.074   5.067 -0.4009 -0.6344 -0.1040
16746TIP3   OH271652   5.519   4.742  15.432  0.2195  0.0968  0.2466
16746TIP3    H171653   5.484   4.696  15.355  0.7013 -0.0358  0.1038
16746TIP3    H271654   5.442   4.778  15.475 -0.0619  0.1250 -0.2686
16747TIP3   OH271655   5.066   3.555  13.250 -0.2229  0.4974  0.2040
16747TIP3    H171656   4.996   3.503  13.211  1.5247 -2.1379  0.3275
16747TIP3    H271657   5.091   3.505  13.328  0.1796  2.6786  1.5538
16748TIP3   OH271658   4.171   5.412  16.791  0.1196 -0.2454 -0.6325
16748TIP3    H171659   4.118   5.484  16.825  1.7690  0.8595 -0.2986
16748TIP3    H271660   4.110   5.363  16.735 -1.1342  1.2439 -0.6653
16749TIP3   OH271661   2.841   0.182   5.705 -0.4073  0.1660  0.2650
16749TIP3    H171662   2.889   0.248   5.655 -2.2214  0.6037 -1.0398
16749TIP3    H271663   2.883   0.181   5.791 -0.1163  2.8260  0.2406
16750TIP3   OH271664   6.172   5.615  16.481 -0.5064  0.2649 -0.0949
16750TIP3    H171665   6.223   5.536  16.464  0.8536  0.8379  1.1453
16750TIP3    H271666   6.081   5.586  16.481  0.0436 -1.7052  2.3294
16751TIP3   OH271667   5.254   5.745  15.413  0.4420 -0.1348  0.0225
16751TIP3    H171668   5.241   5.731  15.507  2.2804  1.6219  0.6207
16751TIP3    H271669   5.169   5.728  15.374 -0.1843 -1.6560  1.9019
16752TIP3   OH271670   0.681   2.490   0.310 -0.2963 -0.1042 -0.3619
16752TIP3    H171671   0.772   2.479   0.280 -0.9302 -1.3698 -1.9589
16752TIP3    H271672   0.665   2.584   0.301  0.1402 -0.1709 -2.4059
16753TIP3   OH271673   0.959   2.147  11.759  0.3915  0.6535 -0.8579
16753TIP3    H171674   1.011   2.101  11.693  1.5374 -0.7745  0.9250
16753TIP3    H271675   0.903   2.080  11.797 -0.7371  1.5893 -0.8125
16754TIP3   OH271676   2.042   2.368   5.631  0.3236 -0.2210  0.1487
16754TIP3    H171677   1.984   2.363   5.707  1.1217 -0.5169  0.7544
16754TIP3    H271678   2.129   2.351   5.666  0.9347  1.2425 -0.5587
16755TIP3   OH271679   5.073   5.996  13.588  0.4569 -0.4464  0.1956
16755TIP3    H171680   5.064   5.989  13.493 -1.5859  1.0855  0.2164
16755TIP3    H271681   5.017   5.927  13.623 -0.5695  0.4160  0.2799
16756TIP3   OH271682   5.893   1.112  14.527 -0.2237  0.6158  0.4243
16756TIP3    H171683   5.852   1.091  14.443 -1.0817 -0.4139  1.0785
16756TIP3    H271684   5.947   1.036  14.547 -1.9907 -0.3198  1.9762
16757TIP3   OH271685   2.740   3.995   4.377  0.1596  0.4325 -0.2410
16757TIP3    H171686   2.762   3.961   4.290  1.0576  1.5666 -0.4734
16757TIP3    H271687   2.702   3.920   4.422  2.2693 -0.9895 -0.6560
16758TIP3   OH271688   4.718   6.482  16.031 -0.2734  0.0872  0.1590
16758TIP3    H171689   4.664   6.561  16.019 -0.7244 -0.2883 -0.3439
16758TIP3    H271690   4.808   6.515  16.036 -0.2960  0.5294 -1.6078
16759TIP3   OH271691   3.372   3.673  15.249  0.1233 -0.3181 -0.2565
16759TIP3    H171692   3.283   3.702  15.268  0.4521  0.9534 -0.5392
16759TIP3    H271693   3.382   3.689  15.155  1.6420  2.5616  0.2757
16760TIP3   OH271694   0.551   0.245   3.121  0.2129 -0.8158  0.2987
16760TIP3    H171695   0.617   0.312   3.141  0.1687 -1.3469  2.4413
16760TIP3    H271696   0.543   0.248   3.025  2.6510 -0.0821  0.0322
16761TIP3   OH271697   1.693   6.227   0.657  0.2310  0.0550  0.1236
16761TIP3    H171698   1.656   6.281   0.727  0.8385 -0.9220  1.2421
16761TIP3    H271699   1.632   6.236   0.584 -1.5175 -0.5106  1.4661
16762TIP3   OH271700   1.931   4.953   6.315 -0.1304 -0.8142  0.6283
16762TIP3    H171701   1.952   4.997   6.397 -0.1274 -0.0552  0.2315
16762TIP3    H271702   1.843   4.917   6.328 -0.7314  0.5340  0.4880
16763TIP3   OH271703   2.581   2.853  11.141 -0.2663 -0.3781  0.3529
16763TIP3    H171704   2.577   2.923  11.207 -0.5413  1.4164 -1.4763
16763TIP3    H271705   2.637   2.786  11.181  1.2591  1.5295  1.6167
16764TIP3   OH271706   5.339   5.662   3.329 -0.1929 -0.5065 -0.3425
16764TIP3    H171707   5.393   5.663   3.250 -0.5496 -1.3632 -0.6055
16764TIP3    H271708   5.398   5.632   3.398  0.3613  1.0836 -0.0746
16765TIP3   OH271709   1.698   1.811   0.744 -0.1417  0.1712 -0.3493
16765TIP3    H171710   1.792   1.793   0.753 -0.3459 -1.3373 -0.8907
16765TIP3    H271711   1.666   1.820   0.833  0.2562 -0.9474 -0.0687
16766TIP3   OH271712   4.407   1.671  14.306 -0.1908 -0.4333  0.6870
16766TIP3    H171713   4.339   1.738  14.302  0.6557  0.3853 -1.5148
16766TIP3    H271714   4.489   1.719  14.295  0.4835 -1.7191 -0.2365
16767TIP3   OH271715   6.384   4.231  16.529  0.2448  0.5850 -0.5306
16767TIP3    H171716   6.361   4.161  16.468  0.6053  1.3761 -1.5976
16767TIP3    H271717   6.310   4.291  16.526  1.0087  1.5130 -1.5466
16768TIP3   OH271718   2.711   4.739   0.409 -0.4252 -0.0954  0.3087
16768TIP3    H171719   2.796   4.730   0.453 -0.8046 -1.7030  0.7785
16768TIP3    H271720   2.726   4.807   0.343  1.3553 -0.6268  0.0993
16769TIP3   OH271721   3.385   1.705   5.170  0.3578  0.0268 -0.2571
16769TIP3    H171722   3.418   1.769   5.107  0.1472  1.4447  1.0192
16769TIP3    H271723   3.303   1.673   5.131  2.1036 -2.1316 -2.5460
16770TIP3   OH271724   0.744   5.978  16.072  0.1013 -0.0451 -0.0330
16770TIP3    H171725   0.792   6.024  16.003  1.7192 -2.1268 -0.3873
16770TIP3    H271726   0.669   6.034  16.090  0.4730  1.3462 -2.3780
16771TIP3   OH271727   6.774   2.564  14.520  0.2059 -0.6425 -0.2409
16771TIP3    H171728   6.815   2.488  14.563  0.2976 -0.4171  0.0717
16771TIP3    H271729   6.680   2.546  14.523  0.0390  0.3641  1.9914
16772TIP3   OH271730   0.482   6.606   1.991 -0.3157  0.3614 -0.2985
16772TIP3    H171731   0.512   6.531   1.940 -0.9797  0.0165 -0.1888
16772TIP3    H271732   0.388   6.611   1.974 -0.1113  1.8454 -1.1783
16773TIP3   OH271733   2.317   5.071   2.588 -0.2491 -0.1499  0.3471
16773TIP3    H171734   2.393   5.078   2.646  0.7924  1.2084 -1.0911
16773TIP3    H271735   2.348   5.020   2.513 -0.7589  0.3828 -0.2433
16774TIP3   OH271736   1.372   3.283   2.356 -0.0671  0.3385 -0.4400
16774TIP3    H171737   1.369   3.191   2.328  0.1186  0.9554 -2.6150
16774TIP3    H271738   1.280   3.308   2.365 -0.1264 -0.2617  1.0628
16775TIP3   OH271739   1.115   2.818  16.490 -0.4032  0.0422  0.2192
16775TIP3    H171740   1.126   2.859  16.405  0.6870 -0.3034  0.1778
16775TIP3    H271741   1.079   2.731  16.471 -1.3594  0.4231  0.2126
16776TIP3   OH271742   5.251   1.209  15.155 -0.5635 -0.1687  0.3435
16776TIP3    H171743   5.324   1.203  15.094 -0.0876  0.3008  0.8588
16776TIP3    H271744   5.240   1.303  15.170  0.6946 -0.2979  2.5683
16777TIP3   OH271745   4.054   1.014  11.822 -0.3580 -0.7567 -0.1214
16777TIP3    H171746   3.990   1.083  11.806 -0.8581 -1.3212 -0.6336
16777TIP3    H271747   4.023   0.971  11.902  0.0016 -0.3376  0.2459
16778TIP3   OH271748   2.071   5.826  13.769  0.3700  0.5711 -0.3711
16778TIP3    H171749   2.150   5.786  13.807 -0.6291  0.4399  1.7148
16778TIP3    H271750   2.050   5.770  13.695 -0.0087 -1.8601  1.4488
16779TIP3   OH271751   2.970   5.995   1.969 -0.4435  0.1084 -0.8773
16779TIP3    H171752   2.890   5.953   1.935 -0.1681 -0.4800 -0.8056
16779TIP3    H271753   3.024   5.922   2.000 -1.2824  0.6601  2.2223
16780TIP3   OH271754   1.500   0.668  14.066  0.2106  0.1112 -0.5363
16780TIP3    H171755   1.550   0.736  14.021  0.1139  0.5827  0.0609
16780TIP3    H271756   1.563   0.625  14.124  0.4064 -0.6950 -1.3078
16781TIP3   OH271757   5.543   2.581  16.614  0.8370 -0.2966  0.1217
16781TIP3    H171758   5.541   2.561  16.521 -0.6714 -1.3257  0.3401
16781TIP3    H271759   5.482   2.654  16.624  1.3598  0.1293  0.2504
16782TIP3   OH271760   1.929   4.730  14.490 -0.6237 -0.5581  0.1504
16782TIP3    H171761   1.943   4.801  14.428  0.2054 -0.9597 -0.1326
16782TIP3    H271762   1.889   4.773  14.567 -1.9328 -0.1090 -0.7420
16783TIP3   OH271763   0.537   2.576   0.024  0.2979  0.3256 -0.1042
16783TIP3    H171764   0.552   2.482   0.036 -1.2702  0.0575 -0.0241
16783TIP3    H271765   0.493   2.603   0.105 -0.1836  0.8994 -0.5453
16784TIP3   OH271766   4.404   1.700   1.057  0.3607 -0.3006  0.0455
16784TIP3    H171767   4.379   1.792   1.066 -2.4665 -1.1140  1.5992
16784TIP3    H271768   4.492   1.695   1.094  1.4765  2.0663 -1.9624
16785TIP3   OH271769   2.802   5.802   6.621 -0.6800 -0.0040  0.2484
16785TIP3    H171770   2.811   5.713   6.655 -0.2365 -0.0741 -0.0421
16785TIP3    H271771   2.844   5.799   6.535 -0.4381  0.5463  0.3442
16786TIP3   OH271772   6.402   0.218  14.201  0.4150 -0.0162  0.0384
16786TIP3    H171773   6.345   0.271  14.256 -0.0414 -0.5342  0.0763
16786TIP3    H271774   6.353   0.205  14.120 -0.2401 -1.7931  0.6666
16787TIP3   OH271775   6.477   4.476  12.102  0.6667 -0.6884  0.1818
16787TIP3    H171776   6.474   4.380  12.098 -1.2522 -0.6538 -0.1765
16787TIP3    H271777   6.386   4.503  12.093  1.2129  1.2020 -0.1016
16788TIP3   OH271778   2.145   4.961  10.802 -0.4337 -0.1767  1.2342
16788TIP3    H171779   2.240   4.958  10.791 -0.6162 -0.5184 -0.5626
16788TIP3    H271780   2.128   5.048  10.839  0.5008  0.4342  0.2928
16789TIP3   OH271781   3.042   1.670  16.000 -0.0971 -0.5940  0.1960
16789TIP3    H171782   2.990   1.746  16.027 -0.6500 -0.4490 -1.2039
16789TIP3    H271783   3.078   1.694  15.915  0.9143 -1.3517  0.3869
16790TIP3   OH271784   0.077   4.034   1.584  0.1333 -0.0890 -0.3649
16790TIP3    H171785   0.148   3.970   1.576  0.7633  0.5873 -0.2930
16790TIP3    H271786   0.119   4.113   1.618 -0.6179  0.3946 -0.5242
16791TIP3   OH271787   1.274   6.192   4.097  0.0033  0.7522  0.2157
16791TIP3    H171788   1.321   6.272   4.072  0.7015 -0.1801 -1.5716
16791TIP3    H271789   1.252   6.150   4.014 -2.4667  0.2495  1.0433
16792TIP3   OH271790   4.446   2.311  16.759 -0.5180  0.4526  0.3036
16792TIP3    H171791   4.540   2.318  16.747 -0.2646 -1.1104  1.1261
16792TIP3    H271792   4.424   2.379  16.823  0.0729  0.7261  0.2167
16793TIP3   OH271793   5.492   3.948   2.111 -0.3598 -0.3668 -0.4621
16793TIP3    H171794   5.449   3.897   2.180 -0.5893 -0.2117 -0.4895
16793TIP3    H271795   5.439   4.027   2.104 -0.8300 -0.7597 -1.4105
16794TIP3   OH271796   2.701   3.307  12.228 -0.0151 -0.3086 -0.1914
16794TIP3    H171797   2.651   3.365  12.169  0.1204 -0.5855 -0.5862
16794TIP3    H271798   2.759   3.366  12.276  1.2915 -0.2550 -1.7505
16795TIP3   OH271799   6.587   5.705  12.191 -0.3065 -0.1029  0.2800
16795TIP3    H171800   6.562   5.791  12.225 -0.5542 -0.8181  2.0289
16795TIP3    H271801   6.555   5.705  12.101 -0.4121  1.5852  0.2850
16796TIP3   OH271802   2.476   3.758  15.716  0.1543 -0.0211 -0.7251
16796TIP3    H171803   2.495   3.825  15.651 -0.2404 -0.7204 -1.5746
16796TIP3    H271804   2.389   3.780  15.748  1.2205  1.6795  1.3067
16797TIP3   OH271805   3.768   1.632  16.163  0.3520  0.0590 -0.1420
16797TIP3    H171806   3.849   1.634  16.216  0.5312 -0.7926 -0.3712
16797TIP3    H271807   3.698   1.619  16.227  0.4544  0.1948 -0.0014
16798TIP3   OH271808   4.646   4.572   4.705 -0.0332 -0.1914 -0.0176
16798TIP3    H171809   4.678   4.491   4.666  0.9538  1.3582 -2.6989
16798TIP3    H271810   4.665   4.563   4.799  1.3058 -2.4682 -0.4476
16799TIP3   OH271811   4.781   3.600  15.748 -0.8537  0.4599 -0.4217
16799TIP3    H171812   4.763   3.516  15.790  0.3848  0.5094  0.2363
16799TIP3    H271813   4.704   3.616  15.693 -1.6488 -0.5174  0.3721
16800TIP3   OH271814   4.083   6.580  12.260 -0.1796  0.5389  0.2805
16800TIP3    H171815   4.126   6.664  12.279 -0.6958  0.3680  2.4832
16800TIP3    H271816   4.044   6.554  12.344 -3.9320  0.3116 -1.3662
16801TIP3   OH271817   4.145   5.169  11.891  0.2899  0.0829  0.1665
16801TIP3    H171818   4.198   5.244  11.916 -0.2401  0.5170 -0.0043
16801TIP3    H271819   4.075   5.166  11.957  0.6515 -0.6197  0.5241
16802TIP3   OH271820   3.038   3.657   4.747  0.2264  0.4887  0.6228
16802TIP3    H171821   3.021   3.726   4.683 -0.6694  0.5032  0.8624
16802TIP3    H271822   3.087   3.591   4.699  0.0889  0.7769  0.0798
16803TIP3   OH271823   5.888   2.002  16.723  0.1663  0.0382  0.1323
16803TIP3    H171824   5.797   2.026  16.710  0.9038  2.6375 -0.6620
16803TIP3    H271825   5.903   2.014  16.817 -0.0752  0.4172  0.1218
16804TIP3   OH271826   4.087   4.233  11.036  0.2772  0.3982 -0.0442
16804TIP3    H171827   4.000   4.272  11.047 -1.0583 -2.4628  0.6461
16804TIP3    H271828   4.129   4.287  10.970 -0.9129  3.5502  1.5694
16805TIP3   OH271829   3.205   6.535   3.531 -0.1106  0.5636  0.5752
16805TIP3    H171830   3.221   6.507   3.441 -1.7832  2.2138 -0.3020
16805TIP3    H271831   3.136   6.476   3.562  0.0172  0.3972  0.5431
16806TIP3   OH271832   4.581   0.640  11.003  0.3372  0.4445 -0.3985
16806TIP3    H171833   4.655   0.694  10.976 -0.5322  2.4014  0.9389
16806TIP3    H271834   4.594   0.557  10.957  3.6374  0.4940  0.2004
16807TIP3   OH271835   5.945   1.205   4.608 -0.1317 -0.6091  0.1918
16807TIP3    H171836   5.914   1.268   4.543 -0.7607 -1.2693 -0.1565
16807TIP3    H271837   6.039   1.224   4.616 -0.1905 -0.0340 -0.3559
16808TIP3   OH271838   0.171   3.917  13.688 -0.0552 -0.2930  0.3083
16808TIP3    H171839   0.153   3.822  13.691 -0.0378 -0.2768  2.4434
16808TIP3    H271840   0.092   3.957  13.726 -0.3558  0.6241 -1.2145
16809TIP3   OH271841   6.386   4.810   2.481  0.1349  0.0235 -0.2942
16809TIP3    H171842   6.437   4.816   2.561  0.9510 -1.3689 -0.6739
16809TIP3    H271843   6.380   4.900   2.450 -0.1014  0.5660  1.2579
16810TIP3   OH271844   4.655   2.705   3.006 -0.1338  0.1906 -0.3343
16810TIP3    H171845   4.663   2.692   3.101  0.1347 -0.1182 -0.3970
16810TIP3    H271846   4.738   2.673   2.971  0.0060  0.8398 -0.6199
16811TIP3   OH271847   3.937   2.902   3.876  0.3959  0.3415 -0.4281
16811TIP3    H171848   3.859   2.906   3.821  0.3673 -0.9421 -0.5054
16811TIP3    H271849   3.903   2.894   3.965  0.4188 -0.7117 -0.5016
16812TIP3   OH271850   1.202   3.696   5.328 -0.1225  0.2686  0.2123
16812TIP3    H171851   1.129   3.666   5.381 -0.4674  1.5981  0.5339
16812TIP3    H271852   1.218   3.624   5.266 -1.5600 -0.1323  0.2612
16813TIP3   OH271853   6.158   2.167   0.977 -0.0383  0.2064  0.0722
16813TIP3    H171854   6.098   2.092   0.975 -1.2983  1.1715 -1.9560
16813TIP3    H271855   6.245   2.129   0.965 -0.4764 -1.0293  0.6643
16814TIP3   OH271856   3.585   3.010   1.560  0.2219 -0.3350 -0.5110
16814TIP3    H171857   3.490   3.016   1.546  0.3299  0.8502 -0.8048
16814TIP3    H271858   3.595   2.937   1.621 -0.7282 -1.6908 -1.8907
16815TIP3   OH271859   5.938   4.484   2.777  0.9747 -0.1022  0.3189
16815TIP3    H171860   5.863   4.426   2.760 -0.5759  1.1153  2.5165
16815TIP3    H271861   5.924   4.558   2.718  0.0667  0.3972  1.1286
16816TIP3   OH271862   1.564   5.224  12.030  0.5900 -0.3557  0.6049
16816TIP3    H171863   1.650   5.254  12.060  1.1851 -1.1702 -0.1859
16816TIP3    H271864   1.565   5.242  11.936 -0.0092 -0.5910  0.5526
16817TIP3   OH271865   3.308   1.618  15.612 -0.0815 -0.1439  0.4748
16817TIP3    H171866   3.359   1.591  15.688 -0.7602  0.0118  0.9991
16817TIP3    H271867   3.235   1.669  15.649 -0.9228 -0.8221 -0.1997
16818TIP3   OH271868   3.073   3.353  16.371 -0.0086 -0.3909  0.1240
16818TIP3    H171869   3.103   3.414  16.437 -1.1851  0.3267  0.0202
16818TIP3    H271870   3.133   3.279  16.377  1.0568  0.5036  0.6723
16819TIP3   OH271871   6.173   5.588   4.982  0.5613 -0.2099 -0.2588
16819TIP3    H171872   6.229   5.597   5.059  0.5054 -0.8434 -0.1351
16819TIP3    H271873   6.228   5.541   4.919  0.2609 -0.6210 -0.2226
16820TIP3   OH271874   2.097   0.936  15.620 -0.1067 -0.5788 -0.0715
16820TIP3    H171875   2.082   1.030  15.630 -2.0062 -0.7244 -1.1834
16820TIP3    H271876   2.110   0.925  15.526 -0.1383 -1.4639  0.0252
16821TIP3   OH271877   3.689   4.041   4.607  0.0082  0.7942  0.3488
16821TIP3    H171878   3.623   4.109   4.623  0.2948  0.8388  1.3793
16821TIP3    H271879   3.653   3.962   4.647  0.5309  0.7904  0.8161
16822TIP3   OH271880   1.452   0.854   4.425 -0.3647  0.0192 -0.0928
16822TIP3    H171881   1.404   0.934   4.446  1.8861  1.4303  0.0466
16822TIP3    H271882   1.437   0.841   4.332 -1.7837 -0.1704  0.1371
16823TIP3   OH271883   1.385   1.731  11.153 -0.3244 -0.6980  0.5840
16823TIP3    H171884   1.404   1.642  11.124  0.4102 -0.2766 -0.2870
16823TIP3    H271885   1.466   1.779  11.135 -0.6876  0.1360  1.1135
16824TIP3   OH271886   4.470   3.337  16.981 -0.2922  0.1111  0.4807
16824TIP3    H171887   4.448   3.247  17.006  0.2123  0.1521  1.0968
16824TIP3    H271888   4.391   3.387  17.001 -0.0788  0.0498  1.4963
16825TIP3   OH271889   3.423   0.866  16.013  0.2134 -0.6755  0.1505
16825TIP3    H171890   3.365   0.805  16.059 -0.3041 -0.1015  0.2941
16825TIP3    H271891   3.403   0.951  16.052  1.0680 -0.4429  0.1021
16826TIP3   OH271892   0.814   5.924   3.090  0.3553  0.5356 -0.3248
16826TIP3    H171893   0.872   5.850   3.108 -0.8153 -0.2747  0.3024
16826TIP3    H271894   0.855   5.970   3.017  1.9289  0.1810  0.3027
16827TIP3   OH271895   6.172   6.383  14.934 -0.3969  0.1533  0.4086
16827TIP3    H171896   6.100   6.352  14.879 -0.0174 -2.2004  1.1473
16827TIP3    H271897   6.129   6.416  15.013 -0.8764  2.7290 -0.8008
16828TIP3   OH271898   3.652   3.948   5.369  0.1605 -0.3852  0.4791
16828TIP3    H171899   3.635   4.021   5.310  0.3211  0.9970  2.0526
16828TIP3    H271900   3.584   3.884   5.349 -0.4156  0.4858 -0.4724
16829TIP3   OH271901   1.487   0.042   4.408 -0.6274 -0.0865 -0.3072
16829TIP3    H171902   1.481  -0.011   4.487 -1.7151 -0.6985 -0.7671
16829TIP3    H271903   1.467   0.131   4.438  1.5338  0.1599  0.5232
16830TIP3   OH271904   2.827   6.009   2.801  0.3187  0.0125  0.0509
16830TIP3    H171905   2.904   6.029   2.855 -1.1275 -1.5269  2.9303
16830TIP3    H271906   2.843   5.921   2.767  0.5138  0.3409 -0.7265
16831TIP3   OH271907   5.975   4.246   4.863  0.6990  0.4186 -0.4716
16831TIP3    H171908   5.953   4.189   4.937 -2.5723  0.2521 -1.4053
16831TIP3    H271909   5.946   4.197   4.786  1.3158  1.8148 -1.6360
16832TIP3   OH271910   2.683   2.576   5.150 -0.0757  0.4270 -0.1949
16832TIP3    H171911   2.727   2.494   5.174 -0.4338  0.4201  0.4716
16832TIP3    H271912   2.745   2.645   5.173 -0.4515  0.4253  0.8736
16833TIP3   OH271913   2.533   1.973  15.261 -0.4288  0.6588  0.1520
16833TIP3    H171914   2.491   2.046  15.216 -0.2016  0.2125 -0.8110
16833TIP3    H271915   2.562   1.915  15.190  0.5976  0.2974  0.8462
16834TIP3   OH271916   3.589   6.449   0.776 -0.3909  0.0148  0.3031
16834TIP3    H171917   3.670   6.399   0.763 -0.4437  0.0410 -0.1568
16834TIP3    H271918   3.607   6.504   0.852 -0.2789 -0.5971  0.7176
16835TIP3   OH271919   3.484   6.444   1.099  0.7408  0.4251  0.3452
16835TIP3    H171920   3.506   6.498   1.175  0.6467 -1.2980  1.6641
16835TIP3    H271921   3.388   6.442   1.098  0.7427  0.4448  0.1880
16836TIP3   OH271922   1.145   5.735   2.399  0.2024 -0.3223 -0.5959
16836TIP3    H171923   1.075   5.679   2.431 -1.4078  0.7320 -2.0417
16836TIP3    H271924   1.187   5.770   2.477 -0.9033 -0.9831  0.3144
16837TIP3   OH271925   6.180   6.092  16.611 -0.5009  0.9731 -0.4140
16837TIP3    H171926   6.087   6.113  16.596 -0.8367  0.9913  1.5258
16837TIP3    H271927   6.205   6.146  16.685  1.1966  1.2310 -1.1280
16838TIP3   OH271928   5.094   5.801  15.729  0.4344  0.0365  0.2773
16838TIP3    H171929   5.102   5.710  15.702 -1.3963 -0.7305  1.9918
16838TIP3    H271930   5.017   5.833  15.683 -0.1712  0.0361  1.2650
16839TIP3   OH271931   4.275   5.763   4.769 -0.2108 -0.1816  0.4041
16839TIP3    H171932   4.313   5.719   4.845 -0.6370 -0.3971  0.4947
16839TIP3    H271933   4.181   5.750   4.779 -0.3334  0.6611  0.3767
16840TIP3   OH271934   5.512   4.764  11.277 -0.3606  0.5408  0.3670
16840TIP3    H171935   5.434   4.725  11.237  0.5164 -0.3755 -0.5287
16840TIP3    H271936   5.576   4.766  11.206  0.5027  1.0646  1.1450
16841TIP3   OH271937   2.849   3.589  11.488 -0.0440 -0.1719 -0.0427
16841TIP3    H171938   2.910   3.520  11.515  0.5911 -0.0254 -1.0707
16841TIP3    H271939   2.792   3.548  11.423  1.3794  0.6469 -1.8986
16842TIP3   OH271940   0.310   4.767  13.608  0.0819 -0.0990 -0.0030
16842TIP3    H171941   0.313   4.849  13.657 -1.0285  0.0935 -0.2252
16842TIP3    H271942   0.216   4.749  13.598  0.3113 -1.0719 -0.4899
16843TIP3   OH271943   2.909   6.729  17.034  0.5673 -0.9479 -0.3805
16843TIP3    H171944   2.820   6.760  17.049 -0.0175 -2.8869  0.5199
16843TIP3    H271945   2.935   6.691  17.118  1.8094 -1.4392 -0.9712
16844TIP3   OH271946   0.377   4.063   0.051  0.1484  0.2913  0.2510
16844TIP3    H171947   0.460   4.062   0.100  0.9000  1.8141 -0.9101
16844TIP3    H271948   0.404   4.054  -0.041 -1.0935 -0.5367 -0.0604
16845TIP3   OH271949   4.187   2.061  13.513  0.6410  0.1422 -0.5455
16845TIP3    H171950   4.142   2.143  13.495 -0.3737  0.0611  1.3953
16845TIP3    H271951   4.124   2.008  13.561  2.5863 -0.1780  1.8782
16846TIP3   OH271952   1.780   2.303   0.723  0.2725  0.1638  0.0521
16846TIP3    H171953   1.843   2.248   0.677  0.4250  0.1072  0.3283
16846TIP3    H271954   1.821   2.322   0.807  0.3004  0.8535 -0.1066
16847TIP3   OH271955   3.493   6.303   4.328 -0.0741 -0.1731  0.0738
16847TIP3    H171956   3.570   6.357   4.350 -0.1072  0.4244 -1.1732
16847TIP3    H271957   3.419   6.349   4.368  0.1910 -0.7873  1.3414
16848TIP3   OH271958   3.387   3.149  12.460 -0.0843  0.2268  0.2947
16848TIP3    H171959   3.367   3.182  12.547  2.8832  2.1433  0.4099
16848TIP3    H271960   3.448   3.077  12.474 -2.5200 -2.0746 -0.1771
16849TIP3   OH271961   3.806   0.821   0.489  0.0477  0.3634  0.4442
16849TIP3    H171962   3.762   0.839   0.406 -1.2102 -1.0657  0.7486
16849TIP3    H271963   3.741   0.846   0.555  0.6967  0.6530  0.9827
16850TIP3   OH271964   2.639   6.730   6.269  0.5819 -1.0948 -0.3683
16850TIP3    H171965   2.618   6.658   6.328  0.9743 -0.3927  0.6769
16850TIP3    H271966   2.695   6.788   6.322  1.0264 -0.4875 -1.4711
16851TIP3   OH271967   6.515   6.380   1.595 -0.8089 -0.1363  0.1995
16851TIP3    H171968   6.572   6.311   1.630 -2.7692 -1.9568  0.0387
16851TIP3    H271969   6.547   6.461   1.635  1.2388 -1.1992  0.8443
16852TIP3   OH271970   6.165   6.044  16.116  0.3634 -0.7487 -0.8264
16852TIP3    H171971   6.224   6.119  16.123 -0.4740 -0.0231 -1.3759
16852TIP3    H271972   6.217   5.970  16.146  1.2473  0.0287 -0.3981
16853TIP3   OH271973   3.135   4.567   0.837 -0.2796 -0.1767 -0.1151
16853TIP3    H171974   3.041   4.549   0.847 -0.4960  0.1186 -1.5121
16853TIP3    H271975   3.160   4.522   0.757  0.4614  0.9327 -0.5275
16854TIP3   OH271976   0.425   0.361   6.031 -0.1700 -0.0003 -0.0935
16854TIP3    H171977   0.512   0.323   6.034 -0.2051 -0.0204  0.7385
16854TIP3    H271978   0.412   0.383   5.938  0.9069  0.4599 -0.1482
16855TIP3   OH271979   3.906   4.370   0.081  0.0397 -0.0729  0.6770
16855TIP3    H171980   3.994   4.402   0.058  0.7330  0.2108  3.3879
16855TIP3    H271981   3.847   4.428   0.033  1.2764 -0.2448 -1.1908
16856TIP3   OH271982   1.556   0.042   3.988 -0.2547 -0.3485 -0.3142
16856TIP3    H171983   1.617   0.113   3.971  1.2435 -1.8139 -1.3497
16856TIP3    H271984   1.583  -0.028   3.928 -1.2467 -2.0452  1.1261
16857TIP3   OH271985   6.699   6.763  12.361  0.0325  0.1624 -0.3168
16857TIP3    H171986   6.647   6.844  12.358  2.5824  1.8880 -0.6594
16857TIP3    H271987   6.635   6.693  12.346 -1.8266  2.3155 -3.6588
16858TIP3   OH271988   0.634   6.499  14.483 -0.1196  0.6194  0.5176
16858TIP3    H171989   0.660   6.582  14.444 -0.9457  0.5353 -0.2488
16858TIP3    H271990   0.557   6.521  14.537  0.4911  0.5814  1.4314
16859TIP3   OH271991   5.062   0.424   1.712 -0.7708 -0.4144 -0.1496
16859TIP3    H171992   5.080   0.458   1.800 -2.0962 -0.5509  0.2053
16859TIP3    H271993   5.095   0.334   1.714  1.8165  0.4523 -0.7597
16860TIP3   OH271994   5.217   2.287  12.801 -0.2673 -0.0868  0.3872
16860TIP3    H171995   5.160   2.337  12.743  1.6346  1.1786 -0.4775
16860TIP3    H271996   5.209   2.330  12.886 -0.6247  0.0561  0.2832
16861TIP3   OH271997   4.375   5.302  13.573 -0.0469 -0.5881  0.0583
16861TIP3    H171998   4.397   5.378  13.627 -1.4608  0.5280 -0.8536
16861TIP3    H271999   4.287   5.276  13.602 -0.3015 -0.7516 -0.8258
16862TIP3   OH272000   2.268   5.773   0.798 -0.7716  0.1521  0.2116
16862TIP3    H172001   2.350   5.729   0.775 -0.9430 -0.8416  1.3776
16862TIP3    H272002   2.294   5.864   0.814 -0.1126  0.1169 -0.5840
16863TIP3   OH272003   5.954   5.227  15.155  0.9056  0.3575 -0.3243
16863TIP3    H172004   6.036   5.193  15.118  0.7130 -2.0761  1.2648
16863TIP3    H272005   5.914   5.152  15.198 -0.3349  2.2888  2.1793
16864TIP3   OH272006   1.194   1.173   5.486 -0.3998 -0.2906  0.5249
16864TIP3    H172007   1.188   1.190   5.580 -1.5946 -0.7354  0.5475
16864TIP3    H272008   1.205   1.260   5.446  0.7063 -0.1495  1.1002
16865TIP3   OH272009   5.061   5.940   3.761  0.4371  0.5978  0.2430
16865TIP3    H172010   4.981   5.986   3.735  0.9272  2.1986  1.3857
16865TIP3    H272011   5.121   5.954   3.688  0.0348  0.3222 -0.1462
16866TIP3   OH272012   4.339   0.387   3.626 -0.3306 -0.0442 -0.2554
16866TIP3    H172013   4.343   0.481   3.609  0.1293 -0.2926 -1.5970
16866TIP3    H272014   4.290   0.380   3.708 -1.9870  1.2731 -1.0623
16867TIP3   OH272015   0.102   5.707  15.806  0.2789  0.0232  0.2343
16867TIP3    H172016   0.147   5.755  15.737  1.2132 -0.7005  0.3178
16867TIP3    H272017   0.010   5.731  15.797  0.5766  0.9375 -0.4328
16868TIP3   OH272018   0.036   0.793   1.503  0.2694  0.1247 -0.2603
16868TIP3    H172019   0.058   0.844   1.426  2.1654 -0.4364 -0.1447
16868TIP3    H272020   0.117   0.787   1.552 -0.1545 -1.9905  0.3101
16869TIP3   OH272021   5.468   1.264   3.710  0.3061 -0.2513 -0.4948
16869TIP3    H172022   5.379   1.289   3.685 -0.0810  1.6681  2.3080
16869TIP3    H272023   5.469   1.168   3.702 -2.0294 -0.3319 -0.5987
16870TIP3   OH272024   6.132   2.525  13.667  0.4038 -0.0177  0.1686
16870TIP3    H172025   6.183   2.445  13.681  1.5410  0.5773 -0.5194
16870TIP3    H272026   6.126   2.533  13.572  3.0914  2.4094  0.0923
16871TIP3   OH272027   5.257   6.562  13.475  0.4623  0.2580 -0.0731
16871TIP3    H172028   5.280   6.480  13.433  2.0836 -0.3725  1.9004
16871TIP3    H272029   5.333   6.583  13.529 -1.2862  1.2611  2.1151
16872TIP3   OH272030   2.744   3.216  14.427  0.0243  0.1785 -0.0372
16872TIP3    H172031   2.710   3.146  14.372 -0.7617  0.2256  0.3734
16872TIP3    H272032   2.835   3.190  14.446 -0.7982 -1.7601  1.7134
16873TIP3   OH272033   3.101   5.812  14.796 -0.4133 -0.0015 -0.1715
16873TIP3    H172034   3.191   5.826  14.825 -0.5225  0.6835 -0.1642
16873TIP3    H272035   3.110   5.766  14.712 -0.0157  1.4102 -0.9332
16874TIP3   OH272036   4.029   2.097   2.551 -0.3320  0.0390 -0.6482
16874TIP3    H172037   4.049   2.150   2.474  0.0058  0.6530 -0.1403
16874TIP3    H272038   4.114   2.062   2.579 -0.4455 -0.1401 -0.5214
16875TIP3   OH272039   6.363   0.588   4.231  0.0852  0.0853 -0.4013
16875TIP3    H172040   6.294   0.619   4.289  0.7629  1.0449 -0.0840
16875TIP3    H272041   6.409   0.522   4.282  0.0258  0.1625 -0.2478
16876TIP3   OH272042   5.225   3.506  12.107 -0.8513 -0.0782 -0.0398
16876TIP3    H172043   5.182   3.528  12.025 -0.2013 -1.3151 -0.7430
16876TIP3    H272044   5.166   3.445  12.150 -0.2730 -1.0391 -0.5684
16877TIP3   OH272045   3.684   2.304   1.930 -0.2317  0.1475 -0.2070
16877TIP3    H172046   3.640   2.271   2.008  0.5204  0.0645  0.1958
16877TIP3    H272047   3.616   2.307   1.862 -0.7785 -0.2363  0.3225
16878TIP3   OH272048   3.801   4.547  17.053  0.3081 -0.2424 -0.5327
16878TIP3    H172049   3.709   4.562  17.073  0.3976  0.8652 -0.8967
16878TIP3    H272050   3.817   4.597  16.974  0.3882 -3.1866 -2.5631
16879TIP3   OH272051   0.195   3.126   1.610  0.2889  0.3430 -0.1304
16879TIP3    H172052   0.194   3.032   1.594  2.2198  0.2223  0.3018
16879TIP3    H272053   0.196   3.135   1.705 -2.3483  0.9098 -0.0561
16880TIP3   OH272054   0.290   4.880   1.938 -0.3077 -0.3231  0.2493
16880TIP3    H172055   0.358   4.939   1.971 -1.0148  0.7376 -0.1411
16880TIP3    H272056   0.324   4.793   1.956  1.0240  0.1844  0.3271
16881TIP3   OH272057   3.810   4.921   0.359  0.3608 -0.3843 -0.0083
16881TIP3    H172058   3.890   4.973   0.357 -0.8705  1.5941 -0.3244
16881TIP3    H272059   3.745   4.978   0.399 -1.1913 -1.4934 -0.8445
16882TIP3   OH272060   1.876   4.646  16.260  0.0643  0.0395 -0.1175
16882TIP3    H172061   1.926   4.711  16.210 -0.7165  1.0787  0.4225
16882TIP3    H272062   1.785   4.665  16.239 -0.1769 -0.9852 -0.0560
16883TIP3   OH272063   0.569   5.580  12.472 -0.2415 -0.1333  0.2692
16883TIP3    H172064   0.479   5.582  12.441 -0.2311 -0.6281  0.2092
16883TIP3    H272065   0.615   5.521  12.412 -0.3201 -1.4863  1.4789
16884TIP3   OH272066   0.164   2.341  13.861  0.0529  0.0352  0.2400
16884TIP3    H172067   0.144   2.432  13.840 -1.3651 -0.1534  0.6400
16884TIP3    H272068   0.162   2.296  13.777  0.0242  0.2468  0.1262
16885TIP3   OH272069   2.433   4.909   6.849  0.3796  0.1878 -0.4782
16885TIP3    H172070   2.451   4.946   6.762 -1.2806  0.6624 -0.6464
16885TIP3    H272071   2.338   4.897   6.851  0.3995  0.1014  1.2483
16886TIP3   OH272072   4.013   6.610   4.796 -0.1983  0.4855  0.1538
16886TIP3    H172073   3.951   6.609   4.869 -2.0317  1.2134 -1.3101
16886TIP3    H272074   3.988   6.688   4.746  1.1615  0.1297 -1.1233
16887TIP3   OH272075   5.326   0.657  16.349 -0.7033  0.1261 -0.5440
16887TIP3    H172076   5.359   0.660  16.259  0.2925 -1.6484 -0.2855
16887TIP3    H272077   5.245   0.709  16.346 -0.7802 -0.0095 -2.4850
16888TIP3   OH272078   5.353   2.913   0.385  0.1325 -0.1266  0.3207
16888TIP3    H172079   5.332   2.838   0.441 -1.2590 -0.9168 -1.1826
16888TIP3    H272080   5.343   2.880   0.296  1.1035  1.4286 -0.4000
16889TIP3   OH272081   4.867   5.926  16.746 -0.3463 -0.3732 -0.4671
16889TIP3    H172082   4.806   6.000  16.745  1.5841  1.3084  0.1828
16889TIP3    H272083   4.917   5.937  16.827  1.5576 -1.0477 -1.4982
16890TIP3   OH272084   4.371   5.572   3.147 -0.0626 -0.5719 -0.1319
16890TIP3    H172085   4.319   5.548   3.070  1.6387 -0.3284 -1.4038
16890TIP3    H272086   4.373   5.668   3.146 -0.9763 -0.5174  0.9077
16891TIP3   OH272087   2.412   4.071   3.448 -0.5537 -0.2112  0.3425
16891TIP3    H172088   2.387   4.056   3.539  2.5087  0.2658  1.3634
16891TIP3    H272089   2.403   4.166   3.436 -2.1368 -0.4108 -0.2980
16892TIP3   OH272090   4.047   5.969  11.211 -0.3607 -0.1795  0.2259
16892TIP3    H172091   3.978   6.013  11.260 -0.1315  0.0005  0.3854
16892TIP3    H272092   4.023   5.876  11.215 -1.3282 -0.0034 -0.8583
16893TIP3   OH272093   6.638   1.632   4.587  0.1840 -0.5704  0.2977
16893TIP3    H172094   6.576   1.647   4.516 -1.3995 -0.4377  1.6357
16893TIP3    H272095   6.720   1.671   4.557 -0.1739 -1.3093 -1.7906
16894TIP3   OH272096   4.190   3.158   0.080 -0.2453  0.1282 -0.6692
16894TIP3    H172097   4.132   3.232   0.062 -0.6204 -0.1990 -0.8226
16894TIP3    H272098   4.211   3.166   0.173  1.5200  1.7029 -1.1462
16895TIP3   OH272099   1.238   2.243  12.502  0.6726  0.5970  0.5386
16895TIP3    H172100   1.267   2.320  12.453 -0.4416  0.9393  0.3987
16895TIP3    H272101   1.203   2.184  12.436  1.2059  0.0995  0.6866
16896TIP3   OH272102   1.018   3.922   1.271 -0.5224  0.1842  0.5200
16896TIP3    H172103   0.987   3.849   1.218  1.7059 -0.5662  0.1516
16896TIP3    H272104   0.946   3.985   1.268 -2.6931 -2.1001  1.1867
16897TIP3   OH272105   2.644   4.447  15.144  0.6534 -0.1865 -0.6620
16897TIP3    H172106   2.571   4.498  15.178  0.2473  0.3637 -2.2814
16897TIP3    H272107   2.715   4.463  15.206 -0.6502 -1.0345  1.1752
16898TIP3   OH272108   2.824   2.672  14.725 -0.5038  0.0335  0.4165
16898TIP3    H172109   2.889   2.729  14.766 -0.7104  0.4157  0.2179
16898TIP3    H272110   2.867   2.586  14.721  0.5125  0.5745 -0.9521
16899TIP3   OH272111   1.560   6.715  16.587 -0.3800 -0.3669  0.3510
16899TIP3    H172112   1.614   6.722  16.508  1.6933 -1.2505  1.6139
16899TIP3    H272113   1.471   6.734  16.556  0.0969 -2.0412 -2.4895
16900TIP3   OH272114   6.395   0.445  11.163  0.1706 -0.6717  0.0832
16900TIP3    H172115   6.462   0.427  11.097 -1.1351 -1.3979 -1.0958
16900TIP3    H272116   6.322   0.482  11.114 -0.6100 -0.6412  1.2211
16901TIP3   OH272117   6.730   6.201  11.207 -0.0652 -0.2792 -0.4344
16901TIP3    H172118   6.693   6.163  11.127 -0.0259 -2.3712  0.5006
16901TIP3    H272119   6.744   6.294  11.184 -0.9403 -0.5988 -2.5221
16902TIP3   OH272120   0.608   2.770  16.979 -0.0106 -0.1886 -0.0129
16902TIP3    H172121   0.591   2.701  17.043 -1.1827  0.2875  0.2145
16902TIP3    H272122   0.650   2.840  17.029 -3.1133  1.2164  0.8926
16903TIP3   OH272123   2.652   1.471   0.867  0.2294 -0.3641 -0.0420
16903TIP3    H172124   2.615   1.399   0.918 -2.3350  1.0795  0.2934
16903TIP3    H272125   2.703   1.522   0.930 -0.1097 -0.4551  0.3052
16904TIP3   OH272126   2.279   0.210   1.198 -0.3226  0.3119 -0.1639
16904TIP3    H172127   2.310   0.136   1.249 -0.3874 -0.1148 -0.7367
16904TIP3    H272128   2.358   0.260   1.176 -0.2125  0.0613 -0.3302
16905TIP3   OH272129   6.360   5.360   5.080 -0.0954  0.1846 -0.5230
16905TIP3    H172130   6.288   5.311   5.041 -0.5207  2.1864 -2.5241
16905TIP3    H272131   6.342   5.359   5.174 -1.4315 -1.2980 -0.7471
16906TIP3   OH272132   3.795   0.795  11.523  0.4065  0.0595  0.7551
16906TIP3    H172133   3.746   0.807  11.442 -0.6250 -3.1431  0.7846
16906TIP3    H272134   3.887   0.802  11.496  0.0666  1.5376 -0.1544
16907TIP3   OH272135   3.657   5.297  12.712  0.1529 -0.2133  0.0565
16907TIP3    H172136   3.652   5.337  12.799 -0.8666  0.7775 -0.4400
16907TIP3    H272137   3.734   5.337  12.671  0.5819 -0.6148  0.4655
16908TIP3   OH272138   5.955   6.326   0.166  0.5681 -0.1429  0.6118
16908TIP3    H172139   5.954   6.283   0.080  2.1398 -1.5556  1.2575
16908TIP3    H272140   5.927   6.416   0.147  1.7682 -0.1335 -1.5386
16909TIP3   OH272141   4.561   1.600  13.666 -0.3061 -0.3557 -0.4847
16909TIP3    H172142   4.539   1.692  13.650 -1.4049 -0.9359 -2.7625
16909TIP3    H272143   4.643   1.586  13.619 -0.1122 -0.5231 -0.0974
16910TIP3   OH272144   3.952   3.557  17.142 -0.4295  0.3781 -0.4135
16910TIP3    H172145   3.869   3.606  17.143 -0.1558  0.9192  1.7413
16910TIP3    H272146   4.019   3.624  17.154  0.3960 -0.0131 -2.5626
16911TIP3   OH272147   6.319   0.593   2.529  0.4284 -0.2078  0.6224
16911TIP3    H172148   6.347   0.599   2.437  0.6967  0.4144  0.7424
16911TIP3    H272149   6.271   0.510   2.533  2.8424 -1.7135  0.5652
16912TIP3   OH272150   5.169   6.238   4.912  0.5489  0.1049 -0.2895
16912TIP3    H172151   5.083   6.209   4.941  0.2087  1.3365  0.0158
16912TIP3    H272152   5.154   6.279   4.827  0.9885 -0.4989 -0.6622
16913TIP3   OH272153   4.484   0.479  15.920 -0.0165  0.5389  1.2267
16913TIP3    H172154   4.547   0.448  15.855 -0.0768  0.1641  1.3440
16913TIP3    H272155   4.478   0.573  15.904  1.0234  0.6803  1.6054
16914TIP3   OH272156   4.702   4.482   2.694  0.3507  0.1849 -0.0962
16914TIP3    H172157   4.725   4.407   2.639  0.8020  0.4511 -0.2781
16914TIP3    H272158   4.784   4.531   2.703 -0.3994  1.9019 -1.8810
16915TIP3   OH272159   1.998   1.197   0.708  0.1125 -0.1549 -0.1189
16915TIP3    H172160   1.953   1.113   0.699  2.4597 -1.2710 -3.7097
16915TIP3    H272161   2.090   1.177   0.695  0.7224  2.9961 -1.8989
16916TIP3   OH272162   2.438   3.331  16.995 -0.5725 -0.6706 -0.5639
16916TIP3    H172163   2.415   3.349  17.086  0.0226  0.4143 -0.6126
16916TIP3    H272164   2.474   3.414  16.962  0.3130 -1.3750 -1.4416
16917TIP3   OH272165   0.171   3.180  13.035  0.2201 -0.6930 -0.1390
16917TIP3    H172166   0.192   3.271  13.013 -0.7597 -0.0836  1.2538
16917TIP3    H272167   0.229   3.128  12.980 -0.4376  0.7252 -2.2988
16918TIP3   OH272168   5.280   5.006  16.705  0.0819 -0.2684  0.2653
16918TIP3    H172169   5.373   5.029  16.700  0.6499 -2.0602  1.4417
16918TIP3    H272170   5.253   5.034  16.792 -0.9837  1.7553 -0.6544
16919TIP3   OH272171   3.792   5.425   6.794 -0.4304 -0.2056 -0.3299
16919TIP3    H172172   3.873   5.378   6.775  0.1273  0.9119 -0.8428
16919TIP3    H272173   3.819   5.517   6.800 -1.4116  0.0304  1.0228
16920TIP3   OH272174   4.303   6.382  10.938 -0.1634 -0.2454  0.0862
16920TIP3    H172175   4.394   6.373  10.909 -0.4173 -2.1560 -0.2538
16920TIP3    H272176   4.304   6.358  11.030 -0.1631  0.8910  0.3995
16921TIP3   OH272177   6.537   0.019  13.950 -0.6027 -0.1678 -0.2225
16921TIP3    H172178   6.569  -0.035  14.023 -0.6328 -1.4094 -1.0913
16921TIP3    H272179   6.449   0.046  13.977 -0.4817 -0.3219  0.3499
16922TIP3   OH272180   6.766   3.309  15.655 -0.8760  0.4067 -0.3155
16922TIP3    H172181   6.848   3.276  15.618 -0.5534 -1.1956  1.6554
16922TIP3    H272182   6.697   3.261  15.611 -0.5774 -0.3767  0.0580
16923TIP3   OH272183   5.126   4.170   0.017 -0.1941 -0.0192 -0.6524
16923TIP3    H172184   5.147   4.168  -0.077  0.9617  0.1284 -0.4104
16923TIP3    H272185   5.159   4.254   0.047  1.0205 -0.7741  0.2219
16924TIP3   OH272186   5.041   4.262  11.342  0.1901  0.0055  0.2324
16924TIP3    H172187   5.049   4.270  11.247  0.7747  2.4244  0.4134
16924TIP3    H272188   5.119   4.215  11.369 -0.0912 -0.9064 -0.4900
16925TIP3   OH272189   5.529   4.223  16.815 -0.1503  0.0399 -0.4983
16925TIP3    H172190   5.589   4.224  16.740 -0.5921  1.2106 -0.8595
16925TIP3    H272191   5.544   4.307  16.859 -0.9659  0.0173 -0.1608
16926TIP3   OH272192   0.299   2.354   5.630  0.0137 -0.4609 -0.0502
16926TIP3    H172193   0.337   2.441   5.635 -1.5818  0.3282 -0.9368
16926TIP3    H272194   0.272   2.334   5.720 -1.2989  0.7838 -0.1340
16927TIP3   OH272195   6.347   2.351  14.780 -0.0059 -0.0352 -0.2778
16927TIP3    H172196   6.300   2.401  14.847  1.6432 -1.5368  2.1774
16927TIP3    H272197   6.439   2.359  14.805  0.5596 -1.6014 -1.7046
16928TIP3   OH272198   2.153   2.182  12.219 -0.0890 -0.0582 -0.3496
16928TIP3    H172199   2.193   2.196  12.133 -1.2417  3.3298 -0.4797
16928TIP3    H272200   2.117   2.267  12.243 -0.4392 -1.0420  3.2176
16929TIP3   OH272201   4.935   0.140   2.110  0.6020 -0.3247  0.9187
16929TIP3    H172202   4.934   0.058   2.061 -1.5999  0.5582 -0.6841
16929TIP3    H272203   5.003   0.192   2.067  0.3085 -0.4262  0.3122
16930TIP3   OH272204   5.453   0.648  11.899 -0.1335  0.6735 -0.3544
16930TIP3    H172205   5.512   0.572  11.898  1.1246  1.6205  0.2156
16930TIP3    H272206   5.500   0.714  11.949 -2.5094  0.8328  1.8268
16931TIP3   OH272207   5.860   2.785   4.560  0.3463 -0.2969 -0.3383
16931TIP3    H172208   5.825   2.771   4.647 -1.7366 -0.7626 -1.1863
16931TIP3    H272209   5.782   2.795   4.504  1.6043  1.9449 -1.8439
16932TIP3   OH272210   4.346   4.560  10.398  0.3698 -0.0838 -0.2736
16932TIP3    H172211   4.278   4.498  10.371  1.1079  0.0185 -2.6655
16932TIP3    H272212   4.306   4.612  10.467 -2.5008  0.8534 -2.4573
16933TIP3   OH272213   4.980   2.944  17.090  0.6816  0.0554 -0.0393
16933TIP3    H172214   5.064   2.921  17.049  1.4140 -0.0606  1.4761
16933TIP3    H272215   4.972   3.039  17.076  1.3503  0.1681  0.3194
16934TIP3   OH272216   2.912   4.931  11.438 -0.6909  0.8286  0.2089
16934TIP3    H172217   2.950   4.868  11.377 -1.5475 -0.2403  0.7243
16934TIP3    H272218   2.986   4.964  11.489 -0.0889  1.0710 -0.8020
16935TIP3   OH272219   4.823   4.149  13.887 -0.0790  0.0567  1.0807
16935TIP3    H172220   4.894   4.159  13.950  1.2567 -0.6149 -0.2526
16935TIP3    H272221   4.807   4.238  13.855  0.3407  0.1825  1.2135
16936TIP3   OH272222   4.793   2.496  14.020  0.0654  0.1501 -0.2702
16936TIP3    H172223   4.739   2.439  14.075  0.7439 -0.0651  0.1858
16936TIP3    H272224   4.774   2.469  13.930  1.6957 -2.0553 -0.0290
16937TIP3   OH272225   5.500   1.993   5.208 -0.0593 -0.4355  0.3473
16937TIP3    H172226   5.441   2.047   5.262 -0.1288  3.4038 -3.0470
16937TIP3    H272227   5.565   2.055   5.175  2.0239 -3.2441 -1.2222
16938TIP3   OH272228   5.907   6.755   0.461  0.5482 -0.0418  0.0676
16938TIP3    H172229   5.959   6.836   0.466 -2.0912  1.7427  1.0931
16938TIP3    H272230   5.817   6.785   0.453 -0.8548 -2.7984  3.0713
16939TIP3   OH272231   5.998   0.138  14.655  0.9680 -0.2412  0.1049
16939TIP3    H172232   6.069   0.088  14.694  2.5753  0.3116 -1.9233
16939TIP3    H272233   6.033   0.169  14.572 -1.1100  1.4364 -0.2462
16940TIP3   OH272234   5.307   1.235  12.603 -0.0842 -0.3805 -0.1027
16940TIP3    H172235   5.245   1.204  12.669 -0.9635  0.1019 -0.6785
16940TIP3    H272236   5.292   1.329  12.598  1.4933 -0.0618  0.5345
16941TIP3   OH272237   4.564   1.801   5.373 -0.0678  0.2505  0.1278
16941TIP3    H172238   4.507   1.838   5.305  0.4235  1.5210  0.3855
16941TIP3    H272239   4.653   1.808   5.336  0.1811  0.7372  0.8111
16942TIP3   OH272240   6.083   6.680  13.479  0.0553 -0.3140  0.4780
16942TIP3    H172241   5.989   6.682  13.495  0.0155  1.7473  0.3544
16942TIP3    H272242   6.099   6.595  13.438 -1.9414 -0.2554 -0.5645
16943TIP3   OH272243   0.116   1.491   3.665  0.3929  0.4895  0.2981
16943TIP3    H172244   0.086   1.517   3.578 -2.1678  0.0764  0.9762
16943TIP3    H272245   0.096   1.397   3.670  4.7981 -0.7167 -0.2554
16944TIP3   OH272246   1.715   6.383  14.085  0.9863 -0.0435 -0.1869
16944TIP3    H172247   1.721   6.341  14.171 -0.4265 -1.1440 -0.5926
16944TIP3    H272248   1.625   6.368  14.056  1.2260  0.9204 -1.5615
16945TIP3   OH272249   5.115   3.975   1.110  0.8559  0.1010  0.1337
16945TIP3    H172250   5.046   4.041   1.116  1.0563  0.2273  1.3467
16945TIP3    H272251   5.152   3.987   1.023 -0.0547  0.6327 -0.1964
16946TIP3   OH272252   4.871   4.690   6.798 -0.1788 -0.6002  0.2619
16946TIP3    H172253   4.906   4.766   6.844 -0.7381  0.5722 -1.1492
16946TIP3    H272254   4.782   4.681   6.830 -0.1781 -0.5289  0.2839
16947TIP3   OH272255   0.306   6.652  11.196 -0.3035 -0.4567  0.4741
16947TIP3    H172256   0.389   6.626  11.155  0.4457  0.9526  1.0372
16947TIP3    H272257   0.327   6.667  11.288 -1.3961 -0.9665  0.8276
16948TIP3   OH272258   1.791   4.896  11.009  0.3652 -0.1039 -0.6222
16948TIP3    H172259   1.806   4.878  10.917  0.5261  1.7992 -1.0121
16948TIP3    H272260   1.700   4.868  11.024  0.1844 -0.0042 -1.4718
16949TIP3   OH272261   1.749   2.664   3.676  0.4116 -0.5068 -0.4235
16949TIP3    H172262   1.667   2.652   3.628  1.2991 -1.8783 -1.6631
16949TIP3    H272263   1.756   2.586   3.731  0.5843 -0.0845  0.1643
16950TIP3   OH272264   5.080   4.984   6.067 -0.5016  0.3219  1.0552
16950TIP3    H172265   5.103   4.912   6.124 -0.7901  0.5218  1.4272
16950TIP3    H272266   5.112   5.062   6.112  0.8105  0.3551  0.1391
16951TIP3   OH272267   5.989   0.420   5.316 -0.2398  0.0221  0.1449
16951TIP3    H172268   5.920   0.358   5.290  1.5732 -0.7271 -3.6553
16951TIP3    H272269   6.033   0.378   5.389 -1.5599 -1.2112  0.2801
16952TIP3   OH272270   0.335   1.362  14.160  0.0495 -0.3984  0.3410
16952TIP3    H172271   0.271   1.298  14.129 -0.4699  0.3333 -0.1461
16952TIP3    H272272   0.357   1.334  14.248 -0.1984 -1.2235  0.1515
16953TIP3   OH272273   0.374   5.278  13.720 -0.5724  0.3329 -0.0286
16953TIP3    H172274   0.447   5.226  13.688  0.5327  1.5179  0.4819
16953TIP3    H272275   0.298   5.220  13.712  0.3739 -0.8581 -0.7508
16954TIP3   OH272276   0.078   2.356   0.241  0.2247  0.2305  0.1213
16954TIP3    H172277   0.146   2.411   0.203 -0.3200  0.5900 -0.3675
16954TIP3    H272278   0.002   2.371   0.185 -0.6238  0.7946  1.3725
16955TIP3   OH272279   0.900   6.524   0.392 -0.3560 -0.8570 -0.8157
16955TIP3    H172280   0.815   6.526   0.437 -0.7037 -0.4917 -1.4598
16955TIP3    H272281   0.877   6.524   0.299  0.3530 -0.8030 -0.9961
16956TIP3   OH272282   1.907   5.925   3.570 -0.0130  0.7093  0.4180
16956TIP3    H172283   1.974   5.977   3.525  0.3093 -0.2947 -0.3005
16956TIP3    H272284   1.826   5.943   3.523  0.6304 -1.7103 -1.8325
16957TIP3   OH272285   3.326   1.588  12.972  0.7498 -1.0913  0.1265
16957TIP3    H172286   3.391   1.627  13.030 -0.3096  0.5418  0.3094
16957TIP3    H272287   3.275   1.529  13.027  0.4495 -0.3864  0.6146
16958TIP3   OH272288   1.450   4.848  13.706 -0.0754 -0.5772 -0.0452
16958TIP3    H172289   1.462   4.830  13.613 -1.9649  0.8233 -0.6092
16958TIP3    H272290   1.357   4.834  13.723 -0.0315  0.4989  1.3204
16959TIP3   OH272291   5.532   3.916   3.010  0.1779  0.0522  0.0692
16959TIP3    H172292   5.461   3.856   3.031  1.0434 -0.3927  1.9159
16959TIP3    H272293   5.497   4.003   3.029 -0.8381  0.1513 -1.9420
16960TIP3   OH272294   1.053   6.095  11.439 -0.6714  0.0388  0.0716
16960TIP3    H172295   0.980   6.051  11.483 -2.6312  1.9271 -1.0804
16960TIP3    H272296   1.113   6.119  11.510 -0.2739 -2.9508  0.8838
16961TIP3   OH272297   1.983   2.611   5.522 -0.0151 -0.2518 -0.1280
16961TIP3    H172298   1.972   2.692   5.573  1.7225 -0.3189  0.4419
16961TIP3    H272299   1.998   2.543   5.587 -1.4448 -1.0664 -0.6089
16962TIP3   OH272300   0.244   6.722  13.091 -0.0488 -0.4061  0.2920
16962TIP3    H172301   0.324   6.747  13.135 -0.4587  0.5106  0.5375
16962TIP3    H272302   0.177   6.780  13.127 -1.0535 -1.8692  0.8964
16963TIP3   OH272303   6.388   3.035  10.366 -0.6888 -0.1063  0.3367
16963TIP3    H172304   6.426   3.082  10.292  0.4693 -2.1923 -0.4534
16963TIP3    H272305   6.458   3.032  10.431 -1.9680  2.5027  2.0131
16964TIP3   OH272306   0.657   3.918   1.222  0.0504 -0.0984 -0.4138
16964TIP3    H172307   0.722   3.915   1.152  0.0312 -0.4095 -0.4220
16964TIP3    H272308   0.705   3.891   1.300  0.5390  2.0277  0.0776
16965TIP3   OH272309   4.593   3.884   1.338  0.0454 -0.1871 -0.4775
16965TIP3    H172310   4.661   3.949   1.358  0.0153 -0.0156 -0.9109
16965TIP3    H272311   4.607   3.864   1.245 -2.3875  2.1334 -1.4682
16966TIP3   OH272312   6.365   3.946   5.488  0.1264 -0.5499 -0.2462
16966TIP3    H172313   6.308   3.989   5.424 -1.2239  0.2589  1.3936
16966TIP3    H272314   6.365   3.854   5.463 -0.9696 -0.3616 -0.9919
16967TIP3   OH272315   2.571   5.417  12.908  0.1730  0.2877 -0.8343
16967TIP3    H172316   2.655   5.386  12.943 -0.5170 -0.5601  0.0989
16967TIP3    H272317   2.526   5.455  12.983 -1.4518 -1.8192 -0.6637
16968TIP3   OH272318   6.346   6.493   0.929  0.3829  0.5108  0.3144
16968TIP3    H172319   6.362   6.560   0.863  0.2581 -0.3158 -0.5776
16968TIP3    H272320   6.425   6.440   0.930  0.2396  0.2939  0.5569
16969TIP3   OH272321   2.466   3.224   0.942 -0.4269  0.2105  0.2930
16969TIP3    H172322   2.562   3.216   0.943 -0.4709 -0.3210  0.4324
16969TIP3    H272323   2.449   3.289   0.874  0.1041  1.3514  1.2178
16970TIP3   OH272324   6.187   2.483   6.274 -0.0609  0.1022 -0.2064
16970TIP3    H172325   6.184   2.571   6.311 -0.0572 -0.3908  1.0505
16970TIP3    H272326   6.154   2.492   6.185  2.4341  1.8130 -1.0678
16971TIP3   OH272327   2.472   0.525  12.529  0.6972  0.4890 -0.5429
16971TIP3    H172328   2.453   0.433  12.546  0.5450  0.9558  2.2844
16971TIP3    H272329   2.567   0.531  12.532  0.6569  0.6993  1.3122
16972TIP3   OH272330   1.433   6.708   4.199 -0.6306 -0.1738  0.5964
16972TIP3    H172331   1.473   6.775   4.143  0.2618  0.0741  1.5185
16972TIP3    H272332   1.428   6.748   4.285  0.5418 -1.5137  1.3196
16973TIP3   OH272333   5.694   3.038  15.551 -0.5635  0.4604  0.7045
16973TIP3    H172334   5.611   3.032  15.505  0.0718 -0.7611 -0.3345
16973TIP3    H272335   5.676   3.003  15.638 -1.0705 -0.0542  0.3988
16974TIP3   OH272336   5.296   4.376  16.095  0.0846  0.6212  0.0866
16974TIP3    H172337   5.372   4.377  16.037  0.5195 -0.4098  0.6051
16974TIP3    H272338   5.230   4.325  16.048  0.9453 -1.4921  1.0561
16975TIP3   OH272339   5.893   1.774   3.564  0.3717  0.4195 -0.7063
16975TIP3    H172340   5.932   1.716   3.629 -1.3734 -1.3344 -1.1235
16975TIP3    H272341   5.842   1.716   3.507 -2.7430  2.4226 -0.2417
16976TIP3   OH272342   2.553   1.234  12.706  0.1488 -0.1347 -0.0926
16976TIP3    H172343   2.469   1.276  12.727 -1.0739 -2.6303  0.3715
16976TIP3    H272344   2.530   1.144  12.684  2.6581 -0.6805 -0.7859
16977TIP3   OH272345   4.438   6.201   3.558  0.0644 -0.0951  0.2631
16977TIP3    H172346   4.464   6.262   3.488 -0.2370  0.3329  0.5151
16977TIP3    H272347   4.344   6.217   3.568  0.0166 -0.4955  0.4419
16978TIP3   OH272348   2.590   0.778  12.644  0.7904  0.5143 -0.0556
16978TIP3    H172349   2.629   0.779  12.556 -0.4874  0.0596 -0.6629
16978TIP3    H272350   2.626   0.700  12.686 -1.1930 -1.3222 -1.4911
16979TIP3   OH272351   0.154   1.827  13.850 -0.4418 -0.8124  0.5200
16979TIP3    H172352   0.098   1.789  13.782  0.5592 -0.1152 -0.7168
16979TIP3    H272353   0.231   1.770  13.852 -0.3230 -0.6428  0.8560
16980TIP3   OH272354   2.672   2.613  11.975 -0.1983 -0.0889  0.6785
16980TIP3    H172355   2.709   2.526  11.958 -1.5556 -0.1866 -2.4148
16980TIP3    H272356   2.749   2.669  11.990  0.9214 -1.2416 -0.4665
16981TIP3   OH272357   0.487   6.787  14.875  0.3666 -0.3407  0.4196
16981TIP3    H172358   0.541   6.716  14.907 -0.1807 -0.8890  0.1458
16981TIP3    H272359   0.453   6.829  14.954  0.3892 -0.6173  0.5751
16982TIP3   OH272360   5.928   2.879  16.304  0.5628 -0.8064  0.3379
16982TIP3    H172361   5.849   2.840  16.266  1.4490 -1.2354 -1.1427
16982TIP3    H272362   5.977   2.805  16.338  0.4606 -0.5700  1.0025
16983TIP3   OH272363   6.703   5.209  13.674 -0.3655 -0.1716  0.0535
16983TIP3    H172364   6.651   5.130  13.685  1.3818 -1.5272 -0.8183
16983TIP3    H272365   6.661   5.256  13.602  0.4499 -2.0653 -1.7819
16984TIP3   OH272366   6.723   2.610  11.316 -0.4253 -0.4258  0.4290
16984TIP3    H172367   6.732   2.516  11.329  0.7647 -0.4996 -0.6632
16984TIP3    H272368   6.675   2.641  11.392 -0.1238 -1.7989  1.2080
16985TIP3   OH272369   4.097   3.847   2.383  0.1714 -0.0873 -0.2913
16985TIP3    H172370   4.016   3.820   2.340 -0.1293 -0.2696  0.3666
16985TIP3    H272371   4.068   3.881   2.468  0.8457 -0.8879  0.2798
16986TIP3   OH272372   0.402   6.252   3.206  0.4973 -0.6300 -0.2024
16986TIP3    H172373   0.343   6.319   3.171  1.2622 -0.1143 -0.5207
16986TIP3    H272374   0.408   6.271   3.299  0.1999 -0.6603 -0.1761
16987TIP3   OH272375   2.265   5.502   5.189  0.4818 -0.3187 -0.7897
16987TIP3    H172376   2.356   5.524   5.210 -0.0094  1.6584 -0.5113
16987TIP3    H272377   2.260   5.508   5.094  0.7843 -1.1029 -0.8620
16988TIP3   OH272378   4.138   4.777  15.666  0.2742  0.4436 -0.1872
16988TIP3    H172379   4.045   4.763  15.680  0.4618 -1.5298 -0.6395
16988TIP3    H272380   4.179   4.695  15.693  2.0177  1.6634  1.0796
16989TIP3   OH272381   3.773   1.716  11.489  0.1964 -0.3116 -0.0552
16989TIP3    H172382   3.724   1.798  11.496 -0.3694 -0.6417 -0.1272
16989TIP3    H272383   3.796   1.710  11.396  0.1220 -0.3054 -0.0739
16990TIP3   OH272384   3.509   6.657   3.130  0.4913  0.1831  0.4266
16990TIP3    H172385   3.471   6.720   3.070  2.3931  2.1171  1.1373
16990TIP3    H272386   3.531   6.708   3.208 -1.7528 -2.1740  2.8368
16991TIP3   OH272387   4.885   2.884   3.945  0.0127 -0.5569  0.1672
16991TIP3    H172388   4.901   2.819   3.877 -1.4445 -1.4516  0.6255
16991TIP3    H272389   4.966   2.935   3.950  0.2302 -0.5719 -2.1012
16992TIP3   OH272390   1.048   5.922  13.525 -0.4310 -0.3895 -0.0915
16992TIP3    H172391   0.981   5.988  13.544 -0.5156 -0.9461  1.7433
16992TIP3    H272392   1.000   5.852  13.480 -1.5019 -1.4407  2.4761
16993TIP3   OH272393   4.554   5.880   2.013  0.1024  0.2126  0.8605
16993TIP3    H172394   4.507   5.936   2.074  0.3922 -0.5181  1.7670
16993TIP3    H272395   4.503   5.800   2.009  0.0498  0.2728  0.0744
16994TIP3   OH272396   3.291   4.419   4.656 -0.0996 -0.1944  0.0224
16994TIP3    H172397   3.246   4.456   4.580  0.9474 -0.4636 -0.7592
16994TIP3    H272398   3.259   4.469   4.730 -1.0733  0.1477 -0.6067
16995TIP3   OH272399   2.387   0.240  12.498 -0.5871  1.1896  0.1437
16995TIP3    H172400   2.378   0.211  12.407  1.6972 -0.1794  0.2911
16995TIP3    H272401   2.334   0.178  12.548  0.9940 -0.3257  0.0379
16996TIP3   OH272402   1.378   5.685   4.547  0.1927 -0.3204  0.5007
16996TIP3    H172403   1.364   5.668   4.640 -0.6849 -0.3542  0.3786
16996TIP3    H272404   1.472   5.696   4.538  0.3418 -0.8148  1.3109
16997TIP3   OH272405   3.018   3.409   0.640 -0.1414 -0.1063 -0.6391
16997TIP3    H172406   3.069   3.367   0.571  0.1577  0.4982 -0.7991
16997TIP3    H272407   2.944   3.448   0.594  1.9696  3.5875 -1.3240
16998TIP3   OH272408   6.404   5.493  14.240  0.3306 -0.4074 -0.4341
16998TIP3    H172409   6.419   5.451  14.155 -2.6096 -1.2616 -0.6446
16998TIP3    H272410   6.341   5.562  14.222 -0.2557 -0.5230  0.9973
16999TIP3   OH272411   6.345   1.985  15.954 -0.3810 -0.0480 -0.1028
16999TIP3    H172412   6.321   1.954  15.867 -0.9136  1.4987 -0.5286
16999TIP3    H272413   6.418   2.045  15.939 -0.0844 -0.2223  0.5875
17000TIP3   OH272414   2.662   6.526   2.461  0.1706 -0.2249  0.5569
17000TIP3    H172415   2.588   6.550   2.518  0.5792  1.1961  0.5217
17000TIP3    H272416   2.701   6.450   2.504 -1.0415 -0.7402  0.8092
17001TIP3   OH272417   2.673   1.541  13.980  0.2712  0.5230  0.8970
17001TIP3    H172418   2.746   1.496  14.022  0.3093 -0.0140  0.2635
17001TIP3    H272419   2.669   1.505  13.892 -0.4708  0.8789  0.7710
17002TIP3   OH272420   2.843   4.627  11.671  0.6446 -0.1161 -0.1759
17002TIP3    H172421   2.801   4.713  11.676 -2.0519 -1.3930  1.7511
17002TIP3    H272422   2.887   4.617  11.755  0.4610 -0.8195 -0.1556
17003TIP3   OH272423   3.295   2.532  16.721  0.3824 -0.4591 -0.0941
17003TIP3    H172424   3.320   2.592  16.651 -0.3613 -2.5312 -2.2770
17003TIP3    H272425   3.209   2.564  16.750  0.8985  0.6764  0.2217
17004TIP3   OH272426   4.428   0.078   4.204  0.5236 -0.1853 -0.0510
17004TIP3    H172427   4.462   0.150   4.151 -1.2732  0.4272 -0.4536
17004TIP3    H272428   4.498   0.059   4.266  1.3439  1.3982 -0.4319
17005TIP3   OH272429   4.125   4.435   1.003 -0.0140  0.0785  0.2032
17005TIP3    H172430   4.127   4.521   0.959 -0.0659  0.4096  0.8383
17005TIP3    H272431   4.119   4.372   0.931  0.9077  0.5613 -0.3249
17006TIP3   OH272432   1.914   1.422  13.076 -0.1532 -0.4150 -0.5022
17006TIP3    H172433   1.902   1.341  13.027 -2.8046 -0.5865  0.2889
17006TIP3    H272434   1.845   1.480  13.044  0.5207  0.8568  0.2676
17007TIP3   OH272435   3.590   5.828   1.286 -0.5432 -0.3111  0.7909
17007TIP3    H172436   3.614   5.859   1.373 -2.1649  0.0475  1.1450
17007TIP3    H272437   3.643   5.881   1.226 -2.1455  2.1567  1.4352
17008TIP3   OH272438   5.028   1.407   3.280 -0.0760  0.1233  0.3920
17008TIP3    H172439   5.112   1.440   3.314  0.2427 -1.1094  0.8225
17008TIP3    H272440   5.015   1.323   3.323 -1.7061  0.4283  0.5553
17009TIP3   OH272441   1.873   6.803   3.822 -0.6461  0.0197  0.3169
17009TIP3    H172442   1.911   6.842   3.901 -0.2297 -1.4077  0.8446
17009TIP3    H272443   1.909   6.855   3.750 -1.9041  2.0670  1.0835
17010TIP3   OH272444   5.864   4.116   3.035 -0.6284  0.5265 -0.2122
17010TIP3    H172445   5.887   4.203   3.068 -0.9288 -0.1221  1.8510
17010TIP3    H272446   5.933   4.095   2.972  0.6750  1.3977  0.8676
17011TIP3   OH272447   5.515   2.452  12.909  0.0909  0.3992 -0.1588
17011TIP3    H172448   5.537   2.436  12.817 -1.7019 -1.2495 -0.3541
17011TIP3    H272449   5.480   2.541  12.911  0.9418  0.7649 -0.8886
17012TIP3   OH272450   5.263   5.527  14.867  0.0116  0.0628  0.1338
17012TIP3    H172451   5.335   5.589  14.858 -0.4425  0.5147 -0.4919
17012TIP3    H272452   5.184   5.581  14.859 -0.3943 -0.6105 -0.5671
17013TIP3   OH272453   2.534   1.685   4.782  0.2604  0.5381  0.3833
17013TIP3    H172454   2.455   1.700   4.834  0.0053  0.7740 -0.0624
17013TIP3    H272455   2.514   1.606   4.730  0.6192  0.1402  0.8441
17014TIP3   OH272456   6.705   3.031  12.867  0.3516  0.5974  0.2707
17014TIP3    H172457   6.677   3.121  12.851 -0.3064  0.4228  0.4078
17014TIP3    H272458   6.799   3.032  12.850  0.3277  1.2784  0.1367
17015TIP3   OH272459   2.102   6.498   0.962 -0.0216 -0.1047  0.1040
17015TIP3    H172460   2.114   6.525   1.053 -1.7643 -0.1507  0.3822
17015TIP3    H272461   2.067   6.576   0.918 -3.3804 -1.2383  0.5102
17016TIP3   OH272462   1.075   2.899   0.938 -0.1478 -1.0405  0.2467
17016TIP3    H172463   1.016   2.961   0.981  0.0351 -1.4261  1.0905
17016TIP3    H272464   1.141   2.879   1.005  0.3382 -1.4091 -0.3327
17017TIP3   OH272465   5.814   3.093  14.284  0.3959  0.3033  0.2975
17017TIP3    H172466   5.793   3.038  14.208 -0.2984 -0.7080  1.1949
17017TIP3    H272467   5.752   3.066  14.351  0.4796  1.7394  0.9890
17018TIP3   OH272468   3.458   0.077  15.146  0.4471 -0.5482  0.3099
17018TIP3    H172469   3.502  -0.008  15.156  0.0833 -0.9563 -1.2125
17018TIP3    H272470   3.519   0.130  15.096  0.6449  0.0790  1.2032
17019TIP3   OH272471   2.781   1.865   0.984 -0.4280 -0.5264  0.0280
17019TIP3    H172472   2.784   1.862   0.889 -0.0357  0.3935  0.0011
17019TIP3    H272473   2.797   1.957   1.006 -0.5297 -0.7228  0.9793
17020TIP3   OH272474   0.959   1.064  13.909 -0.2293 -0.7240  0.0605
17020TIP3    H172475   0.882   1.119  13.919 -1.6104 -2.8183  1.7512
17020TIP3    H272476   1.027   1.123  13.877 -2.6186  1.0913 -1.9578
17021TIP3   OH272477   4.293   4.452   2.680 -0.4731 -0.4081 -0.0377
17021TIP3    H172478   4.338   4.499   2.751 -1.1510  1.2036 -0.6307
17021TIP3    H272479   4.208   4.429   2.716 -0.9457  0.7048 -0.4059
17022TIP3   OH272480   0.760   6.628  16.891  0.0386  0.0677 -0.5175
17022TIP3    H172481   0.847   6.589  16.881  0.2783  0.2942  0.4948
17022TIP3    H272482   0.707   6.558  16.931  0.2906  0.5260  0.6710
17023TIP3   OH272483   4.679   0.945  10.656  0.1762 -0.3905 -0.0137
17023TIP3    H172484   4.737   0.944  10.581  1.0488  0.1331  0.6340
17023TIP3    H272485   4.599   0.988  10.624  0.1571 -1.0469 -0.8863
17024TIP3   OH272486   6.701   1.254  13.870 -0.3540  0.2423 -0.0318
17024TIP3    H172487   6.679   1.206  13.949  0.2357 -0.6431 -0.3861
17024TIP3    H272488   6.765   1.199  13.825  0.4370  1.4248 -0.3995
17025TIP3   OH272489   3.547   0.726  12.833 -0.7092 -0.1892 -0.5057
17025TIP3    H172490   3.620   0.735  12.894 -1.5881  0.4458  0.4984
17025TIP3    H272491   3.561   0.642  12.791 -0.5105 -1.0582  1.2043
17026TIP3   OH272492   3.005   3.143  14.346  0.3727  0.5161 -0.6963
17026TIP3    H172493   2.994   3.065  14.400 -1.8357  1.1269 -0.1786
17026TIP3    H272494   3.020   3.109  14.258 -0.7418 -0.5075 -0.5145
17027TIP3   OH272495   0.530   6.306  13.491  0.1596 -0.1792  0.2963
17027TIP3    H172496   0.539   6.387  13.441 -0.1142 -0.2353  0.1575
17027TIP3    H272497   0.437   6.284  13.487  0.1252 -0.1549  0.8744
17028TIP3   OH272498   0.043   3.859   1.211 -0.3863 -1.2432 -0.4253
17028TIP3    H172499   0.029   3.807   1.290 -1.8850  0.3871  0.4532
17028TIP3    H272500   0.110   3.923   1.234 -0.4511 -1.0972 -0.6326
17029TIP3   OH272501   5.469   0.205   0.159 -0.4246 -0.0147  0.0451
17029TIP3    H172502   5.424   0.245   0.084  0.8794 -1.8204 -1.7958
17029TIP3    H272503   5.556   0.185   0.127  0.3489 -0.4414  2.2366
17030TIP3   OH272504   2.991   4.433   0.199  0.2715  0.0853 -0.3170
17030TIP3    H172505   3.021   4.381   0.124  0.5650  0.0859 -0.1990
17030TIP3    H272506   3.051   4.507   0.203 -0.4033  0.6721 -0.7488
17031TIP3   OH272507   4.166   0.625   0.983 -0.3982  0.3402  0.1892
17031TIP3    H172508   4.260   0.639   0.975 -0.6588  1.1785 -1.9030
17031TIP3    H272509   4.153   0.533   0.957 -0.0912 -0.0351  1.3172
17032TIP3   OH272510   2.087   6.723  13.165 -0.0654 -0.3023  0.0694
17032TIP3    H172511   2.068   6.716  13.072 -0.8765 -3.4185  0.3467
17032TIP3    H272512   2.113   6.814  13.178 -2.8544  1.0732 -2.6445
17033TIP3   OH272513   5.980   0.771  16.370 -0.5774 -0.1410 -0.4790
17033TIP3    H172514   6.049   0.748  16.433  1.2795  2.1016 -1.5412
17033TIP3    H272515   6.004   0.722  16.291  0.5067  1.4548 -1.1891
17034TIP3   OH272516   4.329   4.794   4.912  0.3707 -0.1884 -0.1724
17034TIP3    H172517   4.416   4.804   4.951 -0.2459  0.7062  1.0422
17034TIP3    H272518   4.317   4.873   4.859 -0.1287  0.2628  0.5829
17035TIP3   OH272519   4.520   3.108   0.218  0.5117  0.0026 -0.0588
17035TIP3    H172520   4.454   3.176   0.232  1.2300  0.7953 -0.3789
17035TIP3    H272521   4.599   3.157   0.192  1.0182 -0.9659 -0.3917
17036TIP3   OH272522   0.400   3.949   0.597  0.4195  0.2326 -0.5207
17036TIP3    H172523   0.463   3.890   0.556  0.2866  0.4749 -1.0925
17036TIP3    H272524   0.454   4.011   0.647  0.6263  0.2899 -0.8095
17037TIP3   OH272525   4.578   6.730   0.327 -0.1300 -0.7186  0.1779
17037TIP3    H172526   4.561   6.647   0.281 -1.8047  1.3108 -3.2218
17037TIP3    H272527   4.494   6.755   0.363 -0.4713  0.9626 -1.6227
17038TIP3   OH272528   0.138   5.723  16.228  0.3448 -0.5798  0.1222
17038TIP3    H172529   0.220   5.684  16.198  0.7430  0.9440 -0.8644
17038TIP3    H272530   0.141   5.714  16.324  1.7082 -0.4578  0.1079
17039TIP3   OH272531   4.280   0.746  15.674  0.1674 -0.0046  0.3143
17039TIP3    H172532   4.249   0.831  15.643  2.3738  0.9381  0.4853
17039TIP3    H272533   4.257   0.685  15.604  0.2948  1.0999 -0.7187
17040TIP3   OH272534   6.136   1.754  11.485  0.6883  0.0161 -0.0392
17040TIP3    H172535   6.167   1.800  11.562 -2.1820  0.4695  0.9793
17040TIP3    H272536   6.104   1.824  11.427  1.0645 -0.4385 -0.8181
17041TIP3   OH272537   4.238   1.077  11.228 -0.2947 -0.0303  0.6586
17041TIP3    H172538   4.332   1.067  11.245 -0.2948  1.6086  1.8584
17041TIP3    H272539   4.234   1.126  11.146 -0.2056 -2.3172 -0.8217
17042TIP3   OH272540   6.259   6.197   0.913  0.3936 -0.2391 -0.2444
17042TIP3    H172541   6.259   6.253   0.990 -1.8133  2.0173 -1.6906
17042TIP3    H272542   6.167   6.197   0.884 -0.1020 -5.6706  0.2205
17043TIP3   OH272543   1.375   0.756  12.466  0.2743  0.1385  0.2332
17043TIP3    H172544   1.301   0.768  12.406  1.0176 -1.4437 -1.0629
17043TIP3    H272545   1.452   0.770  12.412  0.9793 -1.9206  0.6207
17044TIP3   OH272546   3.549   4.190  16.394  0.1284  0.0032 -0.4136
17044TIP3    H172547   3.542   4.154  16.483  0.5535 -1.0922 -0.7970
17044TIP3    H272548   3.617   4.137  16.353 -0.8368 -0.2584 -1.7471
17045TIP3   OH272549   2.686   0.715   3.853  0.4207  0.4631  0.2238
17045TIP3    H172550   2.731   0.729   3.936  0.5314  0.2513  0.2000
17045TIP3    H272551   2.598   0.690   3.877  0.9549 -1.4589  0.3229
17046TIP3   OH272552   5.958   0.433  11.535 -0.1315 -0.1989  0.6350
17046TIP3    H172553   5.973   0.369  11.604  3.1215 -0.1766  0.0723
17046TIP3    H272554   5.967   0.518  11.578  0.4984 -0.1740  0.4584
17047TIP3   OH272555   2.131   3.161   0.396 -0.6255 -0.5565 -0.7666
17047TIP3    H172556   2.082   3.242   0.388 -0.4114 -0.2279  0.9082
17047TIP3    H272557   2.095   3.104   0.328  0.8888  1.7054 -3.7344
17048TIP3   OH272558   0.637   4.082   5.174 -0.9319  0.0228 -0.0092
17048TIP3    H172559   0.586   4.061   5.251 -0.2605 -1.3717  0.0863
17048TIP3    H272560   0.713   4.024   5.179  0.7699  2.1130 -0.0539
17049TIP3   OH272561   6.437   5.579   3.719  0.1111  0.3635 -0.3459
17049TIP3    H172562   6.509   5.605   3.777  1.9346 -3.6022 -0.4901
17049TIP3    H272563   6.359   5.584   3.774  1.1046  1.0027  1.0591
17050TIP3   OH272564   6.113   2.273   2.593 -0.5016  0.6505  0.4222
17050TIP3    H172565   6.182   2.208   2.581  0.1610  1.6980 -2.1060
17050TIP3    H272566   6.033   2.227   2.570 -0.1497  0.4401 -0.4324
17051TIP3   OH272567   0.772   6.500  12.536  0.6954  0.9751  0.4101
17051TIP3    H172568   0.734   6.511  12.623 -0.6109  0.3363 -0.0401
17051TIP3    H272569   0.767   6.405  12.520  2.1422  0.9184  0.1560
17052TIP3   OH272570   3.371   0.113  11.701 -0.0932  0.1420  0.3391
17052TIP3    H172571   3.461   0.084  11.692 -0.7806 -1.5793 -1.7220
17052TIP3    H272572   3.374   0.208  11.687  1.1739 -0.1707 -1.9503
17053TIP3   OH272573   3.585   5.340   4.173 -0.0578 -0.1714  0.0072
17053TIP3    H172574   3.575   5.410   4.237 -0.4746  0.3212 -0.5855
17053TIP3    H272575   3.496   5.313   4.152  0.0926 -0.7309  0.0681
17054TIP3   OH272576   1.614   1.968   0.024 -0.5132  0.5036 -0.1276
17054TIP3    H172577   1.554   2.025   0.072  0.1746  1.5897 -0.5191
17054TIP3    H272578   1.696   1.971   0.074 -0.3363  0.2126 -0.3896
17055TIP3   OH272579   0.880   5.935   5.540  0.0261  0.1470  0.0316
17055TIP3    H172580   0.913   5.846   5.543 -0.0887  0.0887 -0.3198
17055TIP3    H272581   0.886   5.967   5.630 -1.9622 -0.9560  0.6209
17056TIP3   OH272582   4.175   3.894  16.696 -0.2940  0.0938  0.0406
17056TIP3    H172583   4.125   3.939  16.627  0.0801  0.0528 -0.2605
17056TIP3    H272584   4.265   3.924  16.684 -0.2161  0.0497  0.4867
17057TIP3   OH272585   1.535   6.172   1.341 -0.2320  0.0067 -0.5528
17057TIP3    H172586   1.518   6.079   1.357 -4.8085  0.5692 -0.8466
17057TIP3    H272587   1.517   6.184   1.248  0.5747  1.1730 -0.5846
17058TIP3   OH272588   0.356   3.512   3.531  0.5975  0.2009  0.3822
17058TIP3    H172589   0.317   3.508   3.444  0.1737 -0.2786  0.5898
17058TIP3    H272590   0.358   3.421   3.561 -0.1149  0.4558  1.2414
17059TIP3   OH272591   3.582   1.922  13.355  0.2038 -0.1569  0.4214
17059TIP3    H172592   3.522   1.877  13.413 -0.1245 -0.6944 -0.3196
17059TIP3    H272593   3.666   1.876  13.367  0.3162  0.1865  0.9828
17060TIP3   OH272594   1.232   2.999   5.213 -0.2795 -0.4514 -0.2066
17060TIP3    H172595   1.300   3.010   5.279  1.0281  0.0397 -1.5919
17060TIP3    H272596   1.228   2.905   5.197  0.7686 -0.3971 -0.8158
17061TIP3   OH272597   1.300   5.195  16.362  0.1371 -0.2825 -0.4185
17061TIP3    H172598   1.223   5.207  16.419  0.7593  1.8368  0.0557
17061TIP3    H272599   1.335   5.110  16.387 -1.0533 -0.5041  0.5945
17062TIP3   OH272600   0.146   5.418   2.688  0.3280  0.6563 -0.0758
17062TIP3    H172601   0.215   5.431   2.624 -0.7679  3.1522 -0.8620
17062TIP3    H272602   0.165   5.480   2.759 -1.5094  2.0690 -0.7328
17063TIP3   OH272603   0.575   4.653   0.578 -0.1980  0.2506  0.4129
17063TIP3    H172604   0.640   4.711   0.618 -0.6134  0.7589  0.3439
17063TIP3    H272605   0.513   4.711   0.535  0.4789 -0.2750 -1.3827
17064TIP3   OH272606   0.741   4.469   0.947 -0.1090  0.2701 -0.9456
17064TIP3    H172607   0.801   4.527   0.994 -0.6586  0.9240 -1.0435
17064TIP3    H272608   0.661   4.470   0.999 -0.8243  1.2226 -2.0171
17065TIP3   OH272609   3.698   3.396  15.511 -0.3896 -0.9964 -0.3749
17065TIP3    H172610   3.787   3.417  15.539 -0.6563 -1.7653  1.1215
17065TIP3    H272611   3.703   3.399  15.415  1.0587 -0.3187 -0.3190
17066TIP3   OH272612   4.982   4.768   3.505 -0.0082 -0.6893 -0.0673
17066TIP3    H172613   5.074   4.768   3.481 -0.0696 -0.2466 -0.2978
17066TIP3    H272614   4.935   4.768   3.422 -0.2420  2.9156 -0.0657
17067TIP3   OH272615   6.022   1.994  14.902  0.0843  0.1329  0.3370
17067TIP3    H172616   5.933   1.962  14.919  0.9180 -2.4617  0.2965
17067TIP3    H272617   6.042   2.050  14.977 -0.9052 -0.7857  1.3317
17068TIP3   OH272618   0.730   1.790   3.607  0.4330  0.5235 -0.4714
17068TIP3    H172619   0.784   1.864   3.578 -1.3982  2.0347 -0.2020
17068TIP3    H272620   0.644   1.807   3.569 -1.2922  0.9986  3.2310
17069TIP3   OH272621   4.578   5.082  12.700 -0.2353  0.2650  0.5331
17069TIP3    H172622   4.567   5.013  12.634 -0.5607 -1.0543  1.9203
17069TIP3    H272623   4.583   5.035  12.783  0.3871  1.8797  1.4443
17070TIP3   OH272624   3.762   1.257  16.719  0.5157 -0.3481  0.4959
17070TIP3    H172625   3.783   1.180  16.667  0.1659  0.1744 -0.4340
17070TIP3    H272626   3.734   1.221  16.804  0.8153 -1.2161  0.2362
17071TIP3   OH272627   2.666   3.059  12.154  0.2801  0.1890  0.1552
17071TIP3    H172628   2.586   3.073  12.103 -0.4915 -1.8023  0.7519
17071TIP3    H272629   2.678   3.141  12.202 -0.8886  0.8495 -0.6272
17072TIP3   OH272630   3.538   5.891  13.675  0.9130 -0.1489 -0.2253
17072TIP3    H172631   3.502   5.964  13.725 -0.2827 -0.8354 -0.0535
17072TIP3    H272632   3.629   5.915  13.660  0.9590  0.6632  1.1764
17073TIP3   OH272633   2.473   2.969   0.269  0.2520  0.4666  0.2045
17073TIP3    H172634   2.492   2.888   0.317  1.3092  0.3640 -0.3487
17073TIP3    H272635   2.386   2.955   0.231  0.8438 -0.8760 -0.7540
17074TIP3   OH272636   3.262   3.720  11.453 -0.2323 -0.0476 -0.2309
17074TIP3    H172637   3.308   3.732  11.369 -0.6918  0.9666 -0.3420
17074TIP3    H272638   3.306   3.645  11.493  2.6264  1.8061  0.3869
17075TIP3   OH272639   2.852   3.553   4.203 -0.4364  0.1033 -0.0080
17075TIP3    H172640   2.930   3.525   4.154 -0.2446  0.3862  0.1282
17075TIP3    H272641   2.778   3.518   4.154 -0.2462  0.4375 -0.5363
17076TIP3   OH272642   5.618   6.114   4.633  0.3494 -1.1578 -0.1940
17076TIP3    H172643   5.523   6.114   4.622  0.2311  1.9635 -0.2088
17076TIP3    H272644   5.633   6.070   4.716 -1.3836  0.5247  1.0963
17077TIP3   OH272645   3.935   6.742  16.014  0.2384 -0.0015 -0.1784
17077TIP3    H172646   3.948   6.663  16.066 -1.5271 -0.0016  0.3148
17077TIP3    H272647   3.852   6.727  15.969 -0.8984  2.1513  1.0610
17078TIP3   OH272648   5.085   6.301   1.489 -0.2243  0.4817 -0.1865
17078TIP3    H172649   4.997   6.337   1.484 -0.1605  0.8773  1.1637
17078TIP3    H272650   5.077   6.226   1.549 -0.1146 -1.0629 -1.9968
17079TIP3   OH272651   2.578   1.609  15.982  0.2768  0.0404 -0.3001
17079TIP3    H172652   2.611   1.633  16.068 -3.2621  0.0901  1.2533
17079TIP3    H272653   2.583   1.689  15.930  0.9171  0.4709  0.4198
17080TIP3   OH272654   4.481   4.742   3.933 -0.6455 -0.1186 -0.3317
17080TIP3    H172655   4.480   4.837   3.941 -0.1871  0.0140 -1.6422
17080TIP3    H272656   4.432   4.724   3.853 -0.5099 -0.9730 -0.2343
17081TIP3   OH272657   2.445   5.323   6.343 -0.2677 -0.6916 -0.8919
17081TIP3    H172658   2.539   5.332   6.359 -0.2241 -0.2295 -1.3504
17081TIP3    H272659   2.413   5.271   6.416  0.0098  0.7787  0.3398
17082TIP3   OH272660   1.919   5.249  11.366  0.4230 -0.5101 -0.2525
17082TIP3    H172661   1.836   5.296  11.365  0.5471 -0.2331  1.1389
17082TIP3    H272662   1.951   5.255  11.276 -0.2483  0.8133 -0.4176
17083TIP3   OH272663   1.732   3.774  11.933 -0.8690 -0.0862  0.2330
17083TIP3    H172664   1.721   3.834  11.860  0.0760  0.0422  0.1848
17083TIP3    H272665   1.667   3.802  11.997 -1.7053 -0.1994 -0.5486
17084TIP3   OH272666   6.119   5.777  11.183  0.5175  0.0837 -0.6059
17084TIP3    H172667   6.096   5.821  11.264  0.9951 -3.6945  1.8335
17084TIP3    H272668   6.035   5.752  11.144  0.2887 -0.9174  0.4942
17085TIP3   OH272669   2.948   0.325  14.401 -0.1519  0.0538  0.6092
17085TIP3    H172670   2.940   0.232  14.422  0.2143 -0.1436 -0.0876
17085TIP3    H272671   3.024   0.354  14.451 -0.8960  0.2372  1.6548
17086TIP3   OH272672   1.575   0.020   6.204 -0.0460  0.2166  0.2592
17086TIP3    H172673   1.638  -0.027   6.258  0.8466  1.9627  0.7887
17086TIP3    H272674   1.578   0.110   6.236 -2.2904  0.4999 -0.1960
17087TIP3   OH272675   5.288   2.993   4.211 -0.4134  0.0286 -0.0438
17087TIP3    H172676   5.337   2.911   4.215 -0.9818 -0.2848  1.6660
17087TIP3    H272677   5.199   2.969   4.238 -1.1671  0.8360 -1.6888
17088TIP3   OH272678   2.907   5.971  13.220 -0.1873  0.3711 -0.7136
17088TIP3    H172679   2.974   5.933  13.162 -0.3058  0.6066 -1.0076
17088TIP3    H272680   2.956   6.014  13.289 -0.0338  0.5498 -0.9336
17089TIP3   OH272681   1.069   5.841  13.814  0.2027 -0.2397  0.0411
17089TIP3    H172682   1.068   5.893  13.734  0.8956  1.1041  0.8463
17089TIP3    H272683   0.983   5.854  13.853 -0.5069 -1.7509 -0.9830
17090TIP3   OH272684   0.492   6.575   5.755  0.0528 -0.0944  0.0967
17090TIP3    H172685   0.547   6.610   5.685 -1.1047  1.4291 -0.1075
17090TIP3    H272686   0.548   6.576   5.833  0.4769  0.9374 -0.2070
17091TIP3   OH272687   6.663   4.426   5.702  0.2972 -0.8498  0.2932
17091TIP3    H172688   6.693   4.500   5.755 -0.8165 -0.3013  0.1894
17091TIP3    H272689   6.673   4.350   5.760  1.3039 -0.6120  0.4540
17092TIP3   OH272690   2.161   0.762  14.617 -0.4431 -0.1289  0.3312
17092TIP3    H172691   2.205   0.794  14.539 -0.4497  0.7811  0.6851
17092TIP3    H272692   2.223   0.701  14.657  0.1281  0.4303  0.3264
17093TIP3   OH272693   5.246   1.666  17.136  0.0514 -0.6406  0.3851
17093TIP3    H172694   5.290   1.733  17.084 -1.5728  0.4113  0.2875
17093TIP3    H272695   5.292   1.585  17.114 -0.0164 -0.1035 -2.0590
17094TIP3   OH272696   1.105   0.575   2.362 -0.0693 -0.2457  0.1113
17094TIP3    H172697   1.018   0.571   2.323  0.1545  1.0787 -0.5896
17094TIP3    H272698   1.132   0.483   2.370 -1.0229 -0.6320 -0.8250
17095TIP3   OH272699   1.172   1.728   5.907 -0.0213 -0.1948  0.4262
17095TIP3    H172700   1.084   1.762   5.925 -0.5925 -2.3738  2.1020
17095TIP3    H272701   1.216   1.730   5.992  1.6377  0.9509 -0.4048
17096TIP3   OH272702   5.158   5.486  13.270  0.1078 -0.2170  0.2743
17096TIP3    H172703   5.104   5.407  13.277  0.5265 -0.6032 -0.6366
17096TIP3    H272704   5.126   5.544  13.339  1.3039 -2.0942  2.5717
17097TIP3   OH272705   4.126   2.275  14.304  0.6706 -0.5528  0.3185
17097TIP3    H172706   4.057   2.340  14.321  0.0714 -1.3427  0.9421
17097TIP3    H272707   4.086   2.213  14.243  1.5679  0.1720 -1.0692
17098TIP3   OH272708   3.326   0.614  14.842 -0.5513 -0.3447 -0.5912
17098TIP3    H172709   3.406   0.646  14.885  0.9663 -2.2498 -1.8362
17098TIP3    H272710   3.275   0.576  14.913 -0.9952  1.9397  0.4259
17099TIP3   OH272711   5.050   4.659   5.235  0.1072 -0.5884  0.1930
17099TIP3    H172712   5.040   4.753   5.254  2.3896 -0.1249 -0.6137
17099TIP3    H272713   5.023   4.650   5.144  0.1248 -0.6709  0.1958
17100TIP3   OH272714   1.239   3.476  12.049  0.5041  0.1583  0.1518
17100TIP3    H172715   1.251   3.501  12.140 -1.6859  1.3297  0.1779
17100TIP3    H272716   1.165   3.416  12.049  0.9670 -0.4397 -0.7733
17101TIP3   OH272717   4.863   0.711  16.491  0.1558  0.1919 -0.3610
17101TIP3    H172718   4.784   0.669  16.455 -1.6250  2.9727  0.0141
17101TIP3    H272719   4.853   0.703  16.586  0.2984  0.5769 -0.3117
17102TIP3   OH272720   0.926   1.496  11.026 -0.4808 -0.9625  0.5672
17102TIP3    H172721   0.844   1.449  11.040 -1.2398  0.3643  0.7002
17102TIP3    H272722   0.959   1.514  11.114 -0.9650  0.0641  0.5424
17103TIP3   OH272723   2.633   5.421  11.535 -0.8324 -0.1679 -0.5262
17103TIP3    H172724   2.578   5.373  11.597  1.7185 -0.9370  1.3072
17103TIP3    H272725   2.659   5.357  11.469 -0.5786 -0.3060 -0.2927
17104TIP3   OH272726   4.238   0.965  14.851  0.2952 -0.6474  0.5456
17104TIP3    H172727   4.236   0.980  14.945 -1.7206  0.7716  0.3472
17104TIP3    H272728   4.203   1.046  14.812 -0.5766 -1.8209 -1.2934
17105TIP3   OH272729   6.156   6.219   1.386 -0.2281 -0.1429  0.0865
17105TIP3    H172730   6.095   6.194   1.456 -0.6162 -0.3347 -0.3107
17105TIP3    H272731   6.106   6.206   1.306  0.5113 -0.7989 -0.2798
17106TIP3   OH272732   1.192   6.088   3.805  0.5245 -0.4279 -0.4171
17106TIP3    H172733   1.098   6.097   3.790  0.3217 -1.1100  0.3957
17106TIP3    H272734   1.231   6.161   3.756 -0.4163 -0.1753 -0.8085
17107TIP3   OH272735   5.271   2.153  16.964  0.3342  0.3954  0.5510
17107TIP3    H172736   5.193   2.172  16.911 -0.7634  0.7231  2.2313
17107TIP3    H272737   5.239   2.145  17.053  1.8894 -1.8492  1.0002
17108TIP3   OH272738   2.920   6.198   4.661  0.6546 -0.0636  0.2781
17108TIP3    H172739   2.869   6.157   4.590  1.9105 -0.1253 -0.6173
17108TIP3    H272740   2.975   6.127   4.695  1.2315  0.3548  0.2224
17109TIP3   OH272741   2.074   4.365  10.147 -0.7632 -0.0550  0.1015
17109TIP3    H172742   2.063   4.411  10.230 -1.5900 -0.1983  0.0782
17109TIP3    H272743   2.043   4.426  10.080  0.6874  0.3844 -0.1993
17110TIP3   OH272744   6.293   5.255  11.946  0.7402  0.8348  0.0493
17110TIP3    H172745   6.204   5.233  11.917  0.2130  0.8470  1.5222
17110TIP3    H272746   6.309   5.194  12.019  1.8488  1.0086 -0.0311
17111TIP3   OH272747   5.217   2.530   5.103  0.2845  0.3981  0.0326
17111TIP3    H172748   5.147   2.489   5.051  0.0256  1.5026 -0.5278
17111TIP3    H272749   5.180   2.536   5.191  0.1628 -0.1719  0.0256
17112TIP3   OH272750   3.037   1.689  10.572  0.1171  0.3591 -0.1688
17112TIP3    H172751   3.046   1.729  10.659 -1.5869  0.5447 -0.0362
17112TIP3    H272752   3.097   1.739  10.516  0.7258  0.6931  0.7576
17113TIP3   OH272753   2.714   4.532  12.932 -0.2520  0.1731  0.2960
17113TIP3    H172754   2.708   4.624  12.904  0.7600  0.1276 -0.1102
17113TIP3    H272755   2.794   4.500  12.891 -1.7291 -1.5533 -1.3614
17114TIP3   OH272756   2.256   3.423  11.483 -0.7093 -0.2281 -0.2716
17114TIP3    H172757   2.274   3.514  11.507 -1.4736 -0.2385  0.4171
17114TIP3    H272758   2.229   3.427  11.391 -1.2993  0.3230 -0.0821
17115TIP3   OH272759   6.329   3.330   4.948 -0.0894 -0.5667 -0.7350
17115TIP3    H172760   6.382   3.408   4.962  1.2130 -1.3708 -0.9335
17115TIP3    H272761   6.319   3.323   4.853 -2.1448  0.5597 -0.6522
17116TIP3   OH272762   0.831   1.614  11.484  0.1804  0.2912 -0.1715
17116TIP3    H172763   0.759   1.631  11.544  0.3799 -1.1679  0.5283
17116TIP3    H272764   0.795   1.630  11.397 -1.2995 -1.2831  0.0992
17117TIP3   OH272765   2.120   4.758  11.676 -0.0409  0.3291 -0.0255
17117TIP3    H172766   2.173   4.693  11.632  0.8816  1.0061  0.0569
17117TIP3    H272767   2.104   4.825  11.610 -1.6110 -0.2969 -0.3305
17118TIP3   OH272768   4.693   3.098   2.378 -0.3427  0.0105 -0.3115
17118TIP3    H172769   4.679   3.139   2.293  0.7791 -0.4360 -0.7376
17118TIP3    H272770   4.637   3.020   2.376  0.7155 -0.7681 -1.2365
17119TIP3   OH272771   1.691   4.811  11.469  0.2909  0.0860 -0.0607
17119TIP3    H172772   1.598   4.815  11.445 -0.9333  0.5289  3.8634
17119TIP3    H272773   1.712   4.900  11.497  1.4277 -0.3485  0.5163
17120TIP3   OH272774   3.874   5.461  14.651 -0.1199  0.1970 -0.1627
17120TIP3    H172775   3.910   5.434  14.566  0.1194 -0.8960  0.2686
17120TIP3    H272776   3.886   5.384  14.707  1.6361  1.5656  1.4619
17121TIP3   OH272777   0.002   1.171   1.050  0.5275  0.6063 -0.0500
17121TIP3    H172778  -0.020   1.080   1.032  1.3914  0.5209 -0.7816
17121TIP3    H272779  -0.049   1.221   0.986 -1.3717  0.8116  1.5323
17122TIP3   OH272780   4.080   4.109   1.466  0.1422 -0.3153 -0.1996
17122TIP3    H172781   4.164   4.094   1.422 -0.0178  0.3517 -0.7475
17122TIP3    H272782   4.100   4.173   1.535  0.1995 -0.6185  0.0676
17123TIP3   OH272783   1.231   5.450   3.779 -0.3327 -0.2771 -0.0617
17123TIP3    H172784   1.230   5.545   3.772 -0.4556 -0.2643  0.1248
17123TIP3    H272785   1.322   5.428   3.798 -0.6664 -0.0316  2.1039
17124TIP3   OH272786   0.642   3.723  16.256  0.4576 -0.1318 -0.0508
17124TIP3    H172787   0.682   3.727  16.169  1.5071 -0.2017  0.4187
17124TIP3    H272788   0.594   3.640  16.257  1.3516 -0.6572 -0.1847
17125TIP3   OH272789   2.347   4.744   2.445 -0.6761 -0.6523  0.2972
17125TIP3    H172790   2.402   4.689   2.389 -0.8957  0.6985 -1.3217
17125TIP3    H272791   2.335   4.825   2.395 -2.3205 -0.0523  1.5709
17126TIP3   OH272792   3.416   1.028  11.085 -0.3376 -0.1803  0.4675
17126TIP3    H172793   3.336   1.018  11.034  0.6582 -0.1699 -1.1878
17126TIP3    H272794   3.485   1.037  11.019  1.1753 -1.2721  1.8081
17127TIP3   OH272795   0.568   1.282   4.468 -0.0388  0.7446  0.3239
17127TIP3    H172796   0.620   1.242   4.538  0.6552 -0.7366 -0.9686
17127TIP3    H272797   0.609   1.252   4.387 -0.9686  2.1985 -0.7476
17128TIP3   OH272798   4.333   4.985  13.813 -0.1053  0.2562 -0.2857
17128TIP3    H172799   4.371   4.928  13.880  0.8190  2.6894  1.3916
17128TIP3    H272800   4.253   5.019  13.853  0.6616  2.0477 -0.1633
17129TIP3   OH272801   4.158   0.256  11.969 -0.2379  0.4580  0.1043
17129TIP3    H172802   4.085   0.257  11.906 -0.1224  2.7970 -0.0893
17129TIP3    H272803   4.235   0.268  11.914  0.1010  0.0664  0.4959
17130TIP3   OH272804   1.052   6.016   1.566 -0.1000  0.4569  0.2379
17130TIP3    H172805   1.076   6.002   1.658  1.6046 -1.1455 -0.3885
17130TIP3    H272806   0.965   5.977   1.558  0.8891 -2.0398  0.6172
17131TIP3   OH272807   2.803   5.353   1.424  0.3129 -0.0847 -0.2791
17131TIP3    H172808   2.763   5.272   1.394 -0.1969  0.4974 -1.2047
17131TIP3    H272809   2.738   5.392   1.482  1.6773 -1.6894  2.5441
17132TIP3   OH272810   5.235   0.960   5.759  0.3440  0.1367 -0.2918
17132TIP3    H172811   5.307   0.915   5.804 -0.2691 -1.1096 -0.5251
17132TIP3    H272812   5.214   1.034   5.816  0.8338 -0.3451  0.5327
17133TIP3   OH272813   0.884   4.088   2.114 -0.8799 -0.8410  0.5476
17133TIP3    H172814   0.960   4.083   2.172  0.2347 -0.5695 -0.8393
17133TIP3    H272815   0.862   4.181   2.112 -0.1612 -0.6803 -0.3814
17134TIP3   OH272816   3.290   3.415  14.974  0.9073 -0.1209 -0.4080
17134TIP3    H172817   3.328   3.359  15.042  0.0914 -0.9392 -0.6174
17134TIP3    H272818   3.199   3.387  14.967  0.8975  0.1664 -1.6255
17135TIP3   OH272819   2.357   6.667   0.279  0.3618  0.6795  0.3683
17135TIP3    H172820   2.262   6.653   0.276  0.7834 -3.2319 -1.1538
17135TIP3    H272821   2.372   6.740   0.218 -1.6834  2.1965  1.5676
17136TIP3   OH272822   5.194   0.029   1.730  0.8098  0.3355 -0.4251
17136TIP3    H172823   5.158   0.004   1.646  2.9346  1.5451 -1.7943
17136TIP3    H272824   5.275  -0.022   1.737  0.4864 -0.0217  1.0901
17137TIP3   OH272825   4.986   3.777  16.681  0.2018  0.2965  0.1853
17137TIP3    H172826   4.975   3.871  16.664  0.8474  0.2757 -0.4034
17137TIP3    H272827   4.988   3.737  16.594  0.7911 -0.1572  0.4011
17138TIP3   OH272828   1.754   4.521   2.578  1.0766  0.4826  0.2032
17138TIP3    H172829   1.811   4.598   2.569  2.4663 -0.3900  1.1656
17138TIP3    H272830   1.784   4.461   2.510  0.7660  0.3233  0.2055
17139TIP3   OH272831   1.984   0.032  16.677  0.1270  0.1578  0.3215
17139TIP3    H172832   1.894   0.016  16.707  1.0934 -2.0747  2.4591
17139TIP3    H272833   2.010   0.112  16.722 -0.6531  0.5929  0.0205
17140TIP3   OH272834   2.090   5.256  11.143 -0.6862 -0.0943  0.1756
17140TIP3    H172835   2.159   5.278  11.206 -0.1259  0.5521 -0.6525
17140TIP3    H272836   2.041   5.337  11.132 -0.7957 -0.2150 -0.2234
17141TIP3   OH272837   5.257   4.120   1.316 -0.3811 -0.1646  0.0780
17141TIP3    H172838   5.212   4.055   1.262  0.6573 -0.2560 -0.7063
17141TIP3    H272839   5.329   4.151   1.261 -0.9905  1.8400  0.3285
17142TIP3   OH272840   0.349   4.737  15.282  0.4482  0.0683  0.4047
17142TIP3    H172841   0.424   4.686  15.310  0.4803 -0.2791 -0.2944
17142TIP3    H272842   0.324   4.699  15.197 -0.5754  0.1053  0.6707
17143TIP3   OH272843   2.769   2.125   4.600 -0.3620 -0.1019  0.1670
17143TIP3    H172844   2.754   2.033   4.622 -0.1440 -0.7957 -2.2528
17143TIP3    H272845   2.695   2.149   4.544 -0.1581  1.0508  0.3568
17144TIP3   OH272846   3.868   0.472   2.432 -0.5788 -0.1768  0.2473
17144TIP3    H172847   3.777   0.495   2.410 -0.6601  0.0881  0.8650
17144TIP3    H272848   3.895   0.537   2.497  0.6146  0.7755 -1.1236
17145TIP3   OH272849   4.593   3.102   6.219  0.5832 -0.1174  0.6789
17145TIP3    H172850   4.595   3.197   6.235  0.5029  0.1812 -0.8906
17145TIP3    H272851   4.599   3.063   6.306  1.7186  1.3165  1.2937
17146TIP3   OH272852   2.328   0.607   3.016 -0.0147  0.2173 -0.7479
17146TIP3    H172853   2.373   0.566   3.090  1.0949 -1.0102 -2.0618
17146TIP3    H272854   2.390   0.672   2.983  0.8604 -1.4614 -2.5523
17147TIP3   OH272855   2.243   5.844  15.863 -0.0766 -0.2668  0.3591
17147TIP3    H172856   2.255   5.917  15.923 -0.1154  0.4063 -0.4284
17147TIP3    H272857   2.312   5.856  15.797  0.4625 -1.4344  0.6827
17148TIP3   OH272858   1.209   5.324  14.405 -0.1006 -0.3581 -0.4855
17148TIP3    H172859   1.146   5.395  14.416  2.5774  2.3098 -1.0027
17148TIP3    H272860   1.189   5.263  14.476 -1.7402  1.5648  0.8277
17149TIP3   OH272861   1.749   2.386   2.233 -0.5626  0.0993 -0.2364
17149TIP3    H172862   1.825   2.327   2.233 -1.1145 -0.6810  1.3971
17149TIP3    H272863   1.686   2.344   2.174  0.2050  0.6825 -1.4966
17150TIP3   OH272864   0.001   4.866  16.826 -0.2175 -0.2342  0.1812
17150TIP3    H172865   0.046   4.948  16.807 -0.3425  0.0256  0.9548
17150TIP3    H272866  -0.052   4.849  16.748  0.2013  0.1542 -0.1903
17151TIP3   OH272867   4.595   6.217  13.845 -0.2364 -0.0717  0.4124
17151TIP3    H172868   4.652   6.142  13.864 -0.6130 -0.8261 -1.2542
17151TIP3    H272869   4.634   6.289  13.895  3.3819 -0.0690 -2.0274
17152TIP3   OH272870   0.395   2.151   0.661 -0.4481 -0.2623  0.3368
17152TIP3    H172871   0.353   2.207   0.726 -1.8401  2.9722 -2.9532
17152TIP3    H272872   0.484   2.185   0.654 -0.4030 -0.3847  0.3110
17153TIP3   OH272873   1.781   1.412   2.129 -0.1240 -0.0865  0.6783
17153TIP3    H172874   1.865   1.458   2.142  1.2351 -2.3179  0.2863
17153TIP3    H272875   1.792   1.329   2.174 -2.3442 -0.2533  1.0034
17154TIP3   OH272876   6.466   6.672   0.723 -0.1653 -0.4861 -0.2729
17154TIP3    H172877   6.554   6.703   0.703 -0.4593  0.7727  0.2540
17154TIP3    H272878   6.409   6.745   0.697 -0.9411 -0.7953  0.5154
17155TIP3   OH272879   0.813   3.371   2.631  0.4361 -0.5825  0.4258
17155TIP3    H172880   0.902   3.337   2.636  0.2370 -1.3025 -0.4557
17155TIP3    H272881   0.791   3.365   2.538 -0.8513 -1.2711  0.7521
17156TIP3   OH272882   5.044   2.627  14.319 -0.4288  0.5743 -0.4547
17156TIP3    H172883   5.056   2.722  14.312 -0.7383  0.5980 -0.7280
17156TIP3    H272884   4.997   2.615  14.401  0.3269  0.5850 -0.0138
17157TIP3   OH272885   1.439   0.679   2.450  0.2077 -0.2859  1.1111
17157TIP3    H172886   1.390   0.627   2.513  0.5602 -0.9071  0.8810
17157TIP3    H272887   1.388   0.759   2.440 -0.8659 -1.0026  0.7195
17158TIP3   OH272888   6.556   2.784  16.771 -0.2356  0.1041 -0.0075
17158TIP3    H172889   6.488   2.851  16.782  0.6006  0.7283  1.6310
17158TIP3    H272890   6.548   2.756  16.680 -1.1139  1.8799 -0.5013
17159TIP3   OH272891   5.487   1.451  11.709  0.0660 -0.0753  0.1420
17159TIP3    H172892   5.576   1.418  11.702 -0.1632 -0.4384 -1.3042
17159TIP3    H272893   5.431   1.374  11.699 -0.4394  0.4710 -1.6170
17160TIP3   OH272894   3.021   5.872  14.040 -0.1336 -0.2368 -0.2973
17160TIP3    H172895   3.002   5.906  14.128 -1.2438 -1.7194  0.0842
17160TIP3    H272896   3.110   5.837  14.047  0.4158  1.1041 -0.2570
17161TIP3   OH272897   5.814   6.475   1.895 -0.4205  0.6651 -0.0841
17161TIP3    H172898   5.753   6.494   1.966 -0.6831 -0.0184 -0.1266
17161TIP3    H272899   5.848   6.388   1.914 -0.5980  0.4172 -0.8724
17162TIP3   OH272900   2.283   0.812  13.061  0.1062 -0.6586 -0.6023
17162TIP3    H172901   2.324   0.889  13.023 -0.5745 -0.4923 -1.0108
17162TIP3    H272902   2.300   0.742  12.998  0.8215 -0.8760 -0.1784
17163TIP3   OH272903   2.911   1.430  11.775  0.2369  0.5350 -0.4557
17163TIP3    H172904   2.865   1.488  11.835  0.7358 -0.0251  0.4777
17163TIP3    H272905   2.970   1.378  11.830  1.8373  1.0586 -1.5842
17164TIP3   OH272906   0.031   4.814   4.269  0.0113 -0.0563 -0.2794
17164TIP3    H172907  -0.050   4.764   4.258 -0.3074  0.3219  0.3036
17164TIP3    H272908   0.001   4.903   4.287  0.5712  0.3264 -1.1957
17165TIP3   OH272909   3.505   3.743  13.272 -0.2216 -0.4503 -0.2446
17165TIP3    H172910   3.521   3.725  13.179 -0.8822 -1.2293 -0.2192
17165TIP3    H272911   3.531   3.663  13.317  0.2179 -0.0293  0.2613
17166TIP3   OH272912   0.418   1.304   3.956  0.4203 -0.2124  0.0959
17166TIP3    H172913   0.479   1.377   3.946 -0.1804  0.1667 -0.9889
17166TIP3    H272914   0.469   1.236   4.001  1.6506  0.0809 -0.7909
17167TIP3   OH272915   2.848   1.424  13.154 -0.6954 -0.0418  0.3285
17167TIP3    H172916   2.777   1.458  13.209 -0.5936 -1.5509  1.4672
17167TIP3    H272917   2.806   1.358  13.099 -0.3103 -0.4845  0.5550
17168TIP3   OH272918   2.971   1.315  14.369  0.2236 -0.2012  0.4858
17168TIP3    H172919   2.893   1.366  14.351  2.5264  3.1266 -1.1102
17168TIP3    H272920   3.013   1.303  14.284  2.6573  0.3701  1.5015
17169TIP3   OH272921   3.786   0.428   4.376 -0.3153 -0.4400 -0.2582
17169TIP3    H172922   3.755   0.405   4.464  1.1714 -1.6215  0.0011
17169TIP3    H272923   3.720   0.487   4.342  0.3825  2.3284  2.7232
17170TIP3   OH272924   0.581   4.972  11.402 -0.6060  0.1407  0.6237
17170TIP3    H172925   0.542   4.902  11.455 -1.4656 -0.9752 -1.3936
17170TIP3    H272926   0.671   4.943  11.387 -1.1075 -0.8510 -0.6431
17171TIP3   OH272927   2.311   3.372  12.395 -0.4512 -0.0309  0.0237
17171TIP3    H172928   2.320   3.286  12.352 -1.8412 -0.1648 -0.0454
17171TIP3    H272929   2.248   3.357  12.465 -0.2472  0.8117  0.3953
17172TIP3   OH272930   0.721   3.498  11.879 -0.2223  0.2484 -0.3318
17172TIP3    H172931   0.637   3.500  11.833 -0.1162 -0.4735 -0.5751
17172TIP3    H272932   0.699   3.470  11.968 -0.1751 -0.6166 -0.5796
17173TIP3   OH272933   0.286   5.774  15.572  0.0849 -1.1464  0.5227
17173TIP3    H172934   0.361   5.716  15.558  0.5636 -0.4750  0.2797
17173TIP3    H272935   0.219   5.743  15.510  0.8198 -0.6081 -0.5788
17174TIP3   OH272936   3.933   5.784  16.141 -0.3102 -0.1762 -0.2985
17174TIP3    H172937   3.851   5.833  16.141 -0.2634 -0.0968 -0.1700
17174TIP3    H272938   3.990   5.832  16.202  0.3675  0.6663 -1.5383
17175TIP3   OH272939   5.708   3.844  15.584 -0.4594  0.0931 -0.2644
17175TIP3    H172940   5.707   3.873  15.493 -0.9688  0.1154 -0.2561
17175TIP3    H272941   5.625   3.876  15.620 -0.7715 -0.8670 -0.0984
17176TIP3   OH272942   6.659   0.314  14.116 -0.0311 -0.8641  0.4606
17176TIP3    H172943   6.565   0.294  14.119 -0.3212  0.4339  0.9372
17176TIP3    H272944   6.689   0.300  14.206 -0.5571  2.0063  1.1916
17177TIP3   OH272945   4.526   0.293  13.964  0.1553 -0.4335  0.0512
17177TIP3    H172946   4.493   0.382  13.977  0.7733  0.0999 -1.7615
17177TIP3    H272947   4.450   0.242  13.938  0.0894 -0.0356 -0.5534
17178TIP3   OH272948   1.650   6.684   2.391  0.1126  0.4987  0.6718
17178TIP3    H172949   1.657   6.675   2.296  2.0776  0.1148  0.7958
17178TIP3    H272950   1.574   6.740   2.405 -0.3329  0.3941 -1.1108
17179TIP3   OH272951   6.020   6.383  13.188 -0.0143  0.9270  0.4417
17179TIP3    H172952   6.036   6.477  13.182 -1.0670  1.0537 -3.1094
17179TIP3    H272953   5.942   6.375  13.243 -0.3380  2.2169  0.1977
17180TIP3   OH272954   1.655   3.020   2.988  0.3492 -0.6002  0.0263
17180TIP3    H172955   1.713   2.973   2.928 -0.5634  0.2049 -1.5558
17180TIP3    H272956   1.711   3.047   3.060  1.7959 -0.4349 -1.1185
17181TIP3   OH272957   2.065   4.575  14.695 -0.1134 -0.2556 -0.2875
17181TIP3    H172958   2.069   4.617  14.781 -0.7859 -1.2529  0.2457
17181TIP3    H272959   1.994   4.621  14.649 -0.3627 -0.3235  0.0269
17182TIP3   OH272960   0.758   0.417  11.066 -0.1505 -0.3185 -0.2249
17182TIP3    H172961   0.781   0.489  11.007  1.6053 -1.2664 -0.7538
17182TIP3    H272962   0.734   0.460  11.148 -2.5748  1.0289 -1.5214
17183TIP3   OH272963   5.274   3.471   5.534 -0.3472 -0.2129 -0.0896
17183TIP3    H172964   5.221   3.518   5.470  0.6389  0.7389 -0.2337
17183TIP3    H272965   5.264   3.522   5.614 -1.5626 -1.3843  0.5694
17184TIP3   OH272966   0.380   0.889  12.407 -0.5667 -0.2005  0.2264
17184TIP3    H172967   0.391   0.975  12.448  1.9916 -0.1313 -0.3995
17184TIP3    H272968   0.312   0.903  12.341  0.3330  1.5776 -0.3954
17185TIP3   OH272969   0.169   3.030  12.193  0.6531 -0.7425 -0.2785
17185TIP3    H172970   0.204   3.041  12.105 -1.7129 -0.8101 -1.3050
17185TIP3    H272971   0.181   2.937  12.212  0.0402 -0.9986 -1.0818
17186TIP3   OH272972   4.643   2.808  15.427 -0.1037 -0.7116 -0.0761
17186TIP3    H172973   4.643   2.713  15.437 -2.2860 -0.8949 -1.2534
17186TIP3    H272974   4.551   2.833  15.433  0.0341  0.9274 -2.8432
17187TIP3   OH272975   1.376   6.079   3.419  0.2811  0.0123 -0.0537
17187TIP3    H172976   1.436   6.144   3.456  0.6201  0.5693 -1.4848
17187TIP3    H272977   1.342   6.121   3.339 -1.2379 -0.6957  0.1789
17188TIP3   OH272978   6.229   3.738  14.739 -0.1357  0.1415  0.6749
17188TIP3    H172979   6.304   3.794  14.718  0.1965  0.0716  1.6185
17188TIP3    H272980   6.265   3.673  14.799 -0.5307 -1.0723 -0.3626
17189TIP3   OH272981   6.435   4.074  16.756  0.5900 -0.0362  0.2655
17189TIP3    H172982   6.390   3.989  16.759 -1.3370  0.9640  1.3591
17189TIP3    H272983   6.425   4.103  16.665  2.0452 -1.3193 -0.3572
17190TIP3   OH272984   2.656   4.312  11.509 -0.4853  0.0168  0.4603
17190TIP3    H172985   2.729   4.362  11.473 -3.0114  2.5030 -1.6809
17190TIP3    H272986   2.669   4.223  11.476  0.8094  0.7408 -1.1145
17191TIP3   OH272987   3.485   2.646   2.947 -0.2908  0.3300  0.1760
17191TIP3    H172988   3.580   2.649   2.937 -0.2279  3.8471  0.2575
17191TIP3    H272989   3.454   2.596   2.872  1.6119 -1.5652  0.5694
17192TIP3   OH272990   2.350   1.674  16.389  0.4325 -0.2446  0.1403
17192TIP3    H172991   2.402   1.619  16.448  0.6853 -0.1479  0.0101
17192TIP3    H272992   2.355   1.629  16.305 -0.4618 -0.7241  0.3362
17193TIP3   OH272993   0.288   3.690  13.454  0.2451  0.4430  0.0539
17193TIP3    H172994   0.339   3.768  13.476 -0.5875  1.4252 -1.3227
17193TIP3    H272995   0.233   3.675  13.530 -0.2382  1.7740 -0.0079
17194TIP3   OH272996   1.012   5.701  12.100 -0.1665 -0.5427  0.5967
17194TIP3    H172997   1.063   5.782  12.095 -0.6063 -0.2779  0.2899
17194TIP3    H272998   1.076   5.633  12.119  0.4456 -0.3520 -0.7010
17195TIP3   OH272999   5.232   0.615   2.995 -0.2692 -0.6951 -0.1082
17195TIP3    H173000   5.208   0.573   2.912  0.3382 -0.0439 -0.6175
17195TIP3    H273001   5.162   0.679   3.010  0.6032  0.5542 -1.1248
17196TIP3   OH273002   4.214   6.261  14.933  0.1511  0.4727 -0.1930
17196TIP3    H173003   4.305   6.286  14.947  0.8005 -1.5357 -0.5477
17196TIP3    H273004   4.187   6.312  14.856  1.0882  0.7968 -0.3206
17197TIP3   OH273005   2.198   0.475   3.737  0.4550  0.5908 -0.0945
17197TIP3    H173006   2.170   0.387   3.762  0.2608  0.1980 -1.6216
17197TIP3    H273007   2.293   0.469   3.729  0.2305 -0.3031 -3.0430
17198TIP3   OH273008   6.108   0.197  15.067  0.1985  0.6986 -0.0049
17198TIP3    H173009   6.063   0.253  15.004  1.9606  1.2580 -0.8277
17198TIP3    H273010   6.074   0.109  15.049  0.0888  0.9671 -1.2044
17199TIP3   OH273011   0.942   5.013  12.328 -0.2184  0.5530 -0.3588
17199TIP3    H173012   0.919   5.101  12.356  1.8702  0.4031  2.1813
17199TIP3    H273013   0.917   4.956  12.401  0.8972 -0.5839 -0.8106
17200TIP3   OH273014   5.667   3.798   4.117  0.3478 -0.2070  0.1448
17200TIP3    H173015   5.644   3.749   4.038  3.4668  2.0017 -2.4400
17200TIP3    H273016   5.713   3.875   4.084  4.5934 -0.5693  4.1584
17201TIP3   OH273017   6.627   0.374   2.127 -0.3226  1.2257  0.1285
17201TIP3    H173018   6.560   0.423   2.079 -1.6972  0.1780  0.9372
17201TIP3    H273019   6.589   0.358   2.213  0.9938  0.6438  0.6319
17202TIP3   OH273020   3.025   3.472  13.084 -0.5967  0.1196 -0.0095
17202TIP3    H173021   3.018   3.553  13.135  0.5610  0.4062 -0.2707
17202TIP3    H273022   2.947   3.472  13.028 -0.8167  0.8447  0.2803
17203TIP3   OH273023   3.884   1.138   5.181  0.0427 -0.3431  0.4267
17203TIP3    H173024   3.973   1.105   5.195 -0.3264 -1.7003 -0.2973
17203TIP3    H273025   3.897   1.225   5.143  1.0787 -0.7888 -0.2969
17204TIP3   OH273026   5.296   1.902   2.944 -0.2115 -0.2392 -0.0998
17204TIP3    H173027   5.312   1.980   2.997  0.1225  0.4280 -1.1505
17204TIP3    H273028   5.312   1.828   3.003  1.3376  0.4714  0.4109
17205TIP3   OH273029   0.002   0.605  12.644  0.3109  0.1670 -0.1107
17205TIP3    H173030  -0.021   0.638  12.557 -2.5016  0.5229  0.6636
17205TIP3    H273031   0.021   0.513  12.631 -1.1655 -0.0410 -0.9854
17206TIP3   OH273032   0.253   0.196  12.881  0.2005 -0.2886 -0.5883
17206TIP3    H173033   0.322   0.258  12.903  0.0009  0.0863 -1.0080
17206TIP3    H273034   0.253   0.193  12.786 -1.0467  0.4984 -0.6296
17207TIP3   OH273035   5.724   5.715  13.015  0.0304 -0.2030  0.2032
17207TIP3    H173036   5.753   5.788  13.070 -0.4643 -0.4238  0.7618
17207TIP3    H273037   5.632   5.734  12.997  0.2101 -0.0771 -0.6531
17208TIP3   OH273038   5.949   2.239  12.491 -0.1468 -0.2829 -0.7250
17208TIP3    H173039   5.957   2.165  12.432 -0.8221 -0.3771 -0.7114
17208TIP3    H273040   5.914   2.201  12.572  1.8266 -0.3458  0.1509
17209TIP3   OH273041   6.516   4.666   3.970 -0.5318  0.4974  0.1764
17209TIP3    H173042   6.523   4.761   3.964  2.8474  0.2993 -0.9717
17209TIP3    H273043   6.502   4.637   3.879 -0.1807 -0.1640  0.3237
17210TIP3   OH273044   4.186   0.351   4.202  0.6008 -0.0860 -0.3364
17210TIP3    H173045   4.281   0.339   4.196  0.5544 -1.2416  0.7105
17210TIP3    H273046   4.165   0.325   4.292 -0.7925 -0.3977 -0.7343
17211TIP3   OH273047   5.545   3.014   2.797 -0.0043  0.6222  0.0762
17211TIP3    H173048   5.556   3.020   2.892 -0.4850  1.5535  0.0867
17211TIP3    H273049   5.573   3.100   2.764  0.4759  0.1904 -0.6588
17212TIP3   OH273050   3.818   0.634   0.179  0.0271 -0.1983 -0.5008
17212TIP3    H173051   3.802   0.724   0.207 -0.2981 -0.1567 -0.8094
17212TIP3    H273052   3.886   0.642   0.112  1.0815 -0.3358  0.5336
17213TIP3   OH273053   5.188   4.605   6.355 -0.0520 -0.0399  0.3102
17213TIP3    H173054   5.170   4.616   6.449 -1.3868 -0.1198  0.0869
17213TIP3    H273055   5.262   4.545   6.352 -0.0254 -0.0807  1.3129
17214TIP3   OH273056   2.558   0.257  11.815 -0.3076 -0.0397  0.2255
17214TIP3    H173057   2.643   0.240  11.855 -0.0918 -0.4010 -0.3772
17214TIP3    H273058   2.535   0.175  11.771  0.0992  0.7558 -1.5484
17215TIP3   OH273059   5.105   0.782   3.228 -0.2976 -0.1518 -0.0161
17215TIP3    H173060   5.082   0.785   3.135  0.1900  1.8243 -0.1166
17215TIP3    H273061   5.187   0.830   3.234 -1.2303  1.3418  1.6679
17216TIP3   OH273062   3.141   5.015  12.131 -0.2093  0.1068 -0.0532
17216TIP3    H173063   3.230   5.049  12.125  0.3976 -1.4155 -0.1085
17216TIP3    H273064   3.130   4.990  12.222 -1.7826  3.2232  0.7726
17217TIP3   OH273065   3.139   3.692   5.453  0.2794  0.0874 -0.2018
17217TIP3    H173066   3.155   3.786   5.452  0.8921 -0.0067 -1.8171
17217TIP3    H273067   3.111   3.671   5.364  1.0443 -1.3983 -0.1208
17218TIP3   OH273068   5.360   4.112   0.326  0.1343 -0.3394  0.0671
17218TIP3    H173069   5.446   4.085   0.357  0.7060  0.1630 -1.0108
17218TIP3    H273070   5.317   4.030   0.301  0.1110 -0.6348  1.0182
17219TIP3   OH273071   5.701   2.146   2.398  0.2091  0.1069  0.2314
17219TIP3    H173072   5.790   2.132   2.430  0.0055 -2.1434 -0.0500
17219TIP3    H273073   5.645   2.130   2.474 -0.0411 -0.4640 -0.0700
17220TIP3   OH273074   1.918   5.517  12.047  0.7685  0.5031 -0.3890
17220TIP3    H173075   1.919   5.538  12.140  2.0039  3.0588 -0.8761
17220TIP3    H273076   2.010   5.512  12.023  0.4710 -1.3263 -1.2758
17221TIP3   OH273077   4.413   2.742   4.223  0.5604  0.0102  0.3993
17221TIP3    H173078   4.335   2.719   4.172  0.7956  0.0856  0.0015
17221TIP3    H273079   4.465   2.662   4.223  0.8030  0.1690  0.0761
17222TIP3   OH273080   4.412   6.724   1.652 -0.0261  0.2101  0.2301
17222TIP3    H173081   4.331   6.673   1.645  0.0841 -0.0216  0.5949
17222TIP3    H273082   4.477   6.660   1.683  0.7065 -0.0256 -1.6494
17223TIP3   OH273083   0.733   6.355  15.213  0.3662  0.1266  0.4762
17223TIP3    H173084   0.765   6.282  15.266  0.2224 -1.9342 -2.0858
17223TIP3    H273085   0.778   6.345  15.129 -3.8693 -0.5993 -1.9907
17224TIP3   OH273086   0.190   0.410  11.925  0.5043 -0.2398 -0.3471
17224TIP3    H173087   0.176   0.395  11.831 -0.9802  0.8686 -0.3321
17224TIP3    H273088   0.216   0.502  11.931 -2.1179  0.5325  0.5045
17225TIP3   OH273089   1.192   5.453   6.267 -0.0573 -0.3002 -0.6378
17225TIP3    H173090   1.155   5.425   6.351 -0.1008  0.9133 -0.2385
17225TIP3    H273091   1.287   5.449   6.281 -0.0659  0.4936 -0.3197
17226TIP3   OH273092   1.951   1.911   5.426  0.1374  0.2995 -0.0595
17226TIP3    H173093   1.998   1.976   5.375  0.2353 -0.9257 -1.5997
17226TIP3    H273094   2.014   1.840   5.439 -0.5517 -0.3275 -0.0752
17227TIP3   OH273095   5.553   3.717  16.199 -0.6907  0.2621  0.4605
17227TIP3    H173096   5.484   3.731  16.265 -1.5839  0.4421 -0.4745
17227TIP3    H273097   5.622   3.670  16.245 -1.1034  0.7682  1.6344
17228TIP3   OH273098   4.610   2.420  11.111 -0.5490  0.2436  0.2347
17228TIP3    H173099   4.641   2.362  11.181  0.8872 -0.0768 -0.6282
17228TIP3    H273100   4.533   2.463  11.149  0.1596  0.0691  2.0033
17229TIP3   OH273101   4.470   5.560  12.882  0.1450  1.0075 -0.0719
17229TIP3    H173102   4.390   5.508  12.891 -0.7421  2.3014 -0.1207
17229TIP3    H273103   4.463   5.626  12.951  1.5573  0.6831  0.4090
17230TIP3   OH273104   3.171   3.886   4.290 -0.1847  0.4307 -0.7130
17230TIP3    H173105   3.256   3.874   4.248 -0.4127 -0.1290 -1.0303
17230TIP3    H273106   3.108   3.877   4.218 -0.5898 -0.6318 -0.2353
17231TIP3   OH273107   5.534   6.644  15.946 -0.0731 -0.5052 -0.7370
17231TIP3    H173108   5.557   6.704  16.017  0.6250 -0.1108 -1.2887
17231TIP3    H273109   5.574   6.683  15.868  1.8549 -2.5228 -0.8502
17232TIP3   OH273110   3.153   0.887  16.488  0.5111  0.7364 -0.2836
17232TIP3    H173111   3.061   0.887  16.459  0.2120 -1.3110  0.4701
17232TIP3    H273112   3.200   0.839  16.420  0.0990 -2.5454  1.5207
17233TIP3   OH273113   4.410   1.858   3.337  0.0215 -0.5629  0.6335
17233TIP3    H173114   4.403   1.786   3.274 -0.0208  0.5178 -0.6651
17233TIP3    H273115   4.469   1.825   3.405  1.9912 -1.0168 -1.1660
17234TIP3   OH273116   4.212   6.142   5.465 -0.0181  0.1686 -1.2231
17234TIP3    H173117   4.188   6.183   5.548 -0.3725  0.6749 -1.5687
17234TIP3    H273118   4.305   6.159   5.455  0.8000 -2.6315  0.6000
17235TIP3   OH273119   3.421   5.075  12.112  0.2584  0.3019  0.3531
17235TIP3    H173120   3.408   5.168  12.130  2.0947  0.6017  0.2899
17235TIP3    H273121   3.516   5.064  12.109  0.0862 -1.1008 -2.1792
17236TIP3   OH273122   1.469   4.691   0.834 -0.1728  0.3027 -0.0294
17236TIP3    H173123   1.466   4.631   0.760  1.2943  0.1433  0.0121
17236TIP3    H273124   1.505   4.772   0.798 -1.0971  0.7991  0.1474
17237TIP3   OH273125   0.982   2.383  12.620  0.6001  0.3978  0.2267
17237TIP3    H173126   1.026   2.458  12.580 -1.3447  1.4316 -0.1034
17237TIP3    H273127   0.922   2.352  12.552  2.0956 -2.1673 -0.0230
17238TIP3   OH273128   6.350   5.565   2.806 -0.4576  0.1303 -0.1654
17238TIP3    H173129   6.286   5.630   2.834  0.2717 -0.4218  3.2075
17238TIP3    H273130   6.435   5.608   2.817 -0.0680 -0.6750  0.1009
17239TIP3   OH273131   3.102   5.718   3.814 -0.0974  0.2037  0.3577
17239TIP3    H173132   3.073   5.803   3.780  0.5118  0.3756  0.2351
17239TIP3    H273133   3.027   5.660   3.802 -0.4978  0.7112  0.3800
17240TIP3   OH273134   3.594   3.708  13.012  0.0487 -0.1840 -0.0666
17240TIP3    H173135   3.581   3.802  12.998 -2.4059 -0.4119  0.2263
17240TIP3    H273136   3.601   3.671  12.923 -0.1551  0.1485 -0.2232
17241TIP3   OH273137   1.393   3.512   5.211  0.5734 -0.2187 -0.4973
17241TIP3    H173138   1.364   3.422   5.200 -0.3011  0.1843 -1.8082
17241TIP3    H273139   1.413   3.541   5.122  1.5141  0.6687 -0.0158
17242TIP3   OH273140   0.634   5.739  16.128  0.0097 -0.3145  0.4323
17242TIP3    H173141   0.648   5.677  16.057 -0.1912  0.7482 -0.5634
17242TIP3    H273142   0.672   5.821  16.097  1.0886 -0.1237  2.0798
17243TIP3   OH273143   3.176   2.791   2.981  0.4414 -0.0846  0.6053
17243TIP3    H173144   3.219   2.717   2.938 -0.0112 -0.1254  0.2174
17243TIP3    H273145   3.239   2.862   2.977 -0.0730  0.3234 -1.3230
17244TIP3   OH273146   6.415   0.916  12.266 -0.2357  0.6176  0.5246
17244TIP3    H173147   6.511   0.918  12.256 -0.3005 -0.9085 -0.8205
17244TIP3    H273148   6.391   1.007  12.283  1.2952  1.4120 -1.1436
17245TIP3   OH273149   0.673   0.547  16.703  0.3320 -0.2416 -0.3756
17245TIP3    H173150   0.640   0.602  16.632 -0.7306  0.2181  0.4410
17245TIP3    H273151   0.755   0.512  16.670  1.8718  3.0274 -0.4161
17246TIP3   OH273152   5.221   2.560   2.581 -0.5817 -0.0291 -0.1053
17246TIP3    H173153   5.156   2.515   2.635 -0.7109 -1.4150 -1.3455
17246TIP3    H273154   5.171   2.595   2.507  0.0552 -1.2504 -1.1565
17247TIP3   OH273155   3.791   5.140  15.172  0.9320  0.7120 -0.1907
17247TIP3    H173156   3.720   5.191  15.132  0.0334  0.5113  1.0748
17247TIP3    H273157   3.799   5.176  15.260  0.2361 -1.3451  0.7726
17248TIP3   OH273158   1.333   5.173  17.124 -0.2579  0.1976  0.1601
17248TIP3    H173159   1.271   5.149  17.192 -0.0846  1.6861  0.8873
17248TIP3    H273160   1.415   5.130  17.149 -0.3638  0.2228  0.5504
17249TIP3   OH273161   3.387   2.791  11.470 -0.0913 -0.3896  0.2710
17249TIP3    H173162   3.439   2.731  11.524 -0.0597  1.2214  2.1601
17249TIP3    H273163   3.394   2.875  11.515 -1.6185  0.6215 -1.2709
17250TIP3   OH273164   3.058   1.777  16.867  0.1967 -0.3132  0.2841
17250TIP3    H173165   3.091   1.748  16.952  0.6617  0.3398  0.3407
17250TIP3    H273166   3.112   1.853  16.845 -0.6211  0.1726 -0.1032
17251TIP3   OH273167   2.889   3.565   1.000 -0.3504 -0.0473  0.7529
17251TIP3    H173168   2.943   3.580   0.922  1.7775  0.0631  2.1904
17251TIP3    H273169   2.804   3.538   0.964  0.6475 -0.3463 -1.6005
17252TIP3   OH273170   0.120   0.775  14.209 -0.2226 -0.0921 -0.4440
17252TIP3    H173171   0.159   0.851  14.167  0.3205  0.0741  0.3303
17252TIP3    H273172   0.195   0.725  14.243 -0.6403 -0.1675  0.4001
17253TIP3   OH273173   5.823   5.560  14.530  0.0257 -0.1752 -0.1717
17253TIP3    H173174   5.830   5.591  14.440 -0.7297  0.1158 -0.1406
17253TIP3    H273175   5.741   5.598  14.562 -1.3235 -2.7298 -0.3554
17254TIP3   OH273176   6.204   5.843   2.621 -0.5092  0.4947 -0.4944
17254TIP3    H173177   6.198   5.936   2.643  0.6279  0.4620  0.0325
17254TIP3    H273178   6.164   5.799   2.696  0.0730  0.5290 -0.1499
17255TIP3   OH273179   0.240   4.890   3.602  1.1212 -0.0971 -0.0227
17255TIP3    H173180   0.292   4.942   3.541  1.1466  0.6145  0.5822
17255TIP3    H273181   0.238   4.802   3.564  2.6075 -0.0967 -0.1610
17256TIP3   OH273182   2.767   2.017   2.971 -0.1696 -0.6073 -0.3284
17256TIP3    H173183   2.688   2.035   3.022 -0.7933 -0.1779 -1.4257
17256TIP3    H273184   2.813   1.950   3.022 -1.2898 -0.9543  0.2605
17257TIP3   OH273185   3.921   6.738   1.771  0.4943  0.0824 -0.3149
17257TIP3    H173186   3.858   6.809   1.785  0.3483  0.4444 -2.5547
17257TIP3    H273187   3.997   6.764   1.823 -0.7527  0.1725  1.5672
17258TIP3   OH273188   6.325   0.246   1.927  0.2853 -0.0382  0.1093
17258TIP3    H173189   6.323   0.220   2.019 -1.1081  4.5734  1.6553
17258TIP3    H273190   6.403   0.301   1.919  0.8862 -1.0527 -1.7961
17259TIP3   OH273191   3.318   3.341   2.425 -0.7669  0.5313 -0.4266
17259TIP3    H173192   3.240   3.359   2.478 -0.6285 -0.8784  0.2915
17259TIP3    H273193   3.364   3.425   2.421 -1.9204  1.1942 -0.2126
17260TIP3   OH273194   0.566   2.504  14.457  0.0790  0.3166  0.2314
17260TIP3    H173195   0.546   2.515  14.550  0.8125 -0.4926  0.4976
17260TIP3    H273196   0.558   2.410  14.441 -0.9455  0.5442 -0.7545
17261TIP3   OH273197   2.987   3.431  14.278  0.2682  0.1776  0.2415
17261TIP3    H173198   2.993   3.341  14.311 -0.7117 -0.2108 -0.6039
17261TIP3    H273199   2.960   3.482  14.355  0.9573 -0.2105  0.7606
17262TIP3   OH273200   4.979   1.856   1.891 -0.4109 -0.0534  0.2287
17262TIP3    H173201   4.894   1.818   1.915  0.0289 -1.2982 -0.0889
17262TIP3    H273202   4.963   1.896   1.805 -0.1800 -2.3335 -0.9727
17263TIP3   OH273203   4.430   6.380   5.495 -0.1776 -0.3218 -0.2295
17263TIP3    H173204   4.335   6.377   5.508  0.0809  0.5872  2.5452
17263TIP3    H273205   4.449   6.473   5.479  0.3929 -0.2181  0.9779
17264TIP3   OH273206   3.651   1.222  15.740 -0.1547  0.3630 -0.7795
17264TIP3    H173207   3.628   1.137  15.779 -0.7451 -0.0705 -2.0252
17264TIP3    H273208   3.691   1.271  15.812 -1.8323 -0.1344  0.5577
17265TIP3   OH273209   4.934   0.395  14.870  0.1675 -0.2469 -0.5646
17265TIP3    H173210   4.863   0.337  14.843 -0.4560  1.3298 -2.5293
17265TIP3    H273211   4.999   0.336  14.910 -1.6248 -1.8888  0.0856
17266TIP3   OH273212   4.176   3.124   2.181  0.2761  0.1445 -0.8614
17266TIP3    H173213   4.265   3.119   2.146  0.1757 -1.6916 -0.9097
17266TIP3    H273214   4.119   3.120   2.105  0.1194  0.7393 -0.7857
17267TIP3   OH273215   2.527   5.889   6.338 -0.2336 -0.2114 -0.6128
17267TIP3    H173216   2.451   5.925   6.293 -0.4176  0.8491  0.4622
17267TIP3    H273217   2.521   5.795   6.326 -1.2767 -0.0787 -1.2135
17268TIP3   OH273218   0.462   3.963  12.212  0.3063 -0.2642  0.7489
17268TIP3    H173219   0.411   4.000  12.141  0.1560 -1.4611  0.2067
17268TIP3    H273220   0.413   3.985  12.291  0.7929  1.6110  0.5668
17269TIP3   OH273221   6.568   3.973   2.668 -0.2883 -0.7145  0.2965
17269TIP3    H173222   6.624   3.919   2.723 -0.3020 -0.3867  0.6305
17269TIP3    H273223   6.481   3.935   2.679 -0.3962 -0.2935  0.9635
17270TIP3   OH273224   4.057   4.818   2.407 -0.2163 -0.0842  0.4395
17270TIP3    H173225   4.066   4.842   2.315 -1.3817 -1.6376 -0.1275
17270TIP3    H273226   4.093   4.730   2.412 -1.6019 -0.6476  1.1009
17271TIP3   OH273227   0.185   0.484  16.707 -0.1798 -0.3141  0.1300
17271TIP3    H173228   0.197   0.417  16.640  2.1831  0.5505 -0.4026
17271TIP3    H273229   0.202   0.438  16.790 -1.0829 -0.9168 -0.0034
17272TIP3   OH273230   0.599   0.263   1.948  0.5684 -0.0534  0.2137
17272TIP3    H173231   0.579   0.180   1.903  0.8037  0.5756 -1.0952
17272TIP3    H273232   0.553   0.329   1.896 -0.0483  0.6008  1.5533
17273TIP3   OH273233   3.746   6.453   1.259 -0.0439  0.4697 -0.1980
17273TIP3    H173234   3.735   6.483   1.349  0.0245 -1.9438  0.6851
17273TIP3    H273235   3.784   6.366   1.267 -1.7980 -0.6205 -2.4650
17274TIP3   OH273236   1.332   4.881   3.632 -0.0588  0.1948 -0.7114
17274TIP3    H173237   1.393   4.946   3.668  0.1959 -2.2347  4.1413
17274TIP3    H273238   1.247   4.906   3.669 -0.4575 -0.6780 -1.0117
17275TIP3   OH273239   1.239   2.543   5.439 -0.0330  0.6162  0.1099
17275TIP3    H173240   1.230   2.448   5.437 -0.2832  0.6454 -1.9135
17275TIP3    H273241   1.333   2.558   5.437  0.0595  0.4380  1.7140
17276TIP3   OH273242   4.413   5.096   1.058 -0.5460 -0.6730 -0.0299
17276TIP3    H173243   4.351   5.071   1.126 -0.2430  0.8161  0.8367
17276TIP3    H273244   4.436   5.014   1.014 -3.4606 -1.2214 -0.7114
17277TIP3   OH273245   1.093   0.735  12.178  0.1418  0.0942 -0.2346
17277TIP3    H173246   1.160   0.801  12.162 -1.5090  1.9452  0.1323
17277TIP3    H273247   1.104   0.672  12.106 -0.1117  2.3892 -2.4361
17278TIP3   OH273248   4.927   1.431   4.961  0.1149  0.3219 -0.1769
17278TIP3    H173249   4.989   1.388   4.902 -1.3984 -1.7179 -0.4094
17278TIP3    H273250   4.971   1.433   5.045  1.2354  0.7196 -0.7572
17279TIP3   OH273251   4.144   2.501  11.217  0.3367 -0.1616  0.0048
17279TIP3    H173252   4.075   2.547  11.264  2.2437  1.6399  1.2460
17279TIP3    H273253   4.158   2.552  11.137  1.0928  0.2870  0.4077
17280TIP3   OH273254   4.988   1.012  13.195 -0.6255  0.5824  0.3271
17280TIP3    H173255   4.968   0.973  13.280 -0.4389  0.5834  0.3717
17280TIP3    H273256   5.017   0.938  13.141 -1.6680  0.4204 -0.0314
17281TIP3   OH273257   5.674   6.683   4.848 -0.2514  0.3798 -0.4555
17281TIP3    H173258   5.719   6.686   4.932  2.0023  0.5223 -1.5926
17281TIP3    H273259   5.716   6.613   4.799 -0.3490  1.3635 -2.0595
17282TIP3   OH273260   5.377   3.569   0.220  0.4977 -0.0575 -0.3124
17282TIP3    H173261   5.366   3.526   0.305  1.9676 -1.7618 -0.9032
17282TIP3    H273262   5.318   3.522   0.161  0.2378  0.4405 -0.4564
17283TIP3   OH273263   0.701   4.092  16.710 -0.1376  0.1635 -0.7215
17283TIP3    H173264   0.739   4.180  16.707 -0.4299  0.2699 -1.5063
17283TIP3    H273265   0.755   4.040  16.650 -0.6602  0.0967 -1.1456
17284TIP3   OH273266   4.886   2.804  16.114  0.2507  0.1987  0.0185
17284TIP3    H173267   4.894   2.895  16.084 -1.4374  0.4975  0.4008
17284TIP3    H273268   4.902   2.809  16.209 -0.3925  0.1793  0.1267
17285TIP3   OH273269   4.275   0.346  14.855  0.3616 -0.5457 -1.1949
17285TIP3    H173270   4.191   0.362  14.897  0.7165 -1.3272 -0.1420
17285TIP3    H273271   4.253   0.298  14.775 -0.3247  1.0135 -1.9845
17286TIP3   OH273272   6.224   2.991   1.819  0.2569  0.3794  0.5814
17286TIP3    H173273   6.241   2.972   1.911  0.6616 -2.4521 -0.0066
17286TIP3    H273274   6.136   2.958   1.804 -0.0203  1.3220  0.0312
17287TIP3   OH273275   4.392   0.685  17.144  0.4410  0.4534 -0.1267
17287TIP3    H173276   4.348   0.605  17.172 -0.3197  0.8419 -0.1820
17287TIP3    H273277   4.420   0.668  17.054 -0.7212  0.6370 -0.5364
17288TIP3   OH273278   5.576   6.035   2.106  0.2548  0.3706 -0.7643
17288TIP3    H173279   5.589   5.992   2.021 -1.7551 -0.2577 -0.8253
17288TIP3    H273280   5.651   6.009   2.158 -0.4477 -2.7027 -1.0536
17289TIP3   OH273281   1.251   3.679  16.840  0.1903  0.2182  0.0739
17289TIP3    H173282   1.162   3.713  16.846 -0.5837 -1.8378  1.0787
17289TIP3    H273283   1.305   3.748  16.878 -0.9213  1.5462 -0.6340
17290TIP3   OH273284   2.220   1.583  12.789  0.1918  0.2634  0.0661
17290TIP3    H173285   2.165   1.602  12.713  1.6280  0.8584 -0.8846
17290TIP3    H273286   2.192   1.644  12.856 -1.1254 -0.2881  0.0477
17291TIP3   OH273287   5.251   1.084  14.377 -0.6319  0.1755 -0.0733
17291TIP3    H173288   5.192   1.017  14.411 -0.5602 -0.6835 -1.5308
17291TIP3    H273289   5.228   1.163  14.425 -1.3970 -0.6673  0.9903
17292TIP3   OH273290   2.828   5.470   0.515  0.3176 -0.0373  0.0647
17292TIP3    H173291   2.885   5.452   0.440  1.6380  1.3985  0.6696
17292TIP3    H273292   2.754   5.411   0.503  1.7372 -1.7263 -0.9661
17293TIP3   OH273293   4.049   5.331  16.174  0.1896  0.0399 -0.0364
17293TIP3    H173294   4.123   5.336  16.234 -0.0077  2.8072  0.0990
17293TIP3    H273295   3.976   5.369  16.222 -0.3306  0.9363 -1.4525
17294TIP3   OH273296   2.873   6.752  11.453  0.4796 -0.2854 -0.0756
17294TIP3    H173297   2.959   6.790  11.470  0.9987 -1.3285 -0.3081
17294TIP3    H273298   2.841   6.726  11.540  0.0514  0.7957  0.1052
17295TIP3   OH273299   3.041   5.843   5.049  0.2187  0.5581  0.9192
17295TIP3    H173300   3.036   5.793   4.968  2.1692 -0.0356  1.1204
17295TIP3    H273301   2.954   5.835   5.087  0.0304 -1.3816  0.1784
17296TIP3   OH273302   5.986   4.141   1.509 -0.5209  0.3251 -0.2929
17296TIP3    H173303   6.007   4.143   1.415 -2.7543  1.9028 -0.8552
17296TIP3    H273304   6.064   4.174   1.552  0.3006  0.2411 -1.6493
17297TIP3   OH273305   5.692   6.649  15.709 -0.1453 -0.2216 -0.0186
17297TIP3    H173306   5.626   6.678  15.646 -0.9000 -2.7289 -0.5100
17297TIP3    H273307   5.745   6.586  15.661  3.2203  2.2460  0.1395
17298TIP3   OH273308   3.803   2.858  11.129  0.0721 -0.2350 -0.3754
17298TIP3    H173309   3.890   2.895  11.115  0.0288 -0.2027 -0.5615
17298TIP3    H273310   3.785   2.807  11.050  0.4113 -1.2220  0.1590
17299TIP3   OH273311   2.873   2.431  13.979  0.1852  0.6881 -0.3462
17299TIP3    H173312   2.834   2.443  13.893  0.4299  1.3496 -0.3649
17299TIP3    H273313   2.823   2.487  14.037 -2.4008 -2.4233  0.7153
17300TIP3   OH273314   5.680   2.837  16.779  0.6533 -0.0510 -0.1049
17300TIP3    H173315   5.658   2.757  16.731 -1.3881  0.6912 -0.5003
17300TIP3    H273316   5.732   2.889  16.718 -2.3250  1.1057 -1.8526
17301TIP3   OH273317   5.722   5.264  15.747  0.2677 -0.1080  0.2043
17301TIP3    H173318   5.673   5.186  15.773 -0.5138 -0.3671 -1.8330
17301TIP3    H273319   5.726   5.259  15.651  0.4151  2.2256  0.0192
17302TIP3   OH273320   1.139   4.698  13.243  0.3336  0.3157  0.2357
17302TIP3    H173321   1.075   4.638  13.281 -0.2837 -0.1816 -1.5151
17302TIP3    H273322   1.088   4.775  13.218  0.2669 -0.2905 -1.6410
17303TIP3   OH273323   0.308   5.344  10.499  0.4565 -0.0830  0.9486
17303TIP3    H173324   0.321   5.279  10.430  1.3154 -0.8792  1.8277
17303TIP3    H273325   0.290   5.292  10.578 -0.0548  0.7917  1.4337
17304TIP3   OH273326   1.785   1.453  11.972  0.1512 -0.3226  0.0726
17304TIP3    H173327   1.828   1.528  12.013  1.1772 -0.6954 -0.2853
17304TIP3    H273328   1.757   1.485  11.886 -0.3400 -0.0604  0.3304
17305TIP3   OH273329   4.568   4.297  15.348 -0.4390 -0.4717  0.5966
17305TIP3    H173330   4.493   4.345  15.381  0.6443  2.3904 -0.7900
17305TIP3    H273331   4.644   4.341  15.386  0.6681 -0.0342 -1.8982
17306TIP3   OH273332   4.624   2.260  17.029 -0.0769  0.0343  0.1259
17306TIP3    H173333   4.549   2.225  17.077 -0.0401 -0.4484 -0.1571
17306TIP3    H273334   4.620   2.354  17.043  0.5749 -0.1722  2.0176
17307TIP3   OH273335   5.561   0.614  11.594  0.3368 -0.0471 -0.3890
17307TIP3    H173336   5.499   0.598  11.665  0.8827 -0.3687  0.0235
17307TIP3    H273337   5.637   0.653  11.637  0.4511  0.2923 -0.8831
17308TIP3   OH273338   2.299   3.583   5.503  0.2071 -0.0278  0.5670
17308TIP3    H173339   2.289   3.518   5.573  0.4380 -1.2575 -0.4927
17308TIP3    H273340   2.257   3.543   5.428 -1.1952  1.8334  0.2951
17309TIP3   OH273341   0.783   2.092  14.074 -0.2278  0.7400  0.4849
17309TIP3    H173342   0.703   2.040  14.078 -1.1150  1.9955 -0.2077
17309TIP3    H273343   0.787   2.137  14.158 -0.5911  1.1573  0.2799
17310TIP3   OH273344   0.604   0.809  16.983  0.1915 -0.6797  0.2552
17310TIP3    H173345   0.690   0.787  16.947  0.2917  1.0293 -0.6305
17310TIP3    H273346   0.560   0.857  16.913 -0.5180  0.6464  1.5621
17311TIP3   OH273347   3.136   1.593   5.799 -0.1983 -0.0568 -0.6176
17311TIP3    H173348   3.064   1.628   5.852 -0.3311 -2.3991  0.9121
17311TIP3    H273349   3.211   1.648   5.821 -0.1922 -1.0602  2.3247
17312TIP3   OH273350   1.653   5.791   1.398  0.1113 -0.0480  0.5210
17312TIP3    H173351   1.691   5.807   1.484  0.0572  0.5767  0.4344
17312TIP3    H273352   1.614   5.704   1.405 -0.3509  0.2077  1.3019
17313TIP3   OH273353   3.853   1.599  10.932 -0.7890  0.1220 -0.1784
17313TIP3    H173354   3.773   1.608  10.879  0.1135  2.6385 -1.2760
17313TIP3    H273355   3.854   1.507  10.958 -3.9513 -0.0366 -0.2218
17314TIP3   OH273356   5.495   3.871  15.264  0.1648 -0.5701 -0.0409
17314TIP3    H173357   5.409   3.892  15.299  1.6245  1.1624  2.9393
17314TIP3    H273358   5.495   3.776  15.256 -1.7063 -0.6830  0.8024
17315TIP3   OH273359   5.064   3.826  13.290  0.3351  0.1853 -0.0639
17315TIP3    H173360   5.061   3.731  13.279  0.4688  0.1505  0.1876
17315TIP3    H273361   4.979   3.848  13.328  0.4539  0.1146  0.2495
17316TIP3   OH273362   4.384   4.816   1.836 -1.1171  0.1819  0.5651
17316TIP3    H173363   4.380   4.911   1.824 -0.1841  0.0057 -1.8666
17316TIP3    H273364   4.434   4.804   1.916  0.2538  1.7856  0.0130
17317TIP3   OH273365   0.250   5.275  15.797  0.0119  0.0043 -0.1774
17317TIP3    H173366   0.251   5.231  15.882  0.2234  0.0600 -0.1508
17317TIP3    H273367   0.287   5.210  15.736 -0.7335 -0.2749 -0.3456
17318TIP3   OH273368   6.026   0.151  13.791  0.1413 -0.5969  0.2398
17318TIP3    H173369   6.065   0.221  13.739  1.0202 -0.2077  1.3794
17318TIP3    H273370   5.932   0.172  13.793  0.4843  1.0639  1.2493
17319TIP3   OH273371   3.007   2.733  13.869  0.6653 -0.0681  0.2320
17319TIP3    H173372   2.940   2.761  13.807  1.8004 -0.0594 -1.0708
17319TIP3    H273373   2.960   2.710  13.948 -0.5880  2.7294  0.4003
17320TIP3   OH273374   1.652   1.394   5.758  0.0573 -0.2960  0.2079
17320TIP3    H173375   1.599   1.333   5.707 -0.7397 -0.5881  1.3345
17320TIP3    H273376   1.645   1.477   5.712 -3.6692  0.4095  1.7013
17321TIP3   OH273377   5.043   3.769  11.266 -0.4955 -0.6532  0.0653
17321TIP3    H173378   4.965   3.733  11.310  0.6345 -1.6662  1.3432
17321TIP3    H273379   5.088   3.692  11.231 -0.6170  0.0228 -1.6549
17322TIP3   OH273380   3.302   1.414   0.612  0.4855  0.7522  0.2245
17322TIP3    H173381   3.291   1.485   0.548  0.1212 -1.0485 -1.8288
17322TIP3    H273382   3.392   1.422   0.642  1.1772  0.7196 -1.7358
17323TIP3   OH273383   3.561   2.957  12.535  0.4046 -0.0677  0.0002
17323TIP3    H173384   3.632   2.902  12.569  0.5407 -0.0190 -0.1990
17323TIP3    H273385   3.486   2.898  12.529  0.8754 -0.5795 -1.4051
17324TIP3   OH273386   4.715   1.507   5.210 -0.1527  0.3082 -0.3359
17324TIP3    H173387   4.808   1.494   5.191 -0.2983 -0.5753 -0.4564
17324TIP3    H273388   4.713   1.545   5.298  0.3809  1.6934 -0.8895
17325TIP3   OH273389   6.673   1.243   4.722 -0.3133  0.5394  0.7417
17325TIP3    H173390   6.698   1.304   4.652  0.2889  1.9424  2.1017
17325TIP3    H273391   6.638   1.167   4.676  1.1530  0.8996 -1.1145
17326TIP3   OH273392   4.058   5.591  15.139 -0.7905 -0.2293 -0.4896
17326TIP3    H173393   4.019   5.562  15.221  0.8376 -0.0801  0.3842
17326TIP3    H273394   4.091   5.510  15.099  0.2979 -0.0907  0.0698
17327TIP3   OH273395   4.737   5.898   3.047 -0.0528  0.1616 -0.0671
17327TIP3    H173396   4.690   5.896   2.964  0.7164  1.0252 -0.5484
17327TIP3    H273397   4.681   5.851   3.108 -1.0714  0.3205 -0.8578
17328TIP3   OH273398   1.134   6.075  15.844 -0.2532 -0.0800  0.0358
17328TIP3    H173399   1.131   6.150  15.785 -0.0848 -1.6347 -2.0584
17328TIP3    H273400   1.042   6.056  15.863 -0.3444 -0.0613 -0.3829
17329TIP3   OH273401   4.852   1.613  12.620 -0.7910 -0.0744 -0.0930
17329TIP3    H173402   4.851   1.638  12.712 -1.8238  2.3039 -0.6795
17329TIP3    H273403   4.765   1.577  12.603 -0.1950 -1.6909  0.1042
17330TIP3   OH273404   4.836   5.943   1.549 -0.1426 -0.1545  0.3907
17330TIP3    H173405   4.876   5.864   1.514 -1.4516 -0.3620 -0.6985
17330TIP3    H273406   4.749   5.915   1.578 -0.9433  1.0380 -0.7758
17331TIP3   OH273407   1.175   4.814   0.398 -0.7187 -0.2028  0.4915
17331TIP3    H173408   1.218   4.741   0.353 -0.9242 -0.4811  0.7468
17331TIP3    H273409   1.082   4.797   0.388 -0.7677  0.0269  0.5547
17332TIP3   OH273410   1.632   4.942  12.639  0.6600 -0.1130  0.3106
17332TIP3    H173411   1.538   4.954  12.653  0.7459  1.0071 -0.0108
17332TIP3    H273412   1.645   4.962  12.546  1.5703  2.1863  0.8737
17333TIP3   OH273413   1.482   2.634  10.935 -0.0213  0.7440 -0.1279
17333TIP3    H173414   1.557   2.677  10.977 -0.4432  1.2847  0.0671
17333TIP3    H273415   1.423   2.705  10.910 -0.1218  0.3810 -0.9868
17334TIP3   OH273416   5.379   0.502  15.815  0.0011 -0.2455 -0.4356
17334TIP3    H173417   5.456   0.501  15.757 -2.0169  0.5830 -3.3802
17334TIP3    H273418   5.322   0.434  15.779 -1.0833 -0.1764  1.0637
17335TIP3   OH273419   3.320   2.273   1.937 -0.1574  0.6705 -0.8763
17335TIP3    H173420   3.341   2.200   1.996 -0.2750 -0.1216 -1.7801
17335TIP3    H273421   3.236   2.305   1.968  0.4344  1.1945  0.2459
17336TIP3   OH273422   6.718   3.204   5.352  0.0651  0.3232 -0.4677
17336TIP3    H173423   6.765   3.191   5.270 -0.2475 -0.9581 -0.4746
17336TIP3    H273424   6.710   3.299   5.361  2.3298  0.5888 -0.6360
17337TIP3   OH273425   5.362   2.970   3.730 -0.1110  0.0873 -0.4383
17337TIP3    H173426   5.370   2.904   3.661 -0.6941  0.3780 -0.7934
17337TIP3    H273427   5.423   3.039   3.705 -0.9731  0.6076 -1.1614
17338TIP3   OH273428   2.095   1.987   3.046 -0.7393 -0.4127 -0.4035
17338TIP3    H173429   2.105   1.987   3.141  0.7796 -0.5898 -0.5455
17338TIP3    H273430   2.092   2.080   3.022 -1.1762 -0.3689 -0.1889
17339TIP3   OH273431   5.190   0.742   3.819  0.4283 -0.3400 -0.0851
17339TIP3    H173432   5.218   0.796   3.893  0.3075 -0.2522 -0.1026
17339TIP3    H273433   5.269   0.696   3.791  0.5294 -0.1796 -0.0642
17340TIP3   OH273434   5.403   4.451  13.276 -0.3451 -0.2070  0.1832
17340TIP3    H173435   5.343   4.526  13.276  0.0057  0.0874 -0.4487
17340TIP3    H273436   5.348   4.376  13.254 -0.5461  0.0036 -0.0326
17341TIP3   OH273437   0.339   2.246  12.361 -0.3698 -0.0766  0.2864
17341TIP3    H173438   0.390   2.195  12.298  1.2040  2.0384 -0.2615
17341TIP3    H273439   0.298   2.180  12.417  1.1319 -1.9510 -0.6817
17342TIP3   OH273440   0.136   2.630   4.143  0.2356 -0.1139 -0.5718
17342TIP3    H173441   0.135   2.725   4.132  1.4651  0.4319  2.6671
17342TIP3    H273442   0.047   2.608   4.171  0.5318  0.5283  0.9818
17343TIP3   OH273443   4.914   5.938  15.527 -0.3412  0.0362 -0.2676
17343TIP3    H173444   4.991   5.980  15.487  0.3711 -1.4493 -0.5091
17343TIP3    H273445   4.849   6.008  15.532  0.7583  1.1345 -0.7825
17344TIP3   OH273446   1.250   3.865  11.521  0.2444 -0.6089 -0.6473
17344TIP3    H173447   1.199   3.829  11.594  0.0730  0.5918 -0.1493
17344TIP3    H273448   1.337   3.882  11.558  0.2443 -0.2719 -0.7914
17345TIP3   OH273449   6.196   1.517   1.391 -0.2406 -0.1666 -0.4828
17345TIP3    H173450   6.136   1.564   1.449  0.0620  0.5471 -0.7363
17345TIP3    H273451   6.209   1.432   1.433 -1.6847 -0.4629 -0.5785
17346TIP3   OH273452   4.928   1.476  12.160  0.2898  0.1231 -0.1769
17346TIP3    H173453   4.841   1.463  12.123  0.4290  1.7541 -1.1596
17346TIP3    H273454   4.988   1.447  12.091  0.5246  1.0890 -0.3966
17347TIP3   OH273455   4.602   6.044   3.293  0.1346 -0.3238  0.2418
17347TIP3    H173456   4.643   6.102   3.357  2.1845 -2.3314  0.8816
17347TIP3    H273457   4.612   6.091   3.210  0.0533  1.0306  0.9648
17348TIP3   OH273458   0.313   3.436  14.043  0.1202  0.4379 -0.0328
17348TIP3    H173459   0.223   3.428  14.074  0.0625 -2.1375 -0.6390
17348TIP3    H273460   0.323   3.529  14.022 -1.4927  1.3361  2.5884
17349TIP3   OH273461   2.323   2.910  15.922 -0.8246 -0.2129 -0.0655
17349TIP3    H173462   2.341   2.981  15.984  0.2151  0.0995 -0.6925
17349TIP3    H273463   2.260   2.948  15.860 -0.2055  0.2147 -0.4518
17350TIP3   OH273464   2.703   5.090   1.445 -0.1999 -0.3692 -0.2746
17350TIP3    H173465   2.752   5.013   1.416  0.5968 -0.3274  0.8971
17350TIP3    H273466   2.677   5.068   1.535 -0.7582  0.3590 -0.2556
17351TIP3   OH273467   5.714   0.748   2.114  0.3962 -0.2971  0.6247
17351TIP3    H173468   5.732   0.716   2.025 -0.2978  0.7441  0.0870
17351TIP3    H273469   5.789   0.804   2.135 -0.6353  1.5711 -0.3911
17352TIP3   OH273470   4.387   4.933   0.088  0.0255  0.1856  0.2898
17352TIP3    H173471   4.373   4.844   0.118 -1.2535  0.1883 -0.1986
17352TIP3    H273472   4.324   4.986   0.138  0.3838  0.7222  0.1847
17353TIP3   OH273473   6.406   1.833  16.974 -0.7662  0.1378 -0.1257
17353TIP3    H173474   6.390   1.783  17.054  0.2064  0.5466  0.3434
17353TIP3    H273475   6.449   1.913  17.004  1.5819 -0.6371 -1.2005
17354TIP3   OH273476   3.663   4.987   0.702 -0.5057  0.0704  0.3515
17354TIP3    H173477   3.747   4.983   0.656  0.4750 -0.8717  2.1276
17354TIP3    H273478   3.599   5.008   0.633  0.9948 -0.4009 -1.2580
17355TIP3   OH273479   0.460   6.113   5.913 -0.0812 -0.4717 -0.2905
17355TIP3    H173480   0.389   6.065   5.956  1.9923 -2.6795  0.9099
17355TIP3    H273481   0.474   6.066   5.831  0.3377 -0.3720 -0.2769
17356TIP3   OH273482   4.016   3.840  13.061 -0.1062  0.1927  0.4641
17356TIP3    H173483   4.051   3.786  12.990  0.7215 -1.5359  2.0938
17356TIP3    H273484   4.026   3.930  13.030 -1.7006 -0.5012 -2.4489
17357TIP3   OH273485   2.904   6.597   2.620 -0.3329  0.0404  0.4074
17357TIP3    H173486   2.897   6.505   2.596 -0.3978 -0.9265  3.6858
17357TIP3    H273487   2.815   6.623   2.641 -0.7116  1.6344 -2.6558
17358TIP3   OH273488   2.242   3.303  15.681  0.5698  0.0614  0.1865
17358TIP3    H173489   2.323   3.314  15.731 -0.1954 -0.1439  1.4991
17358TIP3    H273490   2.198   3.388  15.688  0.6339  0.1568 -0.4852
17359TIP3   OH273491   0.983   1.488   2.343 -0.6919  0.1393 -0.2954
17359TIP3    H173492   0.965   1.580   2.364  1.2101  0.4035  0.3366
17359TIP3    H273493   1.078   1.482   2.342 -0.7618 -2.1224  1.0369
17360TIP3   OH273494   2.422   2.560   6.040  0.4796  0.7746  0.2514
17360TIP3    H173495   2.495   2.570   5.980  0.1425  0.0327 -0.2958
17360TIP3    H273496   2.384   2.475   6.018 -0.4173  1.0531  0.6683
17361TIP3   OH273497   0.977   1.310   5.873 -0.8508  0.1379  0.1068
17361TIP3    H173498   1.058   1.322   5.923 -1.4827 -4.1428  2.6799
17361TIP3    H273499   1.005   1.275   5.789  0.0666 -0.1264  0.5066
17362TIP3   OH273500   1.339   0.517  11.403  0.2350 -0.0187 -0.5217
17362TIP3    H173501   1.346   0.590  11.464 -0.6678 -1.1330  1.0028
17362TIP3    H273502   1.429   0.489  11.389  0.5869  1.2955 -1.0521
17363TIP3   OH273503   2.205   5.944   0.553  0.5072 -0.0477  0.0992
17363TIP3    H173504   2.250   5.876   0.504 -0.2158 -0.4265 -0.0478
17363TIP3    H273505   2.129   5.966   0.500  0.1997  0.1672  0.6188
17364TIP3   OH273506   5.295   3.281   0.776  0.2411 -0.2456 -0.1540
17364TIP3    H173507   5.324   3.206   0.828  2.3689  0.3778 -0.3406
17364TIP3    H273508   5.292   3.249   0.686 -1.8370 -0.8817  0.1008
17365TIP3   OH273509   5.561   0.983   4.295  0.0585  0.4177  0.5011
17365TIP3    H173510   5.637   1.023   4.253  0.4792  0.9735  1.7242
17365TIP3    H273511   5.599   0.925   4.362 -0.5871 -0.1490  0.3930
17366TIP3   OH273512   4.413   4.004   2.762 -0.1215 -0.3381  0.4528
17366TIP3    H173513   4.470   4.003   2.685 -0.9644  0.1902 -0.1933
17366TIP3    H273514   4.388   3.913   2.775 -0.1130 -0.4094 -0.0070
17367TIP3   OH273515   6.250   0.142  12.613 -0.6205 -0.1723 -0.3047
17367TIP3    H173516   6.156   0.130  12.601 -1.0337  1.4205  0.9508
17367TIP3    H273517   6.264   0.236  12.598  1.0120 -0.6086 -1.8040
17368TIP3   OH273518   6.575   0.753  11.116 -0.3619  0.6118  0.2757
17368TIP3    H173519   6.585   0.847  11.103  0.7598  0.4317 -0.2846
17368TIP3    H273520   6.546   0.720  11.030 -3.8729  0.7970  1.2222
17369TIP3   OH273521   6.585   4.482  14.470  0.3217  0.1226 -0.2368
17369TIP3    H173522   6.666   4.446  14.505  0.0912  0.0218  0.1956
17369TIP3    H273523   6.518   4.417  14.491  0.1472  0.1483 -0.7015
17370TIP3   OH273524   0.234   4.224   2.516  0.4469  0.1981  0.9136
17370TIP3    H173525   0.180   4.153   2.551  1.6928 -0.5297  1.4422
17370TIP3    H273526   0.284   4.256   2.592  0.7044  0.8992  0.4633
17371TIP3   OH273527   4.307   6.478  16.770  0.7172 -0.1820  0.2887
17371TIP3    H173528   4.227   6.528  16.752  0.7959 -0.4101 -0.7442
17371TIP3    H273529   4.285   6.388  16.746  1.0463 -0.3887  0.7408
17372TIP3   OH273530   4.249   5.848  15.305  0.4301 -0.5816  0.7325
17372TIP3    H173531   4.213   5.767  15.269  1.7039 -1.6795  1.8384
17372TIP3    H273532   4.184   5.876  15.370 -2.4481  2.0030 -2.8023
17373TIP3   OH273533   5.744   2.537  15.886  0.2103  0.3270 -0.2285
17373TIP3    H173534   5.747   2.590  15.806 -1.2528  0.7669 -0.0131
17373TIP3    H273535   5.679   2.470  15.868 -0.3829  0.6400  0.7149
17374TIP3   OH273536   1.645   6.721   0.061 -0.5490  0.0313  0.7131
17374TIP3    H173537   1.671   6.672  -0.017 -0.3369 -0.6086  1.1779
17374TIP3    H273538   1.550   6.726   0.055 -0.4031  2.4724 -1.0578
17375TIP3   OH273539   1.548   4.604   5.115  0.0036  0.1207  0.4251
17375TIP3    H173540   1.612   4.662   5.158  1.8441 -1.7969  0.4259
17375TIP3    H273541   1.484   4.585   5.183  0.0694  1.1163  0.7921
17376TIP3   OH273542   0.629   4.178  15.456  0.0712  0.0007 -0.2888
17376TIP3    H173543   0.710   4.152  15.499  0.0692 -0.9668 -0.8576
17376TIP3    H273544   0.631   4.136  15.370 -1.4841 -0.8797  0.0554
17377TIP3   OH273545   5.976   0.078   5.038  0.2823  0.5377 -0.5974
17377TIP3    H173546   6.061   0.115   5.063  0.1579 -0.7696  2.1227
17377TIP3    H273547   5.916   0.153   5.037  0.5274  0.8726  2.3300
17378TIP3   OH273548   0.174   2.735  15.851  0.2381  0.1493  0.3465
17378TIP3    H173549   0.145   2.816  15.892  0.7098  0.0146  0.9453
17378TIP3    H273550   0.101   2.710  15.794  1.1633  2.4691 -2.0503
17379TIP3   OH273551   5.286   2.739   4.465 -0.0707  0.6608  0.1680
17379TIP3    H173552   5.213   2.724   4.405 -1.6715  1.8654  1.7064
17379TIP3    H273553   5.268   2.682   4.540  0.2210  1.4403  0.8452
17380TIP3   OH273554   1.119   0.312   4.435 -0.1641 -0.5413 -0.5061
17380TIP3    H173555   1.040   0.282   4.478  0.5454  0.4246  1.5815
17380TIP3    H273556   1.132   0.402   4.465  1.3789 -0.4508 -1.2903
17381TIP3   OH273557   3.310   4.115   3.916 -0.5959 -0.1172 -0.2055
17381TIP3    H173558   3.354   4.167   3.849 -0.3765 -0.5348 -0.3899
17381TIP3    H273559   3.326   4.024   3.890  2.3746 -0.4096  2.1880
17382TIP3   OH273560   5.126   4.193   3.198 -0.3529 -0.1656 -0.1260
17382TIP3    H173561   5.175   4.143   3.132 -2.6789 -3.1009  0.1345
17382TIP3    H273562   5.055   4.234   3.149 -0.7668 -0.4772  0.2026
17383TIP3   OH273563   2.237   0.593   2.556 -0.0190 -0.6569  0.4815
17383TIP3    H173564   2.225   0.579   2.462  1.1940 -1.1227  0.3870
17383TIP3    H273565   2.201   0.514   2.597  0.3090 -0.8745  0.3516
17384TIP3   OH273566   0.060   6.672   1.364  0.2760 -0.2372  0.2040
17384TIP3    H173567   0.149   6.697   1.388  0.2902  1.1404 -1.0907
17384TIP3    H273568   0.028   6.745   1.311 -1.0711 -1.3875 -0.6641
17385TIP3   OH273569   1.588   5.620  13.881  0.0646 -0.3232 -0.0048
17385TIP3    H173570   1.493   5.623  13.876 -0.1469 -0.4411  2.8100
17385TIP3    H273571   1.616   5.711  13.881 -0.0795 -0.2796 -0.0191
17386TIP3   OH273572   4.208   1.267   3.839  0.2633  0.1902  0.2660
17386TIP3    H173573   4.177   1.321   3.767  1.0981 -0.6537 -0.7606
17386TIP3    H273574   4.165   1.182   3.826  0.9203 -0.1694  0.3779
17387TIP3   OH273575   5.345   5.779  14.827 -0.2618  0.7010 -0.6952
17387TIP3    H173576   5.293   5.836  14.884  0.1575  0.4869 -0.0912
17387TIP3    H273577   5.433   5.816  14.832  0.3414 -0.8374  0.8567
17388TIP3   OH273578   5.097   3.145  12.820 -0.5583  0.4841 -0.2237
17388TIP3    H173579   5.146   3.228  12.815  0.0748  0.1483  0.2502
17388TIP3    H273580   5.052   3.149  12.904  0.6913 -0.2899  0.5215
17389TIP3   OH273581   4.016   3.487  14.011  0.2101 -0.0602 -0.1941
17389TIP3    H173582   4.017   3.549  14.084  1.0162  1.4939 -1.4937
17389TIP3    H273583   4.107   3.480  13.983  0.0964 -1.5880 -0.3178
17390TIP3   OH273584   4.276   3.777   2.795 -0.4732 -0.2639  0.0094
17390TIP3    H173585   4.296   3.683   2.793 -0.5781 -0.3215 -2.6162
17390TIP3    H273586   4.186   3.783   2.764  0.0296  0.7496 -1.3656
17391TIP3   OH273587   2.199   6.047  16.722 -0.2254 -0.4189 -0.0491
17391TIP3    H173588   2.159   5.971  16.680 -0.5054  0.0803 -0.7179
17391TIP3    H273589   2.247   6.090  16.651  2.5293 -1.6261  0.9586
17392TIP3   OH273590   0.798   4.905  12.848  0.3815  0.3277 -0.2870
17392TIP3    H173591   0.867   4.840  12.861 -0.1482  0.1520  2.2040
17392TIP3    H273592   0.722   4.854  12.820 -0.7457 -0.7309  3.9213
17393TIP3   OH273593   2.483   2.843  16.319 -0.0791  0.4212 -0.3454
17393TIP3    H173594   2.519   2.800  16.242 -3.1647 -1.0301 -1.1382
17393TIP3    H273595   2.494   2.779  16.390 -0.1831  0.3757 -0.3697
17394TIP3   OH273596   4.999   0.025  16.852 -0.3441  0.2114 -0.6247
17394TIP3    H173597   4.979   0.115  16.828  0.7437  0.5597 -0.3248
17394TIP3    H273598   4.989   0.023  16.948  0.0796  0.1505 -0.5776
17395TIP3   OH273599   3.668   0.240  12.688  0.4634  0.3984  0.1951
17395TIP3    H173600   3.710   0.170  12.737 -1.4128  0.6565  2.3624
17395TIP3    H273601   3.591   0.198  12.648  0.8081  0.6646 -0.7689
17396TIP3   OH273602   6.352   6.103   4.214 -0.4216  0.1648 -0.1584
17396TIP3    H173603   6.395   6.060   4.140  0.6739  0.2079  0.4311
17396TIP3    H273604   6.269   6.134   4.178 -0.8553 -1.6324 -0.8429
17397TIP3   OH273605   3.448   0.445  12.926 -0.4725  0.7524 -0.1425
17397TIP3    H173606   3.521   0.464  12.985  0.4560  0.8795 -1.2888
17397TIP3    H273607   3.489   0.431  12.841 -1.7220  0.0006 -0.6520
17398TIP3   OH273608   0.810   4.301   3.907  0.4697  0.3012 -0.0246
17398TIP3    H173609   0.881   4.351   3.946  0.2425  0.4867  0.1552
17398TIP3    H273610   0.743   4.366   3.886  0.5645  0.1982 -0.6755
17399TIP3   OH273611   3.110   0.522   4.452  0.0433 -0.0259  0.0612
17399TIP3    H173612   3.131   0.542   4.361  1.1114  0.5492  0.4251
17399TIP3    H273613   3.031   0.573   4.471 -0.1856 -0.1542 -0.5326
17400TIP3   OH273614   1.015   0.868   5.735 -0.7153  0.5454  0.1371
17400TIP3    H173615   1.025   0.776   5.713 -0.2223  0.4886  0.5934
17400TIP3    H273616   0.921   0.882   5.737 -0.8194  0.5896 -2.1460
17401TIP3   OH273617   4.398   6.529   2.728 -0.0029 -0.4196  0.0884
17401TIP3    H173618   4.328   6.583   2.693  0.2602  0.5447  0.9927
17401TIP3    H273619   4.365   6.499   2.813  0.7214  0.1741  0.5937
17402TIP3   OH273620   4.892   0.589   4.835  0.0270  0.8893  0.3236
17402TIP3    H173621   4.983   0.561   4.826 -0.3946 -0.3924 -0.1993
17402TIP3    H273622   4.890   0.638   4.917  0.5047 -2.1494  2.3455
17403TIP3   OH273623   0.201   5.979   2.428  0.1882 -0.3952 -0.1194
17403TIP3    H173624   0.223   5.890   2.400  0.9541  0.4031 -2.3203
17403TIP3    H273625   0.116   5.970   2.472  0.1655 -2.1804 -0.4412
17404TIP3   OH273626   4.215   4.264   4.644 -0.2293 -0.1076  0.3280
17404TIP3    H173627   4.287   4.301   4.594 -1.5159  0.9368 -0.8381
17404TIP3    H273628   4.251   4.249   4.731  1.2450  0.8473 -0.0895
17405TIP3   OH273629   0.653   1.370  13.609 -0.0257 -0.0645  0.0819
17405TIP3    H173630   0.654   1.380  13.704  1.7900  1.2010 -0.0190
17405TIP3    H273631   0.730   1.317  13.590 -0.9469 -1.1992 -0.6376
17406TIP3   OH273632   1.229   6.454  13.166 -0.2406 -0.1290 -0.1950
17406TIP3    H173633   1.302   6.398  13.191 -0.4812 -1.5030 -2.3823
17406TIP3    H273634   1.231   6.456  13.071 -2.4461  0.6385 -0.2852
17407TIP3   OH273635   5.262   5.004   5.848  0.0624  0.3594 -0.7943
17407TIP3    H173636   5.305   5.083   5.880 -2.8555  2.8828 -2.5118
17407TIP3    H273637   5.226   4.962   5.926  0.8544  1.2405  0.0607
17408TIP3   OH273638   4.539   5.486  11.513 -0.3815  0.3812  0.2331
17408TIP3    H173639   4.492   5.461  11.593  0.0229  1.4829  0.8243
17408TIP3    H273640   4.608   5.420  11.505  0.2099  0.8194  1.3669
17409TIP3   OH273641   4.495   4.348  16.512 -0.3001  0.3337 -0.2137
17409TIP3    H173642   4.549   4.273  16.489 -1.9246 -0.7808 -0.5824
17409TIP3    H273643   4.478   4.339  16.606 -0.3036  0.3631 -0.2114
17410TIP3   OH273644   5.800   0.401  15.479 -0.3627  0.1745  0.0133
17410TIP3    H173645   5.861   0.339  15.520  0.6085  1.4713  0.5825
17410TIP3    H273646   5.845   0.485  15.483 -2.4786  1.3279  1.0853
17411TIP3   OH273647   1.537   0.595   5.865 -0.0662  0.2167  0.6831
17411TIP3    H173648   1.463   0.580   5.924 -0.0390 -1.0063  0.4401
17411TIP3    H273649   1.525   0.532   5.794 -0.8895  2.5997 -1.4555
17412TIP3   OH273650   3.572   3.817  11.724  0.1449  0.5094 -0.4834
17412TIP3    H173651   3.653   3.819  11.673  0.2209  1.1274 -0.3411
17412TIP3    H273652   3.601   3.823  11.815 -0.0661  0.8825 -0.4380
17413TIP3   OH273653   4.228   1.461  15.881 -0.1801  0.1377 -0.5660
17413TIP3    H173654   4.200   1.440  15.791 -0.7132 -0.3492 -0.2922
17413TIP3    H273655   4.205   1.383  15.931 -1.6894  1.1545  0.3860
17414TIP3   OH273656   3.717   5.718   1.567 -0.6762  0.3080 -0.4189
17414TIP3    H173657   3.807   5.691   1.584  0.2773  2.4426 -1.7744
17414TIP3    H273658   3.673   5.637   1.539  0.9555 -0.6657 -0.2711
17415TIP3   OH273659   2.258   0.539  14.961  0.3241 -0.0706  0.3983
17415TIP3    H173660   2.300   0.456  14.937  0.3813  0.1335 -0.2519
17415TIP3    H273661   2.327   0.605  14.949 -0.1889  0.2822 -0.7940
17416TIP3   OH273662   4.170   4.222  15.250 -0.4776 -0.2590  0.5256
17416TIP3    H173663   4.074   4.223  15.242 -0.6880 -2.5165  1.7875
17416TIP3    H273664   4.201   4.189  15.166 -0.6216  1.8823 -0.4518
17417TIP3   OH273665   0.852   6.423  12.113  0.4144  0.1774 -0.0505
17417TIP3    H173666   0.808   6.491  12.063  1.1115  1.9831  1.6415
17417TIP3    H273667   0.796   6.346  12.103 -1.4608  1.5162 -0.4799
17418TIP3   OH273668   0.894   4.306  10.811  0.2638  0.1379 -0.1889
17418TIP3    H173669   0.890   4.216  10.843  2.6558 -0.6226 -1.7181
17418TIP3    H273670   0.847   4.303  10.727  1.4256 -0.0455 -0.8550
17419TIP3   OH273671   2.472   3.085   4.395 -0.9628  0.8187  0.7473
17419TIP3    H173672   2.432   3.040   4.321 -0.3872  0.0683  0.8796
17419TIP3    H273673   2.522   3.157   4.356 -0.5907  0.3753  0.3980
17420TIP3   OH273674   1.055   3.512  10.496  0.1684 -0.4545  0.2254
17420TIP3    H173675   1.142   3.548  10.479  0.4284 -1.2837 -0.2520
17420TIP3    H273676   1.005   3.585  10.532  0.5247  0.5471 -1.2214
17421TIP3   OH273677   3.458   6.588   1.855 -0.4182  0.4786 -0.0090
17421TIP3    H173678   3.481   6.562   1.944 -1.1228  1.3178  0.4280
17421TIP3    H273679   3.515   6.534   1.799 -1.1566 -1.3190  0.8809
17422TIP3   OH273680   3.083   4.716   6.310  0.2980 -0.6369 -0.4885
17422TIP3    H173681   3.074   4.810   6.324 -0.0774 -0.7904  0.4034
17422TIP3    H273682   2.996   4.686   6.286  0.3560 -0.7921 -0.5123
17423TIP3   OH273683   6.347   1.752   0.093 -0.3162  0.2035 -0.0781
17423TIP3    H173684   6.322   1.794   0.176  0.5174  0.6583 -0.0403
17423TIP3    H273685   6.443   1.761   0.090 -0.3173  0.0103 -0.9924
17424TIP3   OH273686   0.109   4.728   1.281  0.6512 -0.3134  0.6226
17424TIP3    H173687   0.040   4.663   1.296 -0.0087  0.4655  1.0506
17424TIP3    H273688   0.073   4.786   1.214  0.4890  0.6524  1.5284
17425TIP3   OH273689   1.165   6.339   6.853 -0.2973 -0.6006 -0.3286
17425TIP3    H173690   1.077   6.377   6.849 -0.2474 -0.4064 -5.0051
17425TIP3    H273691   1.162   6.267   6.789  3.0097 -0.4067 -0.8414
17426TIP3   OH273692   5.267   4.098  11.421 -0.1136 -0.1219  0.5383
17426TIP3    H173693   5.231   4.021  11.465 -0.3712 -0.7701 -0.7368
17426TIP3    H273694   5.359   4.077  11.408 -0.5671 -1.1234 -1.5306
17427TIP3   OH273695   6.129   1.432  13.169  0.4533 -0.3000  0.1838
17427TIP3    H173696   6.037   1.409  13.178  0.4626 -1.1580 -1.5615
17427TIP3    H273697   6.170   1.354  13.132  1.6412  0.5001 -0.2580
17428TIP3   OH273698   1.220   6.695   6.191  0.0229  0.3088  0.3307
17428TIP3    H173699   1.149   6.648   6.236 -0.0467  0.4341  0.3516
17428TIP3    H273700   1.177   6.770   6.151 -0.0763 -0.2784 -0.6981
17429TIP3   OH273701   2.776   1.631  12.566  0.2656 -0.0437 -0.1957
17429TIP3    H173702   2.870   1.647  12.562  0.3586 -0.3007  0.7147
17429TIP3    H273703   2.749   1.670  12.650 -0.1154 -1.5494  0.4132
17430TIP3   OH273704   4.990   3.368   5.865  0.5173  0.0119  0.0327
17430TIP3    H173705   4.994   3.304   5.794 -1.1171  0.5951 -0.6329
17430TIP3    H273706   5.081   3.396   5.877  0.7503  0.6647 -2.5810
17431TIP3   OH273707   3.291   5.286  11.097 -0.1818 -0.4089 -0.1638
17431TIP3    H173708   3.248   5.247  11.021  0.1031 -0.9375 -0.0546
17431TIP3    H273709   3.357   5.222  11.123 -0.1497 -0.1453  0.4156
17432TIP3   OH273710   6.264   1.234   5.992  0.2497  0.1613  0.3962
17432TIP3    H173711   6.183   1.230   6.042  0.0471  1.4967  0.1979
17432TIP3    H273712   6.324   1.285   6.047  1.3691 -1.7521  1.0651
17433TIP3   OH273713   4.668   1.541   5.724 -0.2998 -0.3298 -0.1065
17433TIP3    H173714   4.573   1.545   5.731 -0.5146 -3.2478 -0.1960
17433TIP3    H273715   4.699   1.532   5.814 -0.1489 -0.0138 -0.1256
17434TIP3   OH273716   1.237   0.623  14.186  0.6415  0.4207 -0.8210
17434TIP3    H173717   1.177   0.682  14.140  0.8237  0.7446 -0.6446
17434TIP3    H273718   1.323   0.641  14.149  0.8164  0.8037 -0.2399
17435TIP3   OH273719   3.048   3.936  13.826  0.1402 -0.2277  0.2005
17435TIP3    H173720   2.967   3.890  13.803 -0.3352 -0.0010  1.3837
17435TIP3    H273721   3.023   3.998  13.894  0.7159  1.9838 -1.4618
17436TIP3   OH273722   0.895   2.229   3.317 -0.2126  0.2185  0.1247
17436TIP3    H173723   0.987   2.202   3.314 -0.8306 -2.1342  0.6660
17436TIP3    H273724   0.846   2.149   3.335 -2.4651  1.2796 -0.8075
17437TIP3   OH273725   1.630   2.546   5.069 -0.5054  0.7456 -0.0478
17437TIP3    H173726   1.617   2.636   5.099  0.3903  0.8085  0.1915
17437TIP3    H273727   1.714   2.520   5.108 -0.1134  0.2670 -1.1761
17438TIP3   OH273728   0.191   1.943   6.188  0.3322 -0.0704  0.4360
17438TIP3    H173729   0.157   1.860   6.154 -1.2773  0.5189  0.5019
17438TIP3    H273730   0.123   2.007   6.166  1.7605  1.3487 -0.0652
17439TIP3   OH273731   3.933   1.169  12.593 -0.5679 -0.5268  0.0249
17439TIP3    H173732   3.932   1.234  12.662 -0.3267 -1.5013  0.9713
17439TIP3    H273733   3.842   1.164  12.564 -0.6101  0.1250  0.0371
17440TIP3   OH273734   3.520   0.456  13.835 -0.0647  0.6030 -0.2405
17440TIP3    H173735   3.437   0.466  13.787  0.1472 -0.4993 -0.8696
17440TIP3    H273736   3.580   0.418  13.771  0.7015  0.6423  0.4423
17441TIP3   OH273737   3.183   1.709  13.672  0.5852 -0.1124 -0.4414
17441TIP3    H173738   3.124   1.750  13.736  0.2992  0.2110 -0.9034
17441TIP3    H273739   3.126   1.687  13.598  0.6980 -1.5553 -0.1140
17442TIP3   OH273740   0.440   4.063  16.553 -0.2109 -0.1279 -0.4063
17442TIP3    H173741   0.466   4.126  16.619 -1.6302  1.7034 -1.4941
17442TIP3    H273742   0.491   3.985  16.573  1.5667  1.3123  1.0501
17443TIP3   OH273743   4.898   0.009  10.663  0.4201 -0.3058  0.4984
17443TIP3    H173744   4.987   0.040  10.680  0.5382  0.4526 -1.2605
17443TIP3    H273745   4.862   0.072  10.601  0.1555 -2.8180 -2.1206
17444TIP3   OH273746   2.144   3.677  13.695  0.2513  0.5398 -0.4569
17444TIP3    H173747   2.080   3.616  13.731 -1.8031  2.8151 -0.0097
17444TIP3    H273748   2.196   3.704  13.771 -1.2273  2.0178  0.0912
17445TIP3   OH273749   1.757   6.384   2.827  0.1649 -0.0100  0.0040
17445TIP3    H173750   1.755   6.290   2.810 -4.4200 -0.5089  1.9016
17445TIP3    H273751   1.744   6.392   2.921 -0.0882  2.5576 -0.1775
17446TIP3   OH273752   5.929   1.225   5.142 -0.1361  0.2667 -0.2834
17446TIP3    H173753   6.001   1.188   5.092 -1.7517 -0.1863 -2.4492
17446TIP3    H273754   5.850   1.189   5.101 -1.6488  1.6397  1.2264
17447TIP3   OH273755   3.445   3.545   0.699  0.0141 -0.4395  0.0203
17447TIP3    H173756   3.424   3.638   0.704  1.1652 -0.1081 -0.8007
17447TIP3    H273757   3.395   3.504   0.770 -1.3004  0.6477 -0.2445
17448TIP3   OH273758   6.189   2.116  12.313  0.0084  0.3971  0.1814
17448TIP3    H173759   6.196   2.122  12.408  0.1724  1.3731  0.1146
17448TIP3    H273760   6.277   2.137  12.281  0.0749 -0.3771 -0.1784
17449TIP3   OH273761   5.758   0.018  13.456 -0.3721  1.1007 -0.1243
17449TIP3    H173762   5.732   0.017  13.548  0.4151 -0.3258  0.1144
17449TIP3    H273763   5.740  -0.072  13.426  0.6335  1.1707 -0.9870
17450TIP3   OH273764   2.027   0.477  15.744 -1.1085 -0.6234 -0.2656
17450TIP3    H173765   2.101   0.445  15.692 -0.6874 -1.4386  0.8134
17450TIP3    H273766   1.950   0.457  15.690 -0.6255 -0.7490 -0.9210
17451TIP3   OH273767   4.866   1.437   2.481  0.8423 -0.8636  0.1782
17451TIP3    H173768   4.874   1.477   2.395  1.3899 -0.2642  0.4941
17451TIP3    H273769   4.779   1.462   2.511  0.6967 -0.9734 -0.1559
17452TIP3   OH273770   2.848   2.231   0.911  0.6447 -0.3781  0.1580
17452TIP3    H173771   2.913   2.189   0.855  1.7620 -0.7092  1.6350
17452TIP3    H273772   2.814   2.303   0.859  1.8051 -0.5360 -0.8637
17453TIP3   OH273773   2.927   1.131   4.884  0.1849  0.0037 -0.3319
17453TIP3    H173774   2.838   1.096   4.875 -0.3599  1.4824 -1.1256
17453TIP3    H273775   2.914   1.225   4.901  1.5891  0.4420 -1.4963
17454TIP3   OH273776   3.438   6.036  17.140  0.2396 -0.1131  0.7766
17454TIP3    H173777   3.370   6.070  17.081  1.8756 -0.1447 -1.2583
17454TIP3    H273778   3.491   5.977  17.085  3.4791  1.9023  1.4356
17455TIP3   OH273779   4.823   0.475   4.277 -0.0769 -0.7245 -0.1468
17455TIP3    H173780   4.840   0.427   4.195 -2.4736 -0.8361 -0.6628
17455TIP3    H273781   4.820   0.567   4.251  2.3524 -0.4118  0.4572
17456TIP3   OH273782   6.545   5.340  11.835  0.3788  0.2148  0.1292
17456TIP3    H173783   6.456   5.315  11.863  1.0361 -0.5407  1.6526
17456TIP3    H273784   6.602   5.279  11.881  1.6519 -0.1312 -1.8218
17457TIP3   OH273785   3.471   3.128  11.477 -0.2054 -0.8317 -0.2765
17457TIP3    H173786   3.490   3.067  11.406  0.6082  0.0040 -0.8029
17457TIP3    H273787   3.556   3.166  11.500 -0.4645 -0.9943  1.0805
17458TIP3   OH273788   2.654   2.994  14.290 -0.3699  0.4343 -0.6518
17458TIP3    H173789   2.565   2.986  14.256 -1.2919  0.7970  1.5113
17458TIP3    H273790   2.671   2.909  14.331 -0.1867  0.7519 -0.0529
17459TIP3   OH273791   3.337   3.170  15.746 -0.3595 -0.3048 -0.3491
17459TIP3    H173792   3.270   3.238  15.738  0.4002  0.7263  1.5568
17459TIP3    H273793   3.418   3.217  15.764  0.6593 -1.6066 -1.2854
17460TIP3   OH273794   0.389   2.913   4.617 -0.3615  0.4850 -0.3208
17460TIP3    H173795   0.426   2.843   4.671 -0.6511  1.4194  1.1193
17460TIP3    H273796   0.314   2.872   4.574 -2.2347  0.5332  2.6321
17461TIP3   OH273797   3.915   2.521   0.693  0.1519 -0.6798 -0.2504
17461TIP3    H173798   3.900   2.571   0.773 -0.9425 -0.4743 -0.5664
17461TIP3    H273799   3.943   2.586   0.629  0.4244 -0.7500 -0.2054
17462TIP3   OH273800   6.191   0.379   2.375 -0.3931 -0.6426 -0.0013
17462TIP3    H173801   6.115   0.392   2.431 -2.0305  0.0336 -2.2440
17462TIP3    H273802   6.163   0.312   2.312  0.8233 -0.3109 -0.9325
17463TIP3   OH273803   5.508   4.469  15.064  0.5991  0.2265 -0.2252
17463TIP3    H173804   5.537   4.560  15.062 -1.1662  0.8145 -1.5931
17463TIP3    H273805   5.544   4.435  15.146 -0.3544  2.7339  1.3746
17464TIP3   OH273806   1.768   6.362   2.124  0.4009  0.9595  0.1077
17464TIP3    H173807   1.823   6.379   2.201 -1.5743 -0.5805  1.9853
17464TIP3    H273808   1.829   6.329   2.058  1.7186 -1.1794  2.2602
17465TIP3   OH273809   4.390   4.076   3.831  0.5091  0.4726 -0.2734
17465TIP3    H173810   4.446   4.131   3.885 -0.6360  2.0106 -0.5666
17465TIP3    H273811   4.402   3.988   3.865 -1.8017  1.5415  4.1427
17466TIP3   OH273812   1.736   6.611   6.300 -0.1241  0.4260 -0.0545
17466TIP3    H173813   1.699   6.534   6.344 -1.2323  1.2409  0.5099
17466TIP3    H273814   1.787   6.575   6.228 -0.5732 -0.8416  0.2227
17467TIP3   OH273815   4.440   3.862  15.991 -1.1707  0.6150  0.6918
17467TIP3    H173816   4.393   3.897  16.067  0.3400  0.8389  1.5599
17467TIP3    H273817   4.504   3.802  16.028 -1.8649 -1.0112 -0.5962
17468TIP3   OH273818   2.680   1.510  14.560  0.3029  0.0851 -0.1451
17468TIP3    H173819   2.666   1.449  14.487 -1.4625  0.0613  0.1670
17468TIP3    H273820   2.594   1.551  14.573  1.5520  3.1243 -0.7473
17469TIP3   OH273821   5.026   2.836  15.050 -0.3196  0.3400 -0.4042
17469TIP3    H173822   5.051   2.758  15.000 -0.8925  0.2844 -0.6111
17469TIP3    H273823   5.000   2.803  15.136 -0.3636  0.3282 -0.4225
17470TIP3   OH273824   4.084   0.844   2.886  0.1064 -0.3341  0.4689
17470TIP3    H173825   3.989   0.859   2.893  0.0783 -0.6922  0.9120
17470TIP3    H273826   4.101   0.772   2.946  1.0275  1.1953  2.1352
17471TIP3   OH273827   3.094   4.159  10.449  0.1537 -0.0093 -0.5156
17471TIP3    H173828   3.027   4.215  10.488  0.8964  0.3720  0.2316
17471TIP3    H273829   3.046   4.080  10.423 -0.5210  0.1040  0.3347
17472TIP3   OH273830   1.817   5.381  13.692 -0.1177  0.5485 -0.9834
17472TIP3    H173831   1.875   5.308  13.716 -2.8553 -0.9265  1.8263
17472TIP3    H273832   1.835   5.396  13.599  3.7706 -0.6033 -0.5917
17473TIP3   OH273833   5.753   3.408   1.438  0.1792  0.1282  0.0295
17473TIP3    H173834   5.683   3.405   1.373 -0.6871 -2.1304  0.9516
17473TIP3    H273835   5.748   3.496   1.475  0.0779  1.1388 -2.2405
17474TIP3   OH273836   5.369   3.811  13.234 -0.8879  0.0997  0.2173
17474TIP3    H173837   5.378   3.717  13.218 -3.5864 -0.5050  1.6178
17474TIP3    H273838   5.274   3.826  13.237 -0.5356  2.8462  0.2375
17475TIP3   OH273839   6.027   0.870  13.550  0.3266  0.4225  0.7041
17475TIP3    H173840   6.061   0.831  13.631  2.3010 -0.0275 -0.2804
17475TIP3    H273841   6.060   0.959  13.550  0.4417  0.3818  0.3298
17476TIP3   OH273842   5.482   0.247  12.597 -0.3104 -0.2614 -0.0404
17476TIP3    H173843   5.406   0.193  12.618  0.3587 -0.8499  0.9532
17476TIP3    H273844   5.539   0.190  12.544 -0.3293  0.0139 -0.3628
17477TIP3   OH273845   6.554   3.122   4.903 -0.1329  0.3054 -0.1845
17477TIP3    H173846   6.617   3.135   4.974  1.5153 -0.3173 -1.4704
17477TIP3    H273847   6.469   3.129   4.946  0.7421 -2.1745  2.3052
17478TIP3   OH273848   5.471   1.030  15.554  0.0630  0.5831  0.1664
17478TIP3    H173849   5.525   1.054  15.629  0.4844  2.1320 -0.5832
17478TIP3    H273850   5.533   0.990  15.493  0.1919  1.4634 -0.2935
17479TIP3   OH273851   1.155   5.967   1.822 -0.0759  0.1878  0.2139
17479TIP3    H173852   1.094   5.974   1.896  0.7205  1.3892  0.7962
17479TIP3    H273853   1.241   5.961   1.863  0.3618  0.6297 -0.6209
17480TIP3   OH273854   5.287   3.088  12.159 -0.1137  0.0081 -0.2947
17480TIP3    H173855   5.238   3.025  12.105  0.3606 -0.4502 -0.1945
17480TIP3    H273856   5.220   3.149  12.190 -0.4391  0.1455 -1.2081
17481TIP3   OH273857   6.737   3.333   2.495 -0.5023  0.3791 -0.3848
17481TIP3    H173858   6.808   3.313   2.435 -0.5604 -1.0255 -0.0171
17481TIP3    H273859   6.769   3.406   2.547  0.0738  0.7377 -1.2253
17482TIP3   OH273860   3.030   0.338   2.182 -0.0558  0.4642 -0.4105
17482TIP3    H173861   2.945   0.316   2.142 -0.9578  0.7710  1.2593
17482TIP3    H273862   3.052   0.423   2.144  0.1219 -0.1430 -1.7494
17483TIP3   OH273863   1.384   0.913  16.690  0.6212 -0.9647 -0.9932
17483TIP3    H173864   1.396   0.980  16.622 -0.0141 -0.8887 -1.0305
17483TIP3    H273865   1.447   0.844  16.666  3.6940  0.9715  0.8362
17484TIP3   OH273866   6.252   2.106   0.234  0.2549 -0.4758 -0.1757
17484TIP3    H173867   6.265   2.191   0.192 -3.0496  1.1025  1.6895
17484TIP3    H273868   6.229   2.126   0.324 -0.8220 -3.3336  0.2958
17485TIP3   OH273869   3.800   6.492   3.987 -0.7332 -0.1657 -0.2954
17485TIP3    H173870   3.830   6.446   4.065  0.4532 -0.6553 -1.0139
17485TIP3    H273871   3.835   6.581   3.997  0.1073 -0.4519 -0.6426
17486TIP3   OH273872   6.005   6.170   3.155 -0.4705 -0.0207 -0.4200
17486TIP3    H173873   6.053   6.243   3.116 -0.7269  0.6147  0.4307
17486TIP3    H273874   6.054   6.148   3.234 -0.1146 -1.1062 -0.9264
17487TIP3   OH273875   1.318   4.364   2.613  0.0910 -0.6101  0.3638
17487TIP3    H173876   1.318   4.349   2.519 -0.8078 -0.7273  0.3787
17487TIP3    H273877   1.321   4.276   2.651 -1.5268 -0.6623  0.4372
17488TIP3   OH273878   2.589   5.366   6.011 -0.0849 -0.0844  0.3961
17488TIP3    H173879   2.658   5.424   6.045 -0.8724  0.3245  1.3424
17488TIP3    H273880   2.635   5.307   5.952  0.9903  0.5469  0.5638
17489TIP3   OH273881   6.754   3.830  11.118  0.4961 -0.3030  0.1190
17489TIP3    H173882   6.740   3.893  11.189  0.1908 -0.3016  0.0591
17489TIP3    H273883   6.830   3.779  11.146  0.3260 -0.3566  0.4847
17490TIP3   OH273884   1.224   1.681   4.533  0.1602 -0.4336  0.4479
17490TIP3    H173885   1.161   1.609   4.532  1.4873 -1.6797 -1.6211
17490TIP3    H273886   1.180   1.752   4.487 -0.6036 -0.4133  1.1828
17491TIP3   OH273887   3.857   5.810   5.807 -0.5958 -0.2097  0.3532
17491TIP3    H173888   3.912   5.881   5.773 -1.8097 -0.8449 -3.4732
17491TIP3    H273889   3.789   5.855   5.857  0.3636  1.0048  0.6348
17492TIP3   OH273890   6.481   2.937   5.790 -0.1015 -0.6433 -0.2575
17492TIP3    H173891   6.428   2.929   5.870 -1.3338 -1.4695 -1.1225
17492TIP3    H273892   6.556   2.990   5.817 -0.3226 -1.1614  1.5252
17493TIP3   OH273893   0.676   5.357   1.072  0.1753  0.0350  0.0501
17493TIP3    H173894   0.583   5.362   1.053  0.1759 -0.0816  0.0146
17493TIP3    H273895   0.716   5.323   0.992  0.0310 -1.6169  0.6409
17494TIP3   OH273896   2.518   0.566   2.223 -0.7474 -0.2785  0.0371
17494TIP3    H173897   2.520   0.503   2.151  0.6216  0.1967 -0.3666
17494TIP3    H273898   2.525   0.651   2.180  0.9884 -0.0280  0.7618
17495TIP3   OH273899   0.992   2.382  13.262  0.1176 -0.1613  0.3581
17495TIP3    H173900   0.996   2.476  13.245 -2.5927  0.1084  0.8076
17495TIP3    H273901   0.924   2.350  13.202  1.7679 -2.0930 -0.6048
17496TIP3   OH273902   2.615   0.830  11.366  0.4861 -0.2180 -0.3472
17496TIP3    H173903   2.577   0.882  11.296  1.8475 -1.1117 -1.8035
17496TIP3    H273904   2.691   0.880  11.395  1.2779 -0.9490 -1.1326
17497TIP3   OH273905   0.029   4.603  13.384  0.3587  0.5924 -0.4735
17497TIP3    H173906   0.030   4.673  13.448  1.0454 -1.4108  1.8718
17497TIP3    H273907  -0.036   4.541  13.417  1.1228 -0.7546 -1.3969
17498TIP3   OH273908   1.819   3.393  16.447  0.0697 -0.0362  0.4674
17498TIP3    H173909   1.910   3.394  16.417 -0.2534  0.9622 -0.5542
17498TIP3    H273910   1.825   3.412  16.541  0.9727 -1.0515  0.6298
17499TIP3   OH273911   1.835   2.875  14.257  0.3455  0.1163  0.1539
17499TIP3    H173912   1.911   2.902  14.308  0.9725  0.1445 -0.7782
17499TIP3    H273913   1.824   2.782  14.280  0.3086  0.2527  0.7147
17500TIP3   OH273914   0.127   3.648   2.130 -0.4362  0.5176 -0.2086
17500TIP3    H173915   0.065   3.718   2.108 -2.0684 -0.7098  0.2542
17500TIP3    H273916   0.071   3.573   2.151  1.2426 -0.7422 -0.0585
17501TIP3   OH273917   0.585   4.340   4.106 -0.3889  0.1985  0.0211
17501TIP3    H173918   0.526   4.368   4.176 -1.0450  0.8940 -0.7915
17501TIP3    H273919   0.530   4.337   4.028  1.1139  3.5829 -1.3865
17502TIP3   OH273920   2.164   3.574   0.465  0.5020 -0.4016 -0.1348
17502TIP3    H173921   2.103   3.528   0.524  0.2983 -2.1828 -1.6474
17502TIP3    H273922   2.108   3.609   0.396  0.8698  0.7463  0.1264
17503TIP3   OH273923   2.940   4.566  14.576  0.0552  0.4137  0.1729
17503TIP3    H173924   2.989   4.490  14.544 -0.9268  0.4406 -1.4677
17503TIP3    H273925   2.850   4.550  14.548 -0.3771  1.6408  0.8177
17504TIP3   OH273926   3.334   4.114  13.152  0.0327 -0.1011  0.2765
17504TIP3    H173927   3.316   4.060  13.075 -1.7766 -0.9532  1.2252
17504TIP3    H273928   3.402   4.066  13.199 -0.1406 -0.5236  0.1024
17505TIP3   OH273929   1.206   6.445   2.195  0.8302  0.2177 -0.3525
17505TIP3    H173930   1.185   6.512   2.130  2.5237  2.2366  1.0279
17505TIP3    H273931   1.271   6.487   2.252 -0.3589 -1.5050  2.5016
17506TIP3   OH273932   3.786   0.495   3.816 -0.0317  0.2085  0.1654
17506TIP3    H173933   3.753   0.418   3.862  0.7390 -0.2736 -0.0614
17506TIP3    H273934   3.816   0.554   3.885  0.0536 -0.0170  0.3216
17507TIP3   OH273935   1.861   6.320  13.857  0.1276  0.2232 -0.1532
17507TIP3    H173936   1.827   6.341  13.944  0.0528 -0.4838 -0.0042
17507TIP3    H273937   1.955   6.311  13.869  0.0726 -0.2555 -0.0630
17508TIP3   OH273938   5.326   0.456   3.989 -0.0001  0.5492 -0.0586
17508TIP3    H173939   5.265   0.520   4.026 -1.5696 -0.7235 -0.3261
17508TIP3    H273940   5.345   0.490   3.902 -1.1427  0.4945 -0.3558
17509TIP3   OH273941   1.499   0.801  11.931  0.1917 -0.0192 -0.4895
17509TIP3    H173942   1.423   0.803  11.874 -0.0668  0.7189 -0.1343
17509TIP3    H273943   1.496   0.715  11.973 -0.8534  0.2745  0.0683
17510TIP3   OH273944   2.914   4.455   3.441 -0.2031 -0.3586 -0.4249
17510TIP3    H173945   2.894   4.507   3.519  1.4791 -2.0462  1.2637
17510TIP3    H273946   2.828   4.428   3.408 -0.9812  0.0126  1.1582
17511TIP3   OH273947   0.959   4.307  14.392  0.3525 -0.4267 -0.0487
17511TIP3    H173948   0.879   4.275  14.435 -1.0119  1.5957 -0.8870
17511TIP3    H273949   0.974   4.393  14.431  0.8723  0.1175 -1.3710
17512TIP3   OH273950   4.442   2.420   1.671  0.4481  0.0451 -0.0817
17512TIP3    H173951   4.449   2.405   1.765 -0.2157  0.2807  0.0108
17512TIP3    H273952   4.481   2.506   1.657  1.0396 -0.2228 -0.1037
17513TIP3   OH273953   5.460   4.903   0.490  0.0646 -0.2536 -0.1200
17513TIP3    H173954   5.373   4.931   0.519 -0.5552 -0.2797 -1.8001
17513TIP3    H273955   5.454   4.807   0.487  0.1444 -0.2557 -0.2231
17514TIP3   OH273956   6.192   2.919   1.104  0.3465 -0.6113 -0.0610
17514TIP3    H173957   6.098   2.904   1.113  0.3575 -0.1529  1.0430
17514TIP3    H273958   6.200   3.010   1.076  0.4286 -1.1501 -1.9132
17515TIP3   OH273959   2.164   4.551  13.730 -0.1086  0.2492  0.0170
17515TIP3    H173960   2.110   4.477  13.703 -0.3546  0.1188  0.8364
17515TIP3    H273961   2.229   4.513  13.789  1.1309  0.3443 -1.2560
17516TIP3   OH273962   3.056   3.880   3.991  0.0321 -0.2590 -0.0246
17516TIP3    H173963   2.993   3.897   3.921  0.6335 -0.6734 -0.6914
17516TIP3    H273964   3.142   3.889   3.948  0.4641  1.3032  1.0954
17517TIP3   OH273965   3.288   4.745   5.220 -0.4486 -0.3873  0.1298
17517TIP3    H173966   3.346   4.766   5.293 -2.2434  1.7582  1.0822
17517TIP3    H273967   3.271   4.652   5.228 -0.5765 -0.2145  2.5001
17518TIP3   OH273968   4.720   3.327  14.066  0.0672  0.2044 -0.3943
17518TIP3    H173969   4.739   3.233  14.062  0.7499  0.2375  1.3422
17518TIP3    H273970   4.633   3.335  14.027 -1.0759 -1.5116  1.5642
17519TIP3   OH273971   5.301   0.921   4.281  0.1382 -0.0763  0.1160
17519TIP3    H173972   5.396   0.934   4.272 -0.1243  1.9236 -0.3088
17519TIP3    H273973   5.292   0.843   4.335  2.0815  1.2473  2.5383
17520TIP3   OH273974   3.301   3.487   5.929  0.1531 -0.3347  0.1491
17520TIP3    H173975   3.219   3.464   5.885  1.1314 -1.3482 -1.2390
17520TIP3    H273976   3.357   3.410   5.918  1.8539  0.9188 -0.3741
17521TIP3   OH273977   2.659   5.733   3.611 -0.5354  0.1954 -0.6749
17521TIP3    H173978   2.566   5.722   3.630 -0.5161  0.6501 -0.3163
17521TIP3    H273979   2.663   5.810   3.553 -0.4608 -0.3394 -1.4037
17522TIP3   OH273980   4.461   2.355   1.949 -0.5992  0.1549 -0.4172
17522TIP3    H173981   4.379   2.339   1.996 -1.1739 -1.4706 -1.8849
17522TIP3    H273982   4.528   2.310   2.002 -1.0135 -0.4468 -0.3943
17523TIP3   OH273983   2.145   4.989  13.405  0.4702  0.0228  0.0321
17523TIP3    H173984   2.236   5.016  13.415  0.3865 -0.0277  1.0384
17523TIP3    H273985   2.136   4.912  13.460 -0.3511  0.4345  0.4979
17524TIP3   OH273986   2.188   0.469  16.861 -0.2689  0.0545 -0.3737
17524TIP3    H173987   2.230   0.466  16.947  0.1785  0.9038 -0.5506
17524TIP3    H273988   2.194   0.561  16.834  2.8668 -0.7157 -2.9181
17525TIP3   OH273989   3.639   3.670   3.538  0.3491 -0.1274  0.0181
17525TIP3    H173990   3.669   3.623   3.616 -0.7227 -2.3241 -0.8022
17525TIP3    H273991   3.677   3.621   3.464 -0.8169  0.2872 -0.8917
17526TIP3   OH273992   3.934   5.060  13.963  0.0226 -0.4377  0.3880
17526TIP3    H173993   3.842   5.069  13.989 -0.1495 -0.1699 -0.3017
17526TIP3    H273994   3.931   5.012  13.880  0.3548  1.3439 -0.7026
17527TIP3   OH273995   6.445   5.850  14.310  0.2852  0.0096 -0.2424
17527TIP3    H173996   6.446   5.926  14.251  0.1322  0.1939 -0.0092
17527TIP3    H273997   6.355   5.845  14.340  0.5491  0.4501  0.6626
17528TIP3   OH273998   4.724   1.919   4.227  0.3184  0.6228  0.1674
17528TIP3    H173999   4.799   1.860   4.217  1.0211  1.0701  2.2265
17528TIP3    H274000   4.758   2.005   4.202  0.2709  0.7026  0.3789
17529TIP3   OH274001   2.598   5.051  11.124 -0.5940 -0.0065 -0.3655
17529TIP3    H174002   2.573   4.959  11.120 -2.1450  0.4214 -3.5154
17529TIP3    H274003   2.677   5.057  11.070 -0.1759  0.4476  0.2786
17530TIP3   OH274004   2.258   5.955   6.538  0.0849  0.0133 -0.1071
17530TIP3    H174005   2.229   5.965   6.447  0.0189 -0.7563 -0.1782
17530TIP3    H274006   2.337   5.902   6.533 -0.5394 -0.9945  0.3587
17531TIP3   OH274007   6.200   1.849   3.693  0.2296 -0.0067 -0.1986
17531TIP3    H174008   6.252   1.814   3.765 -0.9395  1.9904  1.7457
17531TIP3    H274009   6.135   1.906   3.735 -3.1778 -1.8101 -2.4744
17532TIP3   OH274010   4.323   6.295  11.484 -0.6621  0.5044 -0.2002
17532TIP3    H174011   4.291   6.266  11.399 -0.6500 -1.8531  0.5271
17532TIP3    H274012   4.260   6.260  11.547  0.9347 -0.4611  0.9497
17533TIP3   OH274013   3.719   2.147  16.025  0.2117 -0.3914  0.6977
17533TIP3    H174014   3.648   2.085  16.042  0.3104 -0.2684  1.6296
17533TIP3    H274015   3.780   2.134  16.098  0.6572  0.1971  0.4369
17534TIP3   OH274016   4.263   2.684   1.499 -0.6077  0.0387 -0.9637
17534TIP3    H174017   4.349   2.658   1.533 -0.5327  1.5478  0.0789
17534TIP3    H274018   4.266   2.780   1.497 -2.5181  0.1512 -0.1942
17535TIP3   OH274019   0.629   5.458   5.840  0.1162 -0.5696 -0.2782
17535TIP3    H174020   0.570   5.453   5.915 -0.2637  1.1371 -0.4240
17535TIP3    H274021   0.575   5.435   5.765  0.1082 -0.7906 -0.2056
17536TIP3   OH274022   0.046   0.113   6.616  0.1803  0.2824  0.9507
17536TIP3    H174023   0.034   0.023   6.647 -0.2445 -0.9779 -2.4418
17536TIP3    H274024  -0.039   0.155   6.629 -0.9096 -1.1506 -1.1423
17537TIP3   OH274025   6.066   6.027  13.839  0.4475  0.2405  0.1908
17537TIP3    H174026   6.103   6.114  13.827  1.9492 -0.4117 -0.1929
17537TIP3    H274027   6.100   5.976  13.765  0.9078 -1.0574  1.2563
17538TIP3   OH274028   4.449   4.903  11.537 -0.1553  0.0283  0.4582
17538TIP3    H174029   4.388   4.948  11.595 -1.4883  0.7319 -1.3987
17538TIP3    H274030   4.441   4.949  11.453  2.7402 -0.0331  0.0403
17539TIP3   OH274031   0.183   1.035  13.036 -0.1779 -0.1145  0.5968
17539TIP3    H174032   0.151   0.983  13.109  1.4346 -0.5427  1.0539
17539TIP3    H274033   0.156   0.987  12.958 -0.5728 -0.4874  0.9612
17540TIP3   OH274034   6.195   4.464   6.023 -0.6104 -0.5218  0.1437
17540TIP3    H174035   6.143   4.517   5.963 -0.8353 -1.4466 -0.4895
17540TIP3    H274036   6.131   4.427   6.084 -0.4821 -0.2454  0.4484
17541TIP3   OH274037   4.973   6.796   4.047  0.2581 -0.4570 -0.4517
17541TIP3    H174038   5.013   6.881   4.032 -0.3531 -0.1754 -0.4991
17541TIP3    H274039   5.009   6.767   4.132  0.4949 -0.1768 -0.4566
17542TIP3   OH274040   4.798   5.333  14.263 -0.4659 -0.5917  0.3066
17542TIP3    H174041   4.830   5.254  14.307  0.5822 -0.4042 -0.0983
17542TIP3    H274042   4.755   5.300  14.184  0.1738 -0.7562  0.0177
17543TIP3   OH274043   3.427   4.959   5.781  0.2251  0.1632  0.0795
17543TIP3    H174044   3.353   4.898   5.777  1.1785 -0.9777 -0.6399
17543TIP3    H274045   3.441   4.984   5.690 -1.1888  2.8087  0.4831
17544TIP3   OH274046   0.067   5.624   2.065  0.1604 -0.2951  0.8113
17544TIP3    H174047   0.074   5.570   1.987  3.0586 -0.5758  1.1750
17544TIP3    H274048   0.063   5.714   2.032 -1.0391 -0.5159  0.3127
17545TIP3   OH274049   5.396   4.045   1.576  0.2035  0.4483 -0.3373
17545TIP3    H174050   5.345   3.981   1.528 -0.0681  0.6259 -0.2879
17545TIP3    H274051   5.459   3.993   1.626  0.7040  0.2827 -1.1260
17546TIP3   OH274052   4.859   5.135  14.528 -0.5108 -0.0089  0.2867
17546TIP3    H174053   4.795   5.101  14.590 -0.0176 -0.8827  0.3217
17546TIP3    H274054   4.835   5.095  14.444 -1.1929  1.1855 -0.1183
17547TIP3   OH274055   4.424   5.970  16.857 -0.5880 -0.6602  0.8527
17547TIP3    H174056   4.452   6.060  16.843  1.3520 -1.4652 -0.9841
17547TIP3    H274057   4.367   5.974  16.934  0.9199  1.8295  1.9538
17548TIP3   OH274058   3.940   6.504  14.610  0.1810  0.4396 -0.1104
17548TIP3    H174059   3.947   6.522  14.516  1.0075 -2.1620 -0.6254
17548TIP3    H274060   3.937   6.408  14.616 -1.1500  0.5514  2.4575
17549TIP3   OH274061   0.762   5.481  15.565  0.2464  0.0178 -0.3812
17549TIP3    H174062   0.854   5.507  15.570  0.7075 -1.6911  1.2964
17549TIP3    H274063   0.757   5.424  15.488  1.8124 -3.6990  1.9434
17550TIP3   OH274064   3.477   4.649  12.096 -0.0729  0.1530  0.0964
17550TIP3    H174065   3.511   4.696  12.019  1.4627  0.3078  0.8302
17550TIP3    H274066   3.397   4.608  12.065  0.3499  0.4652 -1.5132
17551TIP3   OH274067   0.945   6.559  12.335 -0.2424  0.0567 -0.5415
17551TIP3    H174068   0.880   6.554  12.405 -0.1488 -0.9168 -0.5068
17551TIP3    H274069   0.915   6.496  12.269  0.3558  0.0073 -0.7787
17552TIP3   OH274070   1.942   2.241  11.172  0.1810 -0.3288 -0.4451
17552TIP3    H174071   1.902   2.155  11.160 -1.5829  0.4035 -0.2250
17552TIP3    H274072   2.019   2.240  11.115 -0.1440 -1.8343 -0.9058
17553TIP3   OH274073   4.534   4.759  13.581  0.3651 -0.0199  0.1698
17553TIP3    H174074   4.623   4.727  13.593 -0.1765 -1.9245 -0.4756
17553TIP3    H274075   4.488   4.733  13.661 -0.0723 -0.8999 -0.3451
17554TIP3   OH274076   2.987   1.004   1.304  0.3737  0.0357 -0.5858
17554TIP3    H174077   2.987   1.054   1.222 -0.0560  0.8320 -0.1135
17554TIP3    H274078   2.952   0.919   1.280 -0.3155  0.4594 -1.1196
17555TIP3   OH274079   5.872   6.240  14.003 -0.1469  0.5922 -0.3244
17555TIP3    H174080   5.854   6.281  13.919 -0.8968  1.3910  0.2132
17555TIP3    H274081   5.935   6.170  13.983  0.8995  1.7624 -1.3057
17556TIP3   OH274082   5.040   1.884   6.293  0.0762  0.1094  0.2371
17556TIP3    H174083   5.126   1.869   6.331 -0.0172  0.4043  0.5642
17556TIP3    H274084   5.008   1.964   6.335 -0.3160  0.0553  0.0478
17557TIP3   OH274085   4.655   3.892  16.574 -0.0288 -0.3964 -0.1678
17557TIP3    H174086   4.711   3.904  16.497 -0.2341 -0.8283 -0.3934
17557TIP3    H274087   4.620   3.803  16.564 -0.1397 -0.4174  0.3724
17558TIP3   OH274088   2.792   4.879  14.117 -0.3027  0.4610  0.3699
17558TIP3    H174089   2.697   4.883  14.129 -0.6601 -1.0979 -1.5028
17558TIP3    H274090   2.804   4.820  14.043  1.9320  3.3601 -1.8446
17559TIP3   OH274091   5.454   1.097   0.457 -0.3406 -0.3184 -0.1721
17559TIP3    H174092   5.455   1.187   0.491 -1.5952 -0.9743  1.7276
17559TIP3    H274093   5.531   1.056   0.495 -1.2884 -0.8120  1.2805
17560TIP3   OH274094   5.709   0.058   2.165 -0.3334  0.7772 -0.2318
17560TIP3    H174095   5.739   0.054   2.074 -0.1435 -0.8626 -0.1370
17560TIP3    H274096   5.649   0.132   2.168 -1.0117  0.3385 -1.9238
17561TIP3   OH274097   1.566   4.398  15.947  0.1322 -0.0205  0.3832
17561TIP3    H174098   1.624   4.353  16.008  1.0548  1.6442  0.8079
17561TIP3    H274099   1.479   4.361  15.964  0.2232  0.8306  3.1974
17562TIP3   OH274100   4.576   0.424  11.397 -0.1592 -0.3036 -0.2607
17562TIP3    H174101   4.644   0.373  11.440 -1.6619 -0.9950  1.4161
17562TIP3    H274102   4.578   0.396  11.305  1.6998 -0.3745 -0.2212
17563TIP3   OH274103   6.310   6.696  14.994  0.2175  0.2391  0.1318
17563TIP3    H174104   6.365   6.770  15.019  3.0048 -1.0090 -1.8853
17563TIP3    H274105   6.319   6.635  15.067  1.1405  0.2469  0.0356
17564TIP3   OH274106   6.209   5.704  12.882 -0.3969 -0.0415  0.1121
17564TIP3    H174107   6.195   5.695  12.976 -0.3790  1.4413  0.2832
17564TIP3    H274108   6.294   5.746  12.874 -0.4216 -0.1041 -0.5747
17565TIP3   OH274109   4.846   2.128  15.532  0.2886 -0.1006 -0.2929
17565TIP3    H174110   4.885   2.136  15.619 -1.1370  0.8607  0.2825
17565TIP3    H274111   4.796   2.046  15.535 -1.5306  0.9788  0.5650
17566TIP3   OH274112   1.926   4.959   5.499  0.1039 -0.0976  0.4204
17566TIP3    H174113   1.845   4.993   5.460  0.4623 -0.6648 -0.8740
17566TIP3    H274114   1.920   4.864   5.486  1.1777 -0.1043 -0.1121
17567TIP3   OH274115   3.717   6.269  15.909 -0.1563 -0.0133 -0.0055
17567TIP3    H174116   3.760   6.209  15.848 -1.4965  0.5218 -1.5664
17567TIP3    H274117   3.782   6.286  15.977  1.0809 -1.3446 -0.7990
17568TIP3   OH274118   5.186   4.983   4.820  0.5911  0.0151  0.5148
17568TIP3    H174119   5.249   4.956   4.753  0.3145  1.6811 -0.4662
17568TIP3    H274120   5.240   5.003   4.896  1.2905  1.4756 -0.3312
17569TIP3   OH274121   4.289   1.490   0.068  0.6478  0.3216  0.1183
17569TIP3    H174122   4.293   1.564   0.127 -4.4783  2.9403 -2.0990
17569TIP3    H274123   4.196   1.464   0.069  1.7701 -4.8639 -0.8213
17570TIP3   OH274124   3.937   2.204  13.484 -0.0492 -0.0489  0.1115
17570TIP3    H174125   3.943   2.294  13.452 -0.5777  0.5021  1.4891
17570TIP3    H274126   3.900   2.155  13.410  0.8264  0.7156 -0.8724
17571TIP3   OH274127   3.315   0.319  13.676 -0.1571 -0.8606  0.1063
17571TIP3    H174128   3.342   0.312  13.584 -0.6747  0.3924 -0.1632
17571TIP3    H274129   3.255   0.394  13.678  0.2764 -0.5229  1.5676
17572TIP3   OH274130   1.992   2.610  13.036  0.5429  0.2670  0.2371
17572TIP3    H174131   1.962   2.676  12.973  0.1875 -0.6474 -0.5722
17572TIP3    H274132   1.922   2.606  13.101  1.3487  1.9096  1.2588
17573TIP3   OH274133   0.818   3.065  14.719  0.0350  0.1899  0.4183
17573TIP3    H174134   0.755   3.136  14.709  0.6864  0.7182 -0.0664
17573TIP3    H274135   0.791   3.020  14.799 -1.0385  0.3019  0.1359
17574TIP3   OH274136   6.115   0.791  12.030  0.4838 -1.1151  0.6122
17574TIP3    H174137   6.109   0.776  12.124  0.7144 -0.3762  0.7560
17574TIP3    H274138   6.091   0.883  12.019  0.7577 -1.1132 -0.0119
17575TIP3   OH274139   1.733   1.800   2.878 -0.0093 -0.0844 -0.0719
17575TIP3    H174140   1.683   1.782   2.798  1.2228 -1.0354 -0.6656
17575TIP3    H274141   1.801   1.861   2.850  1.0349 -1.1791 -0.0094
17576TIP3   OH274142   1.371   6.782   0.087 -0.7292  0.3681  0.0135
17576TIP3    H174143   1.325   6.781   0.171 -0.2276  0.3785  0.2923
17576TIP3    H274144   1.343   6.863   0.044  0.3868  1.2691  0.9438
17577TIP3   OH274145   3.266   1.798   2.514 -0.3877 -0.1274 -0.4745
17577TIP3    H174146   3.349   1.839   2.491 -0.4189 -0.3916 -1.0732
17577TIP3    H274147   3.232   1.851   2.586  0.2649  0.0232 -0.2777
17578TIP3   OH274148   5.361   1.305  16.564  0.2741 -0.4125  0.1701
17578TIP3    H174149   5.287   1.269  16.517  0.5908 -0.1430 -0.5453
17578TIP3    H274150   5.327   1.386  16.604 -0.3237 -1.2503  1.4430
17579TIP3   OH274151   5.616   5.175  15.347 -0.1564  0.2254  0.9601
17579TIP3    H174152   5.631   5.269  15.337  0.5947 -0.0274 -0.6946
17579TIP3    H274153   5.685   5.145  15.406  2.3729  0.0905 -1.8106
17580TIP3   OH274154   5.310   4.739   4.175  0.3322 -0.2468 -0.1993
17580TIP3    H174155   5.271   4.659   4.209  1.3827 -0.5603  0.3135
17580TIP3    H274156   5.403   4.730   4.194  0.9538 -0.2983 -2.8662
17581TIP3   OH274157   5.629   3.588   5.418  0.3512 -0.1604 -0.3702
17581TIP3    H174158   5.569   3.642   5.366 -1.1047  0.6475  1.9980
17581TIP3    H274159   5.693   3.556   5.354 -1.5650  0.3563 -2.7345
17582TIP3   OH274160   5.650   4.414   2.460  0.3255  0.2855  0.0148
17582TIP3    H174161   5.641   4.503   2.491 -0.3594 -0.5505  2.4295
17582TIP3    H274162   5.745   4.399   2.455  0.4464  0.7468  0.8590
17583TIP3   OH274163   4.203   1.726   2.833  0.0315  0.9160 -0.1386
17583TIP3    H174164   4.125   1.773   2.803  0.8420  0.7263 -2.8449
17583TIP3    H274165   4.262   1.795   2.862 -0.3477  1.2228 -0.0805
17584TIP3   OH274166   0.004   0.822   2.162  0.8983 -0.0615  1.1368
17584TIP3    H174167   0.096   0.822   2.136  0.4473 -1.6912 -0.6753
17584TIP3    H274168   0.003   0.776   2.246  1.5306 -1.9085  0.1799
17585TIP3   OH274169   1.409   0.606   4.805  0.2626 -0.4952  0.2190
17585TIP3    H174170   1.432   0.664   4.877  0.0943 -1.3132  0.9527
17585TIP3    H274171   1.318   0.581   4.822 -0.0408 -0.0722 -0.7170
17586TIP3   OH274172   6.128   3.105  13.715  0.1262  0.3997 -0.1077
17586TIP3    H174173   6.074   3.026  13.706  1.0711 -0.2170 -0.4697
17586TIP3    H274174   6.067   3.172  13.745 -0.7235 -0.4314  0.0679
17587TIP3   OH274175   6.094   5.237  12.721 -0.4606 -0.4729 -0.0541
17587TIP3    H174176   6.050   5.191  12.793 -0.8474 -2.7717 -1.6450
17587TIP3    H274177   6.152   5.299  12.764 -1.2156 -1.2388  2.2152
17588TIP3   OH274178   3.211   0.814  14.411 -0.1350  0.0870  0.0824
17588TIP3    H174179   3.264   0.735  14.405 -0.7480 -0.2113 -4.2508
17588TIP3    H274180   3.132   0.794  14.362 -0.7864  3.0474 -0.2756
17589TIP3   OH274181   3.192   4.120  14.447  0.1073 -0.1659 -0.0949
17589TIP3    H174182   3.118   4.116  14.387  1.5954  2.1145 -2.2901
17589TIP3    H274183   3.266   4.086  14.396  1.2755  1.1446  0.6390
17590TIP3   OH274184   1.067   4.816  11.551  0.1826  0.3870 -0.0709
17590TIP3    H174185   1.082   4.810  11.645  1.2677  0.8705 -0.2008
17590TIP3    H274186   1.119   4.744  11.513 -1.8445 -1.1240 -0.1846
17591TIP3   OH274187   2.677   0.636  13.297 -0.0318  0.7424  0.1602
17591TIP3    H174188   2.641   0.557  13.339 -0.5739  0.1249 -1.3950
17591TIP3    H274189   2.603   0.697  13.295 -0.6916 -0.0622 -1.8898
17592TIP3   OH274190   0.236   3.652   0.093 -0.1768 -0.1660  0.3704
17592TIP3    H174191   0.146   3.656   0.058 -0.1709 -0.1193  0.3597
17592TIP3    H274192   0.246   3.735   0.140 -0.7786 -0.9402  1.9305
17593TIP3   OH274193   4.958   5.217   0.281  0.2601 -0.7987  0.6522
17593TIP3    H174194   5.043   5.247   0.313  0.0582  0.3064  0.1700
17593TIP3    H274195   4.978   5.138   0.231  1.2976  0.5760 -1.1942
17594TIP3   OH274196   3.776   5.458   2.484  0.4695 -0.0313 -0.0684
17594TIP3    H174197   3.712   5.390   2.462  0.7884 -0.2452 -0.3282
17594TIP3    H274198   3.748   5.534   2.433  0.1398  0.0254  0.1883
17595TIP3   OH274199   5.049   2.860  16.318 -0.4256  0.3497 -0.0494
17595TIP3    H174200   5.046   2.795  16.389 -1.4226  1.1163  0.6478
17595TIP3    H274201   5.055   2.944  16.363  0.1775  0.7885 -0.9238
17596TIP3   OH274202   5.824   3.464  12.258 -0.1536 -0.0156 -0.2382
17596TIP3    H174203   5.730   3.447  12.270 -0.3712  1.9653  1.3008
17596TIP3    H274204   5.832   3.559  12.266  2.0006 -0.1524 -0.3653
17597TIP3   OH274205   4.562   6.525  16.736  0.6248 -0.4444  0.6215
17597TIP3    H174206   4.476   6.483  16.744  1.4265 -1.9907  1.6241
17597TIP3    H274207   4.548   6.614  16.771 -0.3580 -0.9819  1.6647
17598TIP3   OH274208   2.946   6.492  13.451 -0.4595  0.2093  0.2398
17598TIP3    H174209   2.902   6.427  13.505  1.6494 -1.3203  0.2390
17598TIP3    H274210   2.997   6.440  13.388  0.5472  1.8815 -0.3851
17599TIP3   OH274211   3.933   0.592   5.754  0.2547  0.2428  0.0929
17599TIP3    H174212   3.966   0.617   5.668 -0.1632 -0.1819 -0.1980
17599TIP3    H274213   3.895   0.672   5.789  0.2942  0.3832 -0.1803
17600TIP3   OH274214   0.535   2.769  14.406 -0.2550 -0.4421  0.1175
17600TIP3    H174215   0.533   2.674  14.413 -1.4754 -0.5036 -0.6376
17600TIP3    H274216   0.528   2.786  14.312  3.2965  0.3897 -0.1026
17601TIP3   OH274217   6.450   3.705   0.346 -0.0969 -0.0420  0.0710
17601TIP3    H174218   6.441   3.779   0.406  1.1894 -0.3030  0.6052
17601TIP3    H274219   6.436   3.743   0.259 -3.0231  0.1628  0.5159
17602TIP3   OH274220   0.803   0.231   3.252 -0.4151 -0.4448 -0.2650
17602TIP3    H174221   0.794   0.292   3.179  0.6017  0.9412  0.6997
17602TIP3    H274222   0.874   0.268   3.305 -0.0224 -2.2826  0.5747
17603TIP3   OH274223   1.421   1.158   1.838 -0.3134 -0.1759 -0.2706
17603TIP3    H174224   1.355   1.121   1.779  0.6025 -2.1776 -0.1271
17603TIP3    H274225   1.373   1.177   1.918 -0.9077 -0.7798 -0.4694
17604TIP3   OH274226   2.479   0.054  12.811 -0.2628 -0.5615  0.1017
17604TIP3    H174227   2.444   0.126  12.863  1.7586 -0.8594  2.0690
17604TIP3    H274228   2.414   0.038  12.743 -1.8281  1.5836  1.0072
17605TIP3   OH274229   5.669   1.142  17.142  0.3091  0.3124  0.4777
17605TIP3    H174230   5.736   1.208  17.158 -1.5066  1.6799  3.0339
17605TIP3    H274231   5.672   1.085  17.218 -1.8814  0.8690  1.0502
17606TIP3   OH274232   0.041   5.587   0.432  0.1563 -0.4178 -0.5947
17606TIP3    H174233   0.008   5.540   0.355 -0.4882  0.3339 -0.7935
17606TIP3    H274234   0.113   5.640   0.398  0.3486 -0.6413 -0.5348
17607TIP3   OH274235   2.900   5.911   6.069  0.1888 -0.4770 -0.4269
17607TIP3    H174236   2.987   5.872   6.073 -0.3759 -1.8314 -0.5884
17607TIP3    H274237   2.905   5.975   5.999  1.9383  1.8901  1.7023
17608TIP3   OH274238   4.389   2.298  13.317 -0.0753 -0.4731 -0.0021
17608TIP3    H174239   4.349   2.343  13.391 -1.4361 -0.6047 -0.6297
17608TIP3    H274240   4.480   2.282  13.345 -0.2360  0.5067  1.1591
17609TIP3   OH274241   6.177   1.827  12.862  0.0849 -0.0219 -0.4884
17609TIP3    H174242   6.211   1.838  12.773  0.4682  1.6308 -0.1764
17609TIP3    H274243   6.088   1.794  12.849  0.5524 -0.9537 -1.4371
17610TIP3   OH274244   3.949   6.728  11.141 -0.3144 -0.4690 -0.1919
17610TIP3    H174245   4.007   6.700  11.070  0.1191 -1.6850  0.6149
17610TIP3    H274246   3.868   6.680  11.127 -1.0102  0.9063 -1.0680
17611TIP3   OH274247   1.138   2.770  12.798 -0.3535  0.4434 -0.5944
17611TIP3    H174248   1.217   2.815  12.828 -0.1946 -0.0408 -0.2784
17611TIP3    H274249   1.150   2.762  12.704 -0.1913  0.6909 -0.5979
17612TIP3   OH274250   0.101   0.545   1.326 -0.1331 -0.3480 -0.1495
17612TIP3    H174251   0.187   0.521   1.361 -0.1334  0.9913  0.8527
17612TIP3    H274252   0.064   0.604   1.392 -1.3459 -0.0034 -1.1049
17613TIP3   OH274253   2.313   4.591  16.857  0.3554 -0.1604 -0.4448
17613TIP3    H174254   2.357   4.640  16.926  3.4494 -0.8894 -1.7154
17613TIP3    H274255   2.357   4.619  16.776 -1.5064 -1.0682 -1.8554
17614TIP3   OH274256   6.194   5.907   3.778 -0.4453 -0.1868  0.4485
17614TIP3    H174257   6.179   5.922   3.684 -0.3310 -0.1997  0.4279
17614TIP3    H274258   6.112   5.932   3.819 -0.2894  0.4100  0.4053
17615TIP3   OH274259   1.556   1.661  14.133 -0.7444  0.1516 -0.2320
17615TIP3    H174260   1.602   1.582  14.160 -1.6825 -0.4807 -0.4419
17615TIP3    H274261   1.464   1.636  14.130 -1.0235  1.1547 -0.6484
17616TIP3   OH274262   1.894   3.168   6.207  0.1535  0.2349  0.0977
17616TIP3    H174263   1.813   3.160   6.157  0.4480  0.0214 -0.3510
17616TIP3    H274264   1.942   3.239   6.163  0.8443 -0.6022 -0.5323
17617TIP3   OH274265   1.247   3.672  11.321  0.1400  0.0504 -0.4632
17617TIP3    H174266   1.310   3.694  11.252 -2.1322  4.0539 -1.5573
17617TIP3    H274267   1.254   3.744  11.384 -2.5185  0.0933 -0.0966
17618TIP3   OH274268   2.904   2.297  11.806  0.5389 -0.0326  0.0597
17618TIP3    H174269   2.880   2.374  11.754 -0.0350  0.8294  1.5385
17618TIP3    H274270   2.893   2.223  11.746  0.8956  0.9994 -1.3349
17619TIP3   OH274271   2.736   0.223  12.206  0.6115  0.6857  0.4813
17619TIP3    H174272   2.696   0.291  12.152  0.0442  0.9368  1.2070
17619TIP3    H274273   2.698   0.141  12.173 -0.6320  0.9299  1.2461
17620TIP3   OH274274   1.689   3.832  16.077 -0.5356  0.0777 -0.0048
17620TIP3    H174275   1.702   3.744  16.112 -2.6764 -0.1431  0.3902
17620TIP3    H274276   1.627   3.821  16.006 -1.6772  1.3532  0.7296
17621TIP3   OH274277   2.471   0.789  13.333  0.0198 -0.1292  0.6989
17621TIP3    H174278   2.384   0.788  13.374 -1.3720  0.0009 -1.9916
17621TIP3    H274279   2.455   0.826  13.245  2.8425  0.0423  0.1694
17622TIP3   OH274280   0.333   2.738  15.096 -0.0039 -0.0641 -0.0176
17622TIP3    H174281   0.387   2.760  15.172 -0.9398  0.6377  0.4692
17622TIP3    H274282   0.350   2.809  15.033  1.0446 -0.8351 -0.6265
17623TIP3   OH274283   1.681   1.533   3.226  0.1002  0.6565 -0.0928
17623TIP3    H174284   1.659   1.541   3.318 -2.1136 -0.5046 -0.4505
17623TIP3    H274285   1.774   1.510   3.225 -0.1609 -0.6636  1.9274
17624TIP3   OH274286   3.345   0.944   3.817 -0.2134 -0.4927  0.0854
17624TIP3    H174287   3.326   0.932   3.724 -0.2392  1.0162 -0.1268
17624TIP3    H274288   3.260   0.947   3.860 -0.3912  1.8982 -0.2897
17625TIP3   OH274289   2.827   3.836  13.421  0.1382 -0.0307 -0.7268
17625TIP3    H174290   2.890   3.808  13.355  1.1636  1.5044 -0.4530
17625TIP3    H274291   2.783   3.912  13.381  1.7115  1.7771  0.7787
17626TIP3   OH274292   4.336   4.878   5.299  0.1181 -0.2155  0.6638
17626TIP3    H174293   4.308   4.893   5.389 -5.4282 -0.8304 -0.6039
17626TIP3    H274294   4.332   4.783   5.288 -0.6909 -0.0718 -0.5099
17627TIP3   OH274295   0.378   6.323   5.323  0.2380 -0.6862  0.0507
17627TIP3    H174296   0.383   6.312   5.418  2.0476 -1.7778 -0.1358
17627TIP3    H274297   0.447   6.386   5.303 -1.0408  0.6269 -0.4331
17628TIP3   OH274298   3.845   5.721   6.710  0.2152 -0.5439  0.5379
17628TIP3    H174299   3.857   5.778   6.785  2.6753 -1.2583  0.7835
17628TIP3    H274300   3.803   5.776   6.644 -0.6480  0.5132  1.9238
17629TIP3   OH274301   0.572   4.145   0.382 -0.5361 -0.0528  0.4105
17629TIP3    H174302   0.598   4.214   0.443  0.2626 -0.0094  0.0306
17629TIP3    H274303   0.483   4.121   0.410  0.3370 -1.0769  2.5818
17630TIP3   OH274304   3.729   6.247  15.606 -0.2014 -0.6453 -0.1956
17630TIP3    H174305   3.636   6.226  15.615 -0.2751 -0.8657 -1.3052
17630TIP3    H274306   3.765   6.173  15.557  0.4765 -0.3734 -0.1091
17631TIP3   OH274307   4.291   1.091  16.454  0.5459  0.9619 -1.1194
17631TIP3    H174308   4.202   1.064  16.478  0.3072  1.0287 -1.9202
17631TIP3    H274309   4.322   1.023  16.395  1.8536 -0.2142  0.7904
17632TIP3   OH274310   4.188   3.830   1.214 -0.1574  0.1813  0.7043
17632TIP3    H174311   4.227   3.912   1.245 -1.2196  0.5128  1.2076
17632TIP3    H274312   4.208   3.827   1.120  0.8527  0.4532  0.9050
17633TIP3   OH274313   1.837   5.734   1.212  0.3503  0.1801 -0.4415
17633TIP3    H174314   1.757   5.737   1.265 -0.2826 -1.1698 -1.2707
17633TIP3    H274315   1.903   5.695   1.269  0.0491  0.0233 -0.2008
17634TIP3   OH274316   1.555   6.437   7.054  0.6211 -0.2562 -0.2386
17634TIP3    H174317   1.591   6.522   7.031  0.9725 -0.4905 -0.5771
17634TIP3    H274318   1.533   6.443   7.147  1.9413 -0.2482  0.0943
17635TIP3   OH274319   6.459   6.516  12.173  0.4536  0.0001  0.0655
17635TIP3    H174320   6.438   6.530  12.265 -1.4014 -0.9051 -0.1677
17635TIP3    H274321   6.476   6.422  12.166  1.4225  0.1941 -0.3844
17636TIP3   OH274322   0.779   4.841  12.152  0.1677  0.3952  0.4352
17636TIP3    H174323   0.789   4.822  12.059  2.1171 -3.3034  1.2171
17636TIP3    H274324   0.852   4.900  12.173  0.9287 -0.3642 -0.0330
17637TIP3   OH274325   0.480   3.995   5.375 -0.1840  0.5164 -0.5341
17637TIP3    H174326   0.492   3.902   5.391  0.2668  0.8135  0.9780
17637TIP3    H274327   0.386   4.010   5.389  0.0529  0.6093  1.1499
17638TIP3   OH274328   6.739   0.684  11.314 -0.4800 -0.5561 -0.0149
17638TIP3    H174329   6.686   0.704  11.236 -0.3598  1.0338  0.2786
17638TIP3    H274330   6.686   0.717  11.387 -0.1542 -1.1514  0.4883
17639TIP3   OH274331   5.436   0.994   3.691  0.1696  0.8810  0.2870
17639TIP3    H174332   5.468   0.914   3.649  0.6676  1.0241  0.3959
17639TIP3    H274333   5.425   0.971   3.783 -0.4031  0.7277  0.1905
17640TIP3   OH274334   0.508   5.846  11.443 -0.5307 -0.1048 -0.0353
17640TIP3    H174335   0.586   5.833  11.390 -0.8902  0.3689 -0.6896
17640TIP3    H274336   0.470   5.759  11.452 -0.1023 -0.2891  0.0228
17641TIP3   OH274337   1.098   5.977  16.451 -0.1518  0.3421 -0.5456
17641TIP3    H174338   1.116   5.932  16.368  0.0103  4.2017 -2.8323
17641TIP3    H274339   1.008   6.007  16.443  0.2118  1.6867  0.1452
17642TIP3   OH274340   2.994   5.799   4.523  0.2121 -0.2150  0.1403
17642TIP3    H174341   3.000   5.705   4.506  3.2448  0.0110 -0.4776
17642TIP3    H274342   3.035   5.840   4.446  1.1205  1.4880  1.4687
17643TIP3   OH274343   2.421   5.522  14.925 -0.4167  0.2260  0.6837
17643TIP3    H174344   2.342   5.479  14.957 -0.5439 -0.9834 -1.1186
17643TIP3    H274345   2.485   5.510  14.995 -0.1951 -3.7565  0.0349
17644TIP3   OH274346   5.799   6.316  13.338  0.5103 -0.0628  0.3999
17644TIP3    H174347   5.729   6.264  13.298  0.8549 -1.0718  1.0792
17644TIP3    H274348   5.822   6.269  13.418  2.3065 -0.0206 -0.0540
17645TIP3   OH274349   6.353   1.529  16.859  0.0844  0.3681  0.1286
17645TIP3    H174350   6.363   1.623  16.873  1.2644  0.3579 -0.4995
17645TIP3    H274351   6.438   1.492  16.882  0.1386 -0.3476 -1.1323
17646TIP3   OH274352   1.877   5.012   2.744  0.0897  0.1146  0.5489
17646TIP3    H174353   1.945   5.053   2.690 -0.8535  0.2655 -0.5649
17646TIP3    H274354   1.919   4.999   2.829  2.0956 -1.4583 -0.5974
17647TIP3   OH274355   5.980   2.686  11.997  0.3067 -0.3047  0.0852
17647TIP3    H174356   5.993   2.660  12.088  1.0122  0.3823  0.1944
17647TIP3    H274357   5.885   2.688  11.985  0.1193  1.6868  1.4511
17648TIP3   OH274358   0.982   2.058   4.232  0.1176  0.1245  0.2565
17648TIP3    H174359   0.919   2.049   4.304  1.2511 -1.2972  1.1262
17648TIP3    H274360   0.928   2.078   4.155 -1.2597  0.2646  1.2325
17649TIP3   OH274361   0.003   0.349   6.411 -0.3003  0.8938  0.3745
17649TIP3    H174362   0.078   0.408   6.418  0.5218  0.3308 -2.5585
17649TIP3    H274363   0.028   0.285   6.345 -2.6714 -0.4515  0.6589
17650TIP3   OH274364   0.996   0.815   0.269 -0.2830  0.3155  0.0960
17650TIP3    H174365   0.915   0.854   0.302  0.3464  0.1040  1.9735
17650TIP3    H274366   1.010   0.858   0.184 -1.6777  1.2669  0.3132
17651TIP3   OH274367   5.774   4.171  15.848  1.2637 -0.2606  0.1741
17651TIP3    H174368   5.787   4.079  15.870 -0.2631 -0.2675  1.1999
17651TIP3    H274369   5.855   4.214  15.874  1.4612 -1.1081  0.9969
17652TIP3   OH274370   1.496   6.333   2.665  0.2491  0.2942 -0.2064
17652TIP3    H174371   1.552   6.389   2.720 -1.9577  2.3150  0.1315
17652TIP3    H274372   1.485   6.383   2.584 -0.8825 -0.1663 -0.3470
17653TIP3   OH274373   6.180   2.745  11.560  0.5716 -0.2164  0.2797
17653TIP3    H174374   6.123   2.678  11.598 -0.7698  1.4172  1.2652
17653TIP3    H274375   6.171   2.732  11.465  0.9094 -1.8613  0.4408
17654TIP3   OH274376   1.797   2.222   1.944 -0.1656 -0.1754 -0.3631
17654TIP3    H174377   1.866   2.267   1.992  0.1785 -0.6688 -0.3918
17654TIP3    H274378   1.773   2.283   1.874 -1.4602  1.0493  1.0573
17655TIP3   OH274379   4.161   2.211  13.864  0.0117  0.1954  0.1275
17655TIP3    H174380   4.140   2.301  13.839  0.4374  0.1695 -0.3503
17655TIP3    H274381   4.256   2.210  13.871 -0.0556  0.0545  1.2255
17656TIP3   OH274382   3.293   0.338   4.814 -0.1007  0.5317 -0.1858
17656TIP3    H174383   3.337   0.394   4.750  0.2054  0.8264  0.2836
17656TIP3    H274384   3.362   0.306   4.871 -0.5504  1.4983  0.9404
17657TIP3   OH274385   6.025   4.470  13.710 -0.3327  0.1897  0.1676
17657TIP3    H174386   5.948   4.500  13.661  0.7059  0.4830 -1.3385
17657TIP3    H274387   6.076   4.550  13.725 -0.2677 -0.0160  1.1095
17658TIP3   OH274388   0.740   0.585  13.554 -0.5456 -0.0402 -0.2788
17658TIP3    H174389   0.784   0.500  13.556 -1.6458 -0.6156  1.6648
17658TIP3    H274390   0.800   0.644  13.601  0.3801  0.4018 -1.9253
17659TIP3   OH274391   6.461   2.752   0.692  0.4488 -0.2948 -0.1309
17659TIP3    H174392   6.424   2.736   0.779 -0.2117 -1.4910 -0.6131
17659TIP3    H274393   6.440   2.673   0.642  1.9650 -0.1820 -1.0035
17660TIP3   OH274394   0.539   0.912   4.000  0.4817 -0.3802  0.3944
17660TIP3    H174395   0.586   0.984   4.043 -0.7460  0.3021  0.6627
17660TIP3    H274396   0.501   0.862   4.072 -0.6429  0.1082  0.1659
17661TIP3   OH274397   5.658   6.050   5.761  0.2684 -0.0469  0.4663
17661TIP3    H174398   5.610   5.996   5.824 -1.0423 -1.1989 -1.4173
17661TIP3    H274399   5.741   6.004   5.747  0.7398  0.4266  1.5996
17662TIP3   OH274400   3.616   5.566   1.222  0.3081 -0.2934  0.6281
17662TIP3    H174401   3.590   5.656   1.240 -0.2431 -0.3249  0.0021
17662TIP3    H274402   3.671   5.572   1.144  3.4599 -0.0395  2.6818
17663TIP3   OH274403   2.669   6.718   2.810 -0.7274 -0.1395 -0.0069
17663TIP3    H174404   2.666   6.814   2.805  0.4399 -0.1246 -0.8052
17663TIP3    H274405   2.583   6.693   2.843 -0.8059  1.2262  0.8969
17664TIP3   OH274406   4.149   6.225  13.941  0.4624  0.0584  0.8696
17664TIP3    H174407   4.231   6.203  13.986  2.2105  1.6829 -1.3149
17664TIP3    H274408   4.144   6.320  13.946 -1.2059  0.0023  0.7514
17665TIP3   OH274409   3.010   6.312   1.180 -0.4057  0.0956  0.1787
17665TIP3    H174410   2.950   6.340   1.249  0.5316 -0.5477  1.2895
17665TIP3    H274411   3.040   6.226   1.208 -1.2088 -0.8811 -1.8534
17666TIP3   OH274412   4.462   6.093   2.173  0.3441 -0.3626 -0.5956
17666TIP3    H174413   4.454   6.188   2.184  0.4887 -0.4410  0.2875
17666TIP3    H274414   4.377   6.059   2.198  0.0395 -0.4163 -1.6746
17667TIP3   OH274415   1.079   5.278  12.766  0.2444 -0.3255 -0.2055
17667TIP3    H174416   1.070   5.363  12.721 -0.8790 -0.0587  0.4809
17667TIP3    H274417   0.994   5.236  12.753  0.4153 -0.8688  0.4258
17668TIP3   OH274418   1.304   2.583   4.518  0.3122 -0.1652 -0.2677
17668TIP3    H174419   1.245   2.615   4.449  0.6389  2.2420  0.4691
17668TIP3    H274420   1.362   2.521   4.474  1.2333  2.1097 -2.4743
17669TIP3   OH274421   1.248   5.144  12.907 -0.0116  0.3744 -0.6201
17669TIP3    H174422   1.321   5.207  12.911 -1.0306  1.5587  0.5904
17669TIP3    H274423   1.181   5.189  12.856 -0.6932  0.2168  0.1238
17670TIP3   OH274424   2.520   6.568  11.520  0.7633 -0.5026  0.1014
17670TIP3    H174425   2.528   6.542  11.428  1.4402  0.6431 -0.1764
17670TIP3    H274426   2.446   6.516  11.553 -1.0026  0.7342 -1.7047
17671TIP3   OH274427   4.822   5.997   0.628 -0.0219 -0.8252  0.0956
17671TIP3    H174428   4.781   6.029   0.709 -0.2127  1.0271 -0.6724
17671TIP3    H274429   4.769   6.036   0.558  1.1090 -1.0492 -0.9090
17672TIP3   OH274430   6.080   0.076  12.042  0.0763  0.3860 -0.4603
17672TIP3    H174431   6.055   0.168  12.038  0.0109  0.6402  2.9647
17672TIP3    H274432   6.172   0.078  12.071 -0.5243 -0.5309  1.7233
17673TIP3   OH274433   2.900   1.385   6.138 -0.1017  0.2405  0.2924
17673TIP3    H174434   2.878   1.462   6.190 -0.0268  0.2624  0.2919
17673TIP3    H274435   2.926   1.420   6.053 -1.0056  0.1600 -0.0290
17674TIP3   OH274436   3.924   0.472   3.581  0.2995 -0.1134  0.2124
17674TIP3    H174437   3.863   0.468   3.655 -0.3339  1.7955 -0.1362
17674TIP3    H274438   3.932   0.382   3.552 -1.5676 -0.5655  0.9272
17675TIP3   OH274439   6.475   1.118  10.806 -0.4956  0.5790 -0.0228
17675TIP3    H174440   6.519   1.180  10.863 -0.8592  0.8183  0.0000
17675TIP3    H274441   6.542   1.091  10.743  0.0624 -0.1083  0.8445
17676TIP3   OH274442   1.570   5.989   0.304  0.1787  0.3287  0.0958
17676TIP3    H174443   1.544   5.903   0.271  0.5899  0.7559 -1.4382
17676TIP3    H274444   1.603   5.972   0.392 -0.4966 -0.9547  0.1304
17677TIP3   OH274445   1.650   3.169   5.523  0.5957  0.0964 -0.2443
17677TIP3    H174446   1.613   3.221   5.452 -0.3086  0.5451  0.5250
17677TIP3    H274447   1.671   3.233   5.591  0.5614 -0.4186  0.2605
17678TIP3   OH274448   4.826   1.530   5.946  0.4805 -0.4674  0.6035
17678TIP3    H174449   4.858   1.456   5.997 -1.8685 -1.1100  1.2511
17678TIP3    H274450   4.897   1.594   5.950  0.9952 -1.0727  3.4696
17679TIP3   OH274451   6.095   1.005  14.137  0.6722  0.6504 -0.3063
17679TIP3    H174452   6.103   1.062  14.214  0.7446  1.9449 -1.2531
17679TIP3    H274453   6.174   1.020  14.087  0.7723 -0.4318 -0.5001
17680TIP3   OH274454   2.034   4.094  12.542 -0.0389 -0.3408  0.2339
17680TIP3    H174455   2.008   4.180  12.509  0.5457  0.1821  1.0841
17680TIP3    H274456   1.959   4.038  12.525 -0.4211  0.3294 -0.3555
17681TIP3   OH274457   3.762   2.016  12.056 -0.1062 -0.2037  0.2885
17681TIP3    H174458   3.758   2.077  11.982  1.5231 -0.3384  0.0409
17681TIP3    H274459   3.767   1.930  12.015  0.7289 -0.2830  0.5447
17682TIP3   OH274460   5.892   1.666   5.390  0.0727 -0.0748 -0.6148
17682TIP3    H174461   5.892   1.728   5.463  0.8504 -0.5515 -0.2000
17682TIP3    H274462   5.848   1.713   5.319 -0.6280  0.4240  0.1245
17683TIP3   OH274463   4.595   6.799  14.666  0.0615 -0.2349 -0.0164
17683TIP3    H174464   4.527   6.775  14.728  0.2976 -1.7547 -0.3196
17683TIP3    H274465   4.677   6.770  14.706  0.2945 -0.5284 -0.6873
17684TIP3   OH274466   6.472   2.122  17.047  0.6572  0.3440  0.4932
17684TIP3    H174467   6.477   2.183  17.121  0.7905 -1.5116  2.1052
17684TIP3    H274468   6.539   2.153  16.986  0.9260  1.6175  1.3942
17685TIP3   OH274469   5.295   5.557   2.634 -0.1857 -0.3378 -0.0096
17685TIP3    H174470   5.279   5.521   2.547 -2.1091  1.2694 -0.3903
17685TIP3    H274471   5.356   5.629   2.620  0.1057 -0.5576  0.1058
17686TIP3   OH274472   2.209   0.259  16.029  0.2162 -0.7455  0.0155
17686TIP3    H174473   2.268   0.185  16.014  0.6373 -0.6265  1.0130
17686TIP3    H274474   2.267   0.332  16.048 -0.2106 -0.8798  2.1947
17687TIP3   OH274475   4.858   2.564  11.882 -0.5137  0.1362  0.2324
17687TIP3    H174476   4.812   2.500  11.827 -0.9416  0.1710  0.5482
17687TIP3    H274477   4.900   2.512  11.950  1.8505 -0.1570 -1.3377
17688TIP3   OH274478   6.287   2.482   4.820  0.1873 -0.3723 -0.0368
17688TIP3    H174479   6.282   2.410   4.883  0.2408 -1.4053 -1.1652
17688TIP3    H274480   6.283   2.438   4.735  1.0195  0.9160 -0.7558
17689TIP3   OH274481   1.040   6.281   2.000  0.1744  0.1214 -0.3719
17689TIP3    H174482   1.069   6.283   1.909 -1.3458  0.3307 -0.8794
17689TIP3    H274483   1.034   6.373   2.026  0.2440  0.0700 -0.1675
17690TIP3   OH274484   3.638   4.762   6.383  0.1650  0.3376 -0.6009
17690TIP3    H174485   3.700   4.690   6.372  2.6480  1.9595  1.5875
17690TIP3    H274486   3.552   4.720   6.385  1.5044 -2.5966  0.7472
17691TIP3   OH274487   1.918   1.311   4.392  0.0031 -0.1454 -0.0656
17691TIP3    H174488   2.009   1.281   4.392 -0.5240 -1.8724  0.2124
17691TIP3    H274489   1.896   1.319   4.485  0.1981  1.4573 -0.1239
17692TIP3   OH274490   0.184   2.216  11.510  0.4228  0.1235  0.3444
17692TIP3    H174491   0.192   2.150  11.442  2.2002  1.8646 -1.2531
17692TIP3    H274492   0.114   2.273  11.479 -1.5345 -1.2120  2.0144
17693TIP3   OH274493   4.677   6.481   4.578 -0.3187 -0.0796  0.1174
17693TIP3    H174494   4.756   6.427   4.587  0.5747  1.0731 -0.5908
17693TIP3    H274495   4.708   6.563   4.538 -1.4489  1.3861  2.0739
17694TIP3   OH274496   0.476   1.790   4.910 -0.6667 -0.6084  0.1436
17694TIP3    H174497   0.414   1.861   4.925 -1.6359 -1.6277  1.1175
17694TIP3    H274498   0.422   1.711   4.906  0.3167 -1.2578 -1.5554
17695TIP3   OH274499   0.316   5.536   0.750  0.3204 -0.0678 -0.3855
17695TIP3    H174500   0.256   5.588   0.804 -1.8640  1.7541 -4.1756
17695TIP3    H274501   0.388   5.596   0.729  0.7033 -0.4687 -0.2453
17696TIP3   OH274502   0.543   5.639   4.049  0.8305  0.2587 -0.8056
17696TIP3    H174503   0.602   5.712   4.070  0.1180  0.6730 -0.2382
17696TIP3    H274504   0.508   5.661   3.963  2.1724 -0.4358 -1.5768
17697TIP3   OH274505   5.228   6.723   3.650  0.1764 -0.2886  0.2704
17697TIP3    H174506   5.172   6.705   3.726  1.9649 -0.2715  1.6585
17697TIP3    H274507   5.185   6.797   3.607 -1.4329 -0.9406  0.6465
17698TIP3   OH274508   4.549   1.252   2.287 -0.1303  0.4548 -0.5936
17698TIP3    H174509   4.564   1.217   2.375  1.5171  1.1565 -0.5569
17698TIP3    H274510   4.620   1.214   2.235 -0.8772  0.3419 -1.5470
17699TIP3   OH274511   1.038   6.749   6.862 -0.0338  0.3779  0.2416
17699TIP3    H174512   1.099   6.737   6.790 -1.7322 -1.1561 -1.0434
17699TIP3    H274513   0.982   6.822   6.834 -0.9653 -0.4969 -0.2135
17700TIP3   OH274514   0.873   0.679   1.069 -0.0407 -0.3551 -0.3084
17700TIP3    H174515   0.912   0.717   0.990 -0.6271  0.9857  0.0187
17700TIP3    H274516   0.947   0.642   1.116  0.4810 -0.1213 -0.9232
17701TIP3   OH274517   1.328   4.276  12.127 -0.2437  0.8453  0.3667
17701TIP3    H174518   1.394   4.344  12.116 -1.4722  1.8586 -1.3459
17701TIP3    H274519   1.283   4.273  12.042 -0.8962 -1.4111  0.7313
17702TIP3   OH274520   6.699   0.684  16.807 -0.1127  0.3308 -0.3597
17702TIP3    H174521   6.754   0.656  16.734 -0.3322  0.3030 -0.5153
17702TIP3    H274522   6.757   0.739  16.860  0.0673  0.2963 -0.5180
17703TIP3   OH274523   2.186   1.298   6.091 -0.0628  0.7796 -0.3331
17703TIP3    H174524   2.171   1.270   6.181 -0.1401 -1.8244 -1.0800
17703TIP3    H274525   2.228   1.384   6.099  0.6980  0.2492  2.1918
17704TIP3   OH274526   6.523   4.033   0.059 -0.3882 -0.4204  0.4288
17704TIP3    H174527   6.517   4.111   0.114 -0.1604  0.0875 -0.2397
17704TIP3    H274528   6.490   4.062  -0.026  0.2361 -0.8899  0.0175
17705TIP3   OH274529   5.076   5.924   6.061  0.1704 -0.0298  0.1224
17705TIP3    H174530   5.169   5.940   6.073  0.5835  0.9359 -3.4716
17705TIP3    H274531   5.034   6.007   6.086  0.5456  0.4239 -0.7274
17706TIP3   OH274532   4.866   3.730   1.266 -0.4111  0.3194 -0.6548
17706TIP3    H174533   4.879   3.824   1.282  0.9474  0.3335 -1.6802
17706TIP3    H274534   4.873   3.721   1.171 -2.3868 -0.5832 -0.7730
17707TIP3   OH274535   3.993   0.155  15.884 -0.1390  0.1792  0.0205
17707TIP3    H174536   3.996   0.087  15.952 -0.0295 -0.7865 -0.9155
17707TIP3    H274537   4.057   0.220  15.911  1.5353 -1.2893 -0.2587
17708TIP3   OH274538   1.651   1.186  16.733 -0.4252 -0.1168  0.2505
17708TIP3    H174539   1.611   1.235  16.661  0.1699 -1.1524 -0.8238
17708TIP3    H274540   1.601   1.105  16.738  0.6888 -0.8608 -0.2600
17709TIP3   OH274541   6.554   2.231  16.077  0.7844 -0.1308 -0.0593
17709TIP3    H174542   6.558   2.256  16.169  2.0258 -0.4725  0.0091
17709TIP3    H274543   6.474   2.271  16.044  0.2938 -0.0469  1.1766
17710TIP3   OH274544   6.338   2.513  12.915  0.2353  0.7394 -0.1757
17710TIP3    H174545   6.403   2.449  12.944  0.5726  1.4082  0.5916
17710TIP3    H274546   6.327   2.571  12.991 -2.1663 -0.0713  0.1969
17711TIP3   OH274547   3.448   0.392   1.060 -0.4570 -0.2708  0.4022
17711TIP3    H174548   3.472   0.459   0.996 -0.9561  0.8625  1.3558
17711TIP3    H274549   3.525   0.383   1.115  0.0639 -1.4307 -0.4699
17712TIP3   OH274550   1.685   1.164   2.615 -0.0137  0.0250 -0.4061
17712TIP3    H174551   1.678   1.077   2.654  1.2336 -0.7120 -1.7163
17712TIP3    H274552   1.769   1.198   2.647 -0.2832  0.5718 -0.2581
17713TIP3   OH274553   2.595   6.581   3.140 -0.3077  0.0975 -0.0294
17713TIP3    H174554   2.514   6.603   3.094 -0.3518  1.2752  0.5680
17713TIP3    H274555   2.612   6.490   3.116 -2.0575 -0.3311  0.2010
17714TIP3   OH274556   4.350   1.982  15.664 -0.0254 -0.2264  0.0661
17714TIP3    H174557   4.415   2.036  15.709 -0.0619  0.2490 -0.4350
17714TIP3    H274558   4.279   1.971  15.727  0.0844  0.1244  0.2516
17715TIP3   OH274559   5.176   4.235  14.797 -0.2097 -0.2670 -0.0241
17715TIP3    H174560   5.262   4.272  14.778 -0.5296  0.2954 -0.4489
17715TIP3    H274561   5.178   4.215  14.890  1.0550 -2.1112 -0.4040
17716TIP3   OH274562   1.602   3.572   2.694 -0.3361 -0.6462 -0.1152
17716TIP3    H174563   1.628   3.505   2.757 -4.7931 -2.9354 -0.3000
17716TIP3    H274564   1.570   3.522   2.618 -0.2268  1.8502 -1.9087
17717TIP3   OH274565   3.075   2.854  12.666  0.5032 -0.1441 -0.6542
17717TIP3    H174566   3.124   2.910  12.607 -0.8273 -0.3390 -2.0108
17717TIP3    H274567   3.023   2.798  12.609  1.1223 -2.1773  0.6759
17718TIP3   OH274568   6.224   0.475  14.246  0.5377  0.0493 -0.3077
17718TIP3    H174569   6.224   0.479  14.150  0.0173 -0.0932 -0.3178
17718TIP3    H274570   6.157   0.537  14.273  1.3601  0.8287  0.0141
17719TIP3   OH274571   2.942   4.099   0.445 -0.7371  0.2519  0.1523
17719TIP3    H174572   3.002   4.095   0.370 -1.1034  0.5753 -0.1607
17719TIP3    H274573   2.925   4.192   0.458 -0.1524  0.2465  1.0652
17720TIP3   OH274574   3.939   3.779  11.822 -0.0891 -0.3105 -0.1218
17720TIP3    H174575   3.993   3.779  11.743  1.1448 -0.1816  0.6972
17720TIP3    H274576   3.998   3.805  11.892 -0.4799 -2.8531  1.2926
17721TIP3   OH274577   5.452   3.855  12.409 -0.2511  0.1425 -0.0580
17721TIP3    H174578   5.482   3.869  12.320  0.5236 -0.3847  0.1043
17721TIP3    H274579   5.357   3.848  12.402 -0.3560  1.7248 -0.6087
17722TIP3   OH274580   5.690   3.724  11.517  0.5297  0.1233 -0.0875
17722TIP3    H174581   5.612   3.727  11.462  0.0332  0.5645  0.6344
17722TIP3    H274582   5.668   3.777  11.593  1.2756 -0.3447  0.4652
17723TIP3   OH274583   6.176   1.063   2.757 -0.1079  0.3306  0.2754
17723TIP3    H174584   6.264   1.099   2.768 -0.1492  0.5640 -0.1711
17723TIP3    H274585   6.158   1.019   2.840 -0.0410  1.2923  0.8086
17724TIP3   OH274586   2.507   5.922  11.564 -0.7540 -0.2937  0.4705
17724TIP3    H174587   2.497   5.831  11.538  2.3585 -0.3066 -1.0851
17724TIP3    H274588   2.582   5.923  11.623 -1.1697  1.1855  1.0172
17725TIP3   OH274589   2.404   2.503   4.864  0.5583  0.2728  0.5318
17725TIP3    H174590   2.448   2.419   4.868 -0.8380 -0.5939 -1.0480
17725TIP3    H274591   2.314   2.485   4.893 -0.6118  0.4926 -2.6154
17726TIP3   OH274592   4.216   1.743   4.425 -0.1716  0.7257 -0.4556
17726TIP3    H174593   4.138   1.777   4.468  0.1804 -0.6715  1.3871
17726TIP3    H274594   4.288   1.766   4.484  0.4714 -0.3084 -0.8089
17727TIP3   OH274595   1.474   6.232   3.646  0.1063  0.4316  0.3240
17727TIP3    H174596   1.385   6.265   3.639  0.1275  0.7756  1.4953
17727TIP3    H274597   1.466   6.153   3.699  0.4452  0.1970  0.0332
17728TIP3   OH274598   4.778   5.574  15.570 -0.6127 -0.2573  0.0601
17728TIP3    H174599   4.849   5.530  15.617  0.6756 -0.3666 -1.8623
17728TIP3    H274600   4.708   5.508  15.565  0.2951 -1.2013 -0.5393
17729TIP3   OH274601   0.440   0.942   6.265  0.7391  0.3711  0.0398
17729TIP3    H174602   0.430   0.850   6.289  0.3306 -0.0119 -1.4776
17729TIP3    H274603   0.520   0.970   6.310  0.4798 -0.4992  1.1067
17730TIP3   OH274604   1.077   3.712   0.057  0.6226 -0.6233  0.3228
17730TIP3    H174605   1.010   3.676  -0.001  1.7029 -1.7646 -0.2509
17730TIP3    H274606   1.124   3.776   0.003  0.8171 -0.7588  0.3310
17731TIP3   OH274607   3.563   0.756  15.805 -0.1393 -0.2586 -0.7520
17731TIP3    H174608   3.627   0.696  15.843 -0.5102 -1.0146 -1.2901
17731TIP3    H274609   3.507   0.782  15.878 -1.0686 -1.9728 -0.8197
17732TIP3   OH274610   1.907   0.332  11.365 -0.5865  0.2723 -0.4461
17732TIP3    H174611   1.999   0.359  11.371 -0.9595  1.3554  1.4997
17732TIP3    H274612   1.883   0.346  11.274  1.2480 -0.3195 -1.0584
17733TIP3   OH274613   0.883   6.481   3.996  0.0022  0.3827  0.0144
17733TIP3    H174614   0.908   6.530   4.074 -0.4757 -0.4177  0.6890
17733TIP3    H274615   0.874   6.390   4.026  3.2497 -0.6510 -1.6733
17734TIP3   OH274616   4.104   4.640  15.309 -0.4845  0.4656  0.0667
17734TIP3    H174617   4.156   4.560  15.296 -1.3998 -0.2267  0.5353
17734TIP3    H274618   4.169   4.710  15.308  0.4297 -0.3389  0.3119
17735TIP3   OH274619   0.143   1.709   1.102 -0.0768  0.3855  0.0357
17735TIP3    H174620   0.132   1.746   1.014 -1.1016  0.9906  0.3936
17735TIP3    H274621   0.236   1.688   1.108 -0.0131  0.2157 -1.2386
17736TIP3   OH274622   2.376   3.517  14.639 -0.4708  0.0690 -0.3800
17736TIP3    H174623   2.444   3.534  14.705 -0.4582 -1.3914  0.0086
17736TIP3    H274624   2.416   3.453  14.580 -1.2522 -0.2420 -0.5749
17737TIP3   OH274625   4.402   4.163   3.578 -0.1550 -0.0827  0.0138
17737TIP3    H174626   4.373   4.254   3.565  1.3027  0.2956 -0.8262
17737TIP3    H274627   4.404   4.152   3.673 -0.3683  0.7655  0.1318
17738TIP3   OH274628   1.999   3.490   0.694 -0.5727 -0.0599  0.6927
17738TIP3    H174629   1.915   3.455   0.725 -1.6661  0.9614 -1.0021
17738TIP3    H274630   1.989   3.585   0.701  0.7000  0.0645  1.0516
17739TIP3   OH274631   2.561   4.451   3.240 -0.5925 -0.1950 -0.2702
17739TIP3    H174632   2.641   4.403   3.222 -0.4493  0.3876 -1.2370
17739TIP3    H274633   2.491   4.398   3.203 -0.7637 -1.0806  1.2375
17740TIP3   OH274634   6.751   4.174   2.868  0.4261 -0.5228  0.6510
17740TIP3    H174635   6.682   4.120   2.907 -1.2329  0.4023 -0.9120
17740TIP3    H274636   6.758   4.250   2.926  0.7064 -0.9843  1.2345
17741TIP3   OH274637   0.749   3.535   0.124 -0.2640  0.1697  0.1610
17741TIP3    H174638   0.838   3.523   0.156 -0.4810  0.7928  1.0407
17741TIP3    H274639   0.753   3.510   0.032  1.0978  1.3291 -0.1301
17742TIP3   OH274640   5.909   6.052  16.024  0.1563 -0.1196  0.0115
17742TIP3    H174641   5.922   6.121  15.959  0.3508  0.5768  0.7655
17742TIP3    H274642   5.986   6.058  16.081 -0.7463  0.3409  1.2243
17743TIP3   OH274643   5.701   5.940  12.004 -0.0245  0.3148 -0.1863
17743TIP3    H174644   5.703   5.859  11.952  1.5708 -0.0548  0.4098
17743TIP3    H274645   5.608   5.954  12.022 -0.5760  0.0114 -2.4185
17744TIP3   OH274646   2.610   3.571  11.656  0.4256 -0.0681 -0.2656
17744TIP3    H174647   2.692   3.582  11.608  0.2966 -0.1321 -0.4997
17744TIP3    H274648   2.573   3.659  11.659  0.9243  0.1316  0.6056
17745TIP3   OH274649   0.082   1.455  12.582 -0.5109 -0.1782 -0.2949
17745TIP3    H174650   0.113   1.543  12.560 -2.1039  0.0527 -1.8468
17745TIP3    H274651   0.104   1.444  12.675  0.3149  1.5813 -0.2504
17746TIP3   OH274652   2.454   3.952   0.719 -0.7841  0.1553 -0.0344
17746TIP3    H174653   2.442   4.046   0.703 -0.2246 -0.0563 -1.9725
17746TIP3    H274654   2.496   3.947   0.805  2.8524  1.9830 -1.5009
17747TIP3   OH274655   3.706   2.900   0.626  0.1535  0.5565  0.0272
17747TIP3    H174656   3.707   2.852   0.708 -1.0192  0.4920  0.0141
17747TIP3    H274657   3.704   2.832   0.558 -2.4042  0.5677  0.0215
17748TIP3   OH274658   0.697   2.369   2.687 -0.0277 -0.0121 -0.5192
17748TIP3    H174659   0.787   2.388   2.712 -0.3291  0.0586  0.5461
17748TIP3    H274660   0.675   2.290   2.736 -1.2761  1.2410  1.0181
17749TIP3   OH274661   6.406   4.583  16.544 -0.1441  0.7283 -0.3120
17749TIP3    H174662   6.421   4.580  16.449 -0.6837  1.8131 -0.4453
17749TIP3    H274663   6.316   4.553  16.555  0.8930 -2.6221  0.1958
17750TIP3   OH274664   0.509   1.086  11.480  0.5972 -0.0172  0.7408
17750TIP3    H174665   0.571   1.034  11.532  0.9405 -0.1516  0.2027
17750TIP3    H274666   0.502   1.169  11.527 -0.8790 -0.9577  2.2744
17751TIP3   OH274667   4.196   1.133  12.059  0.3703 -0.0359 -0.2502
17751TIP3    H174668   4.141   1.057  12.075 -0.1181  0.3580 -0.0174
17751TIP3    H274669   4.144   1.207  12.091  1.5522  0.2199  1.1552
17752TIP3   OH274670   1.603   3.236  13.983  0.1834 -0.1218  0.2414
17752TIP3    H174671   1.601   3.236  13.888  2.7562 -0.7237  0.1152
17752TIP3    H274672   1.569   3.151  14.008 -0.3789 -0.0109 -0.1497
17753TIP3   OH274673   5.751   5.245  11.537  0.3719  0.1800  0.2373
17753TIP3    H174674   5.701   5.271  11.460 -1.3187  1.9568  1.8365
17753TIP3    H274675   5.699   5.176  11.578  0.8892 -0.2249  0.2342
17754TIP3   OH274676   5.664   2.620  16.994  0.1360 -0.1548  0.0779
17754TIP3    H174677   5.576   2.654  16.984 -0.1375 -1.3650 -2.1490
17754TIP3    H274678   5.717   2.696  17.017 -1.5622  0.4455  2.4426
17755TIP3   OH274679   0.943   2.142   3.936 -0.1116  0.4560  0.0397
17755TIP3    H174680   1.033   2.157   3.965  0.2520 -1.5709  0.0776
17755TIP3    H274681   0.944   2.164   3.843  0.5338  0.0798 -0.0495
17756TIP3   OH274682   1.118   3.846   0.312  0.1172  0.0408  0.4466
17756TIP3    H174683   1.093   3.806   0.228  1.7527  1.2518 -0.6951
17756TIP3    H274684   1.214   3.851   0.308  0.1216  1.7710  1.6022
17757TIP3   OH274685   3.603   5.100   0.407 -0.0767  0.2971  0.7417
17757TIP3    H174686   3.577   5.183   0.448 -2.5512 -0.3590  0.6517
17757TIP3    H274687   3.525   5.070   0.362  1.4227 -1.0001 -1.1637
17758TIP3   OH274688   3.046   1.879  13.017  0.9592 -0.3965 -0.5960
17758TIP3    H174689   2.979   1.815  12.992  0.5012  0.0568 -0.5441
17758TIP3    H274690   3.100   1.834  13.082  0.0326 -0.3942  0.1899
17759TIP3   OH274691   4.574   1.579  15.180 -0.0934  0.6350 -0.6851
17759TIP3    H174692   4.622   1.658  15.204 -1.2466  0.9111  0.8426
17759TIP3    H274693   4.482   1.599  15.201 -0.4102 -1.0949 -0.2883
17760TIP3   OH274694   1.598   3.358   5.337  0.0869  0.1510 -0.2930
17760TIP3    H174695   1.624   3.330   5.250  0.1051 -1.4700  0.1963
17760TIP3    H274696   1.531   3.425   5.323 -1.1544 -1.2943 -1.5648
17761TIP3   OH274697   4.872   6.182  11.516 -0.2768 -0.3271 -0.2649
17761TIP3    H174698   4.801   6.220  11.465  0.3490  0.1220 -0.8317
17761TIP3    H274699   4.841   6.182  11.606 -0.1228  2.0432 -0.1480
17762TIP3   OH274700   6.220   6.442  13.399  0.7402 -0.5604  0.1655
17762TIP3    H174701   6.225   6.364  13.344  3.4675  0.0900 -0.6689
17762TIP3    H274702   6.309   6.478  13.398  0.0631  1.4394  2.1875
17763TIP3   OH274703   1.489   3.709   4.411  0.2363 -0.4177 -0.6090
17763TIP3    H174704   1.511   3.800   4.427 -1.3327  0.0491 -0.9370
17763TIP3    H274705   1.415   3.691   4.470  0.8148 -1.6184 -0.2135
17764TIP3   OH274706   0.805   4.609   5.984 -0.5676  0.3928 -0.1548
17764TIP3    H174707   0.757   4.659   6.050  0.2995  1.1486 -0.0828
17764TIP3    H274708   0.834   4.530   6.030  3.0226  2.4122  1.5297
17765TIP3   OH274709   6.627   1.786  15.954  0.0052  0.0569  0.7535
17765TIP3    H174710   6.632   1.881  15.946 -0.6677  0.1233  1.0528
17765TIP3    H274711   6.713   1.760  15.987  0.4658  0.4717 -0.0920
17766TIP3   OH274712   0.628   3.809   0.218 -0.2392  0.0064  0.3786
17766TIP3    H174713   0.569   3.748   0.173 -0.9223  1.1003 -0.2725
17766TIP3    H274714   0.716   3.777   0.197 -0.5732 -0.9661  0.3814
17767TIP3   OH274715   2.170   6.683  15.718  0.0004 -0.1211 -0.4037
17767TIP3    H174716   2.249   6.708  15.669 -0.4896  0.4228 -0.9280
17767TIP3    H274717   2.110   6.649  15.652 -0.0847 -0.8568  0.0401
17768TIP3   OH274718   6.290   5.975   0.426  0.1432 -0.3532  0.2632
17768TIP3    H174719   6.225   5.950   0.492  0.4896 -0.0513  0.7264
17768TIP3    H274720   6.246   6.041   0.373 -0.4357 -1.2168 -0.3554
17769TIP3   OH274721   5.421   6.751  16.410  0.6324  0.1540  0.2196
17769TIP3    H174722   5.401   6.658  16.414 -1.5285  0.5317 -0.4137
17769TIP3    H274723   5.387   6.786  16.492 -1.4368  0.7992 -0.8332
17770TIP3   OH274724   5.053   5.938  13.327  0.1285 -0.1988  0.3743
17770TIP3    H174725   5.047   5.936  13.231  1.0054 -0.5136  0.3170
17770TIP3    H274726   5.043   5.847  13.353 -0.4323 -0.0715  0.6056
17771TIP3   OH274727   3.086   1.838   0.994 -0.1428  0.9412  0.3401
17771TIP3    H174728   2.998   1.871   1.011 -0.6613 -0.1609 -0.1493
17771TIP3    H274729   3.087   1.817   0.901  0.7220  1.1683  0.2889
17772TIP3   OH274730   5.151   6.118   6.569 -0.5994 -0.2179 -0.3434
17772TIP3    H174731   5.098   6.196   6.585 -1.6679 -0.6170 -1.6964
17772TIP3    H274732   5.121   6.086   6.484  2.0698 -0.2774 -1.3714
17773TIP3   OH274733   5.065   5.636   6.731  0.5709 -0.3280 -0.3315
17773TIP3    H174734   5.084   5.728   6.747  1.7396 -0.6043 -0.0102
17773TIP3    H274735   5.048   5.631   6.636  1.3164  0.0889 -0.4944
17774TIP3   OH274736   0.168   3.470   6.322  0.2212  0.1365 -0.0528
17774TIP3    H174737   0.104   3.533   6.354 -1.6178 -2.5234  1.9665
17774TIP3    H274738   0.144   3.456   6.230 -1.1492  0.3015  0.2534
17775TIP3   OH274739   0.077   2.696  11.120  0.0397 -0.0495  0.2534
17775TIP3    H174740   0.025   2.657  11.190  0.8045  0.8397  1.3510
17775TIP3    H274741   0.033   2.779  11.101  1.0214  0.7198  1.2083
17776TIP3   OH274742   6.159   3.021  12.950 -0.0258  0.0805 -0.0125
17776TIP3    H174743   6.126   2.941  12.990 -0.0463  0.5184  0.8889
17776TIP3    H274744   6.211   3.062  13.020 -0.7345  1.2818 -0.1698
17777TIP3   OH274745   1.316   0.867  15.049  0.0527 -0.1088 -0.3394
17777TIP3    H174746   1.366   0.810  15.108  1.2833  0.3189 -0.9401
17777TIP3    H274747   1.243   0.812  15.020 -0.0261 -0.6453  0.8085
17778TIP3   OH274748   0.130   5.501   1.835  0.1928 -0.2294  0.4821
17778TIP3    H174749   0.192   5.528   1.767 -0.2672 -0.3904 -0.0108
17778TIP3    H274750   0.158   5.413   1.859 -0.5068 -0.7632 -0.5593
17779TIP3   OH274751   6.111   4.147   3.620  0.1132  0.3784  0.3366
17779TIP3    H174752   6.034   4.167   3.566  0.5483  0.2396 -0.3490
17779TIP3    H274753   6.162   4.228   3.618 -0.6163  0.9089  1.8501
17780TIP3   OH274754   3.796   4.224  13.341  0.0067 -0.0038  0.0251
17780TIP3    H174755   3.795   4.309  13.297 -0.6864  0.0712  0.1757
17780TIP3    H274756   3.706   4.191  13.331  0.0953 -0.4144  0.5536
17781TIP3   OH274757   5.848   2.193   5.454  0.4502  0.1731 -0.4104
17781TIP3    H174758   5.878   2.116   5.503 -1.6832 -0.5458 -0.1648
17781TIP3    H274759   5.839   2.262   5.520 -3.0669 -0.9699  0.5144
17782TIP3   OH274760   5.152   0.432  12.895  0.3676  0.4188 -0.4779
17782TIP3    H174761   5.151   0.354  12.839 -2.5140  1.7107 -2.4302
17782TIP3    H274762   5.164   0.397  12.984 -0.1637 -2.1815 -1.3443
17783TIP3   OH274763   5.409   6.470  12.110 -0.1376 -0.6688 -0.7264
17783TIP3    H174764   5.487   6.507  12.150 -0.1801 -0.8851 -0.4382
17783TIP3    H274765   5.362   6.545  12.074  1.3592 -0.7398 -3.0221
17784TIP3   OH274766   0.009   0.510   4.486  0.4695  0.1539  0.6914
17784TIP3    H174767   0.099   0.542   4.479 -0.2201  1.8800 -1.8864
17784TIP3    H274768   0.001   0.481   4.577  3.0443  1.7066  1.5375
17785TIP3   OH274769   2.546   5.911  12.809 -0.2253  0.1675  0.1993
17785TIP3    H174770   2.485   5.837  12.819  0.5637 -0.2585  2.3607
17785TIP3    H274771   2.504   5.983  12.855  1.2564 -0.4246  2.7028
17786TIP3   OH274772   6.067   0.990  11.089 -0.3689 -0.6435 -0.5898
17786TIP3    H174773   6.032   1.064  11.040  1.1581  0.8333  0.4479
17786TIP3    H274774   6.150   0.970  11.047  0.7165  0.3150  0.9791
17787TIP3   OH274775   3.246   1.493   2.531 -0.6013 -0.4821 -0.2481
17787TIP3    H174776   3.280   1.579   2.508  0.7036 -0.3673  1.7797
17787TIP3    H274777   3.161   1.510   2.572 -0.1932 -0.0901  0.4616
17788TIP3   OH274778   1.670   3.608   5.218 -0.0839  0.2669 -0.1755
17788TIP3    H174779   1.748   3.662   5.202  0.4506 -0.8219 -1.4156
17788TIP3    H274780   1.703   3.527   5.255 -0.8824  0.7094  1.6097
17789TIP3   OH274781   5.445   2.252  17.144 -0.0452 -0.1256 -0.1666
17789TIP3    H174782   5.386   2.227  17.072 -0.7885  0.6049  0.1715
17789TIP3    H274783   5.532   2.246  17.106 -0.4573  1.0020 -1.3891
17790TIP3   OH274784   0.510   4.669   4.424  0.5045  0.2262  0.2303
17790TIP3    H174785   0.478   4.614   4.352 -0.8423  0.7770  0.3793
17790TIP3    H274786   0.591   4.626   4.452 -0.3928 -1.5797  0.2220
17791TIP3   OH274787   4.830   2.371  15.946  0.0363 -0.4537 -0.5340
17791TIP3    H174788   4.828   2.307  16.016  1.8702 -0.2905 -0.2729
17791TIP3    H274789   4.884   2.443  15.980 -1.1572  0.8018 -1.1739
17792TIP3   OH274790   3.891   2.076  13.212  0.2102 -0.0601  0.5280
17792TIP3    H174791   3.826   2.012  13.241  0.2670 -1.4806 -2.1917
17792TIP3    H274792   3.970   2.024  13.197  0.6061  0.8218 -0.5782
17793TIP3   OH274793   6.741   6.205  14.739  0.3528 -0.4748 -0.0721
17793TIP3    H174794   6.697   6.123  14.757  0.0564 -0.3853 -0.3739
17793TIP3    H274795   6.829   6.180  14.711 -0.4632 -0.8537 -2.5505
17794TIP3   OH274796   1.849   1.166  15.880  0.4159  0.3357 -0.0697
17794TIP3    H174797   1.763   1.131  15.902  1.0632  0.1192  2.4899
17794TIP3    H274798   1.835   1.260  15.871 -0.4639  0.0548 -2.1131
17795TIP3   OH274799   4.270   3.737  14.574 -0.0188 -0.0085 -0.1117
17795TIP3    H174800   4.306   3.692  14.498  0.1146  2.1167 -1.4081
17795TIP3    H274801   4.177   3.712  14.575 -0.2048  0.5114 -1.4893
17796TIP3   OH274802   5.920   3.564  16.093 -0.6242 -0.1494  0.1004
17796TIP3    H174803   5.862   3.641  16.095  1.1393  1.2402  1.5432
17796TIP3    H274804   5.996   3.593  16.044 -0.3707 -1.3632 -0.2471
17797TIP3   OH274805   4.685   5.184   3.993  0.5410  0.3162  0.0338
17797TIP3    H174806   4.691   5.211   3.901 -0.4307 -1.4352 -0.5832
17797TIP3    H274807   4.593   5.199   4.016  0.1377 -1.6354 -0.1174
17798TIP3   OH274808   0.046   0.380  12.158  0.3440  0.0046  0.2077
17798TIP3    H174809  -0.019   0.320  12.119 -1.5397  0.5210  2.3143
17798TIP3    H274810   0.095   0.414  12.083 -1.2455 -1.0842 -1.4276
17799TIP3   OH274811   3.304   1.102   2.118 -0.2088  0.4673 -0.3244
17799TIP3    H174812   3.254   1.038   2.068 -0.9373 -0.2032  1.1755
17799TIP3    H274813   3.238   1.150   2.168  0.5583 -1.3669  2.7858
17800TIP3   OH274814   5.402   5.139  15.196  0.4839  0.0346 -0.0403
17800TIP3    H174815   5.432   5.055  15.162  1.0954  0.3416 -0.2747
17800TIP3    H274816   5.470   5.167  15.257  1.3757  1.3696 -1.5637
17801TIP3   OH274817   0.614   0.423   6.436 -0.1340 -0.3141  0.2374
17801TIP3    H174818   0.626   0.481   6.510  0.5976 -0.2055  0.0384
17801TIP3    H274819   0.626   0.478   6.359 -1.5814 -0.2731  0.0128
17802TIP3   OH274820   4.514   4.368  13.851  0.0377  0.0554 -0.0224
17802TIP3    H174821   4.604   4.355  13.880  0.2096  0.5916 -0.3135
17802TIP3    H274822   4.460   4.330  13.921  0.4620  0.5189  0.5593
17803TIP3   OH274823   5.640   5.238   4.282 -0.0155 -0.0574 -0.2689
17803TIP3    H174824   5.561   5.200   4.244  0.5477  0.0384 -1.5956
17803TIP3    H274825   5.692   5.266   4.206  1.8139 -1.1480  0.5083
17804TIP3   OH274826   4.703   0.433  16.486  0.0732 -0.4199 -0.1432
17804TIP3    H174827   4.665   0.345  16.488  0.6119 -0.6512 -0.0079
17804TIP3    H274828   4.785   0.425  16.534  1.2213 -0.3595 -2.0141
17805TIP3   OH274829   4.386   6.046  15.085  0.0934 -0.0125  0.2244
17805TIP3    H174830   4.448   6.011  15.149 -2.3720 -0.8627  2.3206
17805TIP3    H274831   4.328   5.972  15.065 -2.4117  1.5431  1.1837
17806TIP3   OH274832   4.941   5.902  10.863 -0.1458 -0.0635 -0.3604
17806TIP3    H174833   4.993   5.831  10.901 -1.4812 -1.7187 -1.4648
17806TIP3    H274834   4.979   5.915  10.776  0.2949  0.8276 -0.0455
17807TIP3   OH274835   0.375   4.031  15.534 -0.3349  0.2238 -0.0772
17807TIP3    H174836   0.378   4.057  15.626 -1.5551  0.3741 -0.0587
17807TIP3    H274837   0.418   4.102  15.487 -0.6011  0.6308  0.2915
17808TIP3   OH274838   6.444   5.043  13.680 -0.0250  0.3666  1.2392
17808TIP3    H174839   6.397   5.024  13.599 -0.5171 -0.1400  1.6381
17808TIP3    H274840   6.460   4.958  13.719  1.7587  0.4876  0.8369
17809TIP3   OH274841   3.020   5.058   2.908  0.1151 -0.4384 -0.1932
17809TIP3    H174842   2.997   5.103   2.989 -0.7311  1.7663 -1.5768
17809TIP3    H274843   3.115   5.047   2.913  0.0733 -0.3829  1.0893
17810TIP3   OH274844   0.680   3.012   0.034 -0.0979  0.2348  0.1213
17810TIP3    H174845   0.673   3.070   0.110  0.1033  1.3154 -0.6696
17810TIP3    H274846   0.746   2.947   0.060  1.1932  1.5570  0.2921
17811TIP3   OH274847   6.265   1.120  11.613 -0.0643  0.4215 -0.6011
17811TIP3    H174848   6.259   1.133  11.708 -0.3842  0.4024 -0.6165
17811TIP3    H274849   6.256   1.025  11.602  1.3563  0.2580 -0.5554
17812TIP3   OH274850   4.134   6.594  10.923  0.5127  0.1978 -0.3551
17812TIP3    H174851   4.176   6.672  10.887  0.3435 -0.7621 -2.9150
17812TIP3    H274852   4.201   6.527  10.918  0.2907 -0.1044  0.6553
17813TIP3   OH274853   1.514   3.480   0.801 -0.0520  0.4736 -0.2693
17813TIP3    H174854   1.488   3.561   0.757  3.8578  3.3800  2.0808
17813TIP3    H274855   1.514   3.414   0.731  0.6866  3.4860 -3.4120
17814TIP3   OH274856   0.888   5.662   6.091  0.4579  0.4568 -0.4776
17814TIP3    H174857   0.843   5.688   6.011 -0.0623  0.4142 -0.1966
17814TIP3    H274858   0.973   5.629   6.061 -0.4382 -1.3298 -1.1892
17815TIP3   OH274859   0.926   2.187   5.339  0.1982 -0.3374  0.0153
17815TIP3    H174860   0.947   2.258   5.278  0.0280 -0.5530 -0.2977
17815TIP3    H274861   1.008   2.137   5.346  0.0894 -0.5688 -0.3807
17816TIP3   OH274862   3.500   4.077  15.315  0.4977  0.5404 -0.2337
17816TIP3    H174863   3.584   4.108  15.349  1.0656 -0.2161 -0.9216
17816TIP3    H274864   3.481   3.999  15.367 -0.6247  1.6406  1.0711
17817TIP3   OH274865   1.239   0.095  14.343  0.9222 -0.3189  0.2533
17817TIP3    H174866   1.240   0.188  14.324 -0.3128 -0.6116 -1.5066
17817TIP3    H274867   1.329   0.066  14.330  1.2597  0.5727  0.5676
17818TIP3   OH274868   6.040   4.780  15.665 -0.1081 -0.2462 -0.1331
17818TIP3    H174869   5.963   4.754  15.613  0.8016 -2.2007 -0.6175
17818TIP3    H274870   6.113   4.776  15.603  0.7127 -0.7109  0.8462
17819TIP3   OH274871   4.781   4.522   1.715  0.4045 -0.3750  0.0007
17819TIP3    H174872   4.815   4.494   1.799 -0.9656  0.5927  0.9271
17819TIP3    H274873   4.839   4.482   1.650  3.2795  1.1651  1.4353
17820TIP3   OH274874   3.726   5.330   3.452 -0.1370  0.4210 -0.0631
17820TIP3    H174875   3.741   5.301   3.542  0.2335  0.4537 -0.1127
17820TIP3    H274876   3.814   5.345   3.417 -0.2205 -0.5055 -0.7283
17821TIP3   OH274877   4.943   4.611   2.737  0.1568 -0.1860  0.4327
17821TIP3    H174878   4.980   4.523   2.748  1.4480  0.5878  2.7764
17821TIP3    H274879   5.018   4.669   2.738 -0.7692  1.0576 -0.0151
17822TIP3   OH274880   2.772   5.730  11.647  0.1382  0.1358 -0.0025
17822TIP3    H174881   2.731   5.694  11.568  0.5350 -2.4725  0.8627
17822TIP3    H274882   2.855   5.766  11.617 -0.1658  0.0884 -0.9261
17823TIP3   OH274883   6.030   6.126   2.156 -0.4360  0.3703 -0.3547
17823TIP3    H174884   6.049   6.214   2.190 -2.5195  1.0040 -0.6856
17823TIP3    H274885   6.100   6.109   2.092  0.2273  1.6001  0.0123
17824TIP3   OH274886   4.984   4.301  16.209 -0.0043 -0.3797  0.5387
17824TIP3    H174887   4.904   4.252  16.190 -0.5243  1.1386 -1.5349
17824TIP3    H274888   5.055   4.243  16.183 -0.4478 -1.2532  1.2128
17825TIP3   OH274889   0.945   5.174  11.770 -0.1907  0.2186 -1.0081
17825TIP3    H174890   0.971   5.112  11.839 -0.7998 -0.1183 -1.0690
17825TIP3    H274891   1.006   5.157  11.699  0.5275  0.6586 -0.5133
17826TIP3   OH274892   4.417   0.631  15.419  0.2583 -0.2311 -0.0091
17826TIP3    H174893   4.431   0.579  15.340 -1.2598  1.8250 -1.7619
17826TIP3    H274894   4.490   0.692  15.421 -0.4287  0.6483 -0.6884
17827TIP3   OH274895   5.470   5.591  15.156 -0.0533  0.8195 -0.4809
17827TIP3    H174896   5.523   5.664  15.186  2.5786 -1.5501  1.1313
17827TIP3    H274897   5.496   5.578  15.065  0.4838  1.0617 -0.3667
17828TIP3   OH274898   3.757   4.518  12.984  0.0689 -0.2961 -0.2066
17828TIP3    H174899   3.662   4.507  12.977  0.2146 -1.0296 -1.2163
17828TIP3    H274900   3.776   4.499  13.076 -0.3782 -3.6200 -0.6706
17829TIP3   OH274901   5.794   6.247  12.312  0.1421  0.3330 -0.1435
17829TIP3    H174902   5.770   6.190  12.240 -0.1197 -0.0979  0.2810
17829TIP3    H274903   5.740   6.217  12.385  0.0215  1.0998  0.0931
17830TIP3   OH274904   2.134   4.589   1.007  0.7831 -0.1545  0.7172
17830TIP3    H174905   2.040   4.586   1.026 -0.0917 -0.2485 -2.8868
17830TIP3    H274906   2.140   4.638   0.924  3.9605  0.0182  0.9315
17831TIP3   OH274907   3.636   6.112   4.201  0.0348 -0.3776 -0.3245
17831TIP3    H174908   3.613   6.145   4.114 -3.0858 -1.8813 -0.2422
17831TIP3    H274909   3.593   6.172   4.262  2.2448  0.6959  0.2545
17832TIP3   OH274910   4.928   5.581   6.486 -0.5724  0.5158 -0.1649
17832TIP3    H174911   4.948   5.569   6.394  1.3499  0.3842  0.2319
17832TIP3    H274912   4.869   5.508   6.508 -0.5675  0.2141 -1.1277
17833TIP3   OH274913   0.549   5.846   6.331  0.1575  0.3524  0.0197
17833TIP3    H174914   0.460   5.854   6.365  0.8646  0.5658  1.8911
17833TIP3    H274915   0.601   5.908   6.382  1.6285 -0.6802 -0.1343
17834TIP3   OH274916   1.818   5.946  13.575 -1.2102  0.3168  0.3076
17834TIP3    H174917   1.753   6.004  13.615  2.0593  2.9775  2.1842
17834TIP3    H274918   1.835   5.880  13.642 -0.0977  1.2217  0.9461
17835TIP3   OH274919   1.961   6.530  16.960 -0.1483  0.1301  0.5816
17835TIP3    H174920   1.998   6.566  16.880  0.2293 -2.9769 -0.7908
17835TIP3    H274921   2.009   6.573  17.030  2.5579 -0.0892 -1.0127
17836TIP3   OH274922   3.506   1.920   5.044  0.2562  0.2419  0.5003
17836TIP3    H174923   3.435   1.971   5.005 -0.1881 -1.0365 -0.4243
17836TIP3    H274924   3.573   1.917   4.976 -0.3294 -1.6073 -0.0609
17837TIP3   OH274925   0.493   6.804  15.397  0.1572  0.4475 -0.2537
17837TIP3    H174926   0.529   6.723  15.432 -0.0674  0.5779  0.2932
17837TIP3    H274927   0.470   6.855  15.475  0.0959  0.9429 -0.5938
17838TIP3   OH274928   5.022   2.960  11.889  0.5043 -0.1571  1.0820
17838TIP3    H174929   4.985   2.908  11.961 -1.4184 -1.0508 -0.4330
17838TIP3    H274930   4.950   2.966  11.826  2.7021 -1.2662 -1.7283
17839TIP3   OH274931   0.434   1.283  14.393 -0.1475 -0.2986  0.0840
17839TIP3    H174932   0.437   1.275  14.488  0.0470 -0.6966  0.0480
17839TIP3    H274933   0.508   1.340  14.372  0.9500 -1.6851  0.0350
17840TIP3   OH274934   1.846   6.558  12.983  0.1809 -0.0506  0.3732
17840TIP3    H174935   1.773   6.533  12.926  0.9679 -0.3061 -0.5531
17840TIP3    H274936   1.874   6.643  12.950  0.3840 -0.0124  0.6404
17841TIP3   OH274937   0.374   1.749  14.269  0.4360  0.4913 -0.0120
17841TIP3    H174938   0.343   1.692  14.198 -1.0738 -1.4945  2.1040
17841TIP3    H274939   0.320   1.828  14.261 -0.9059 -0.3959 -0.1056
17842TIP3   OH274940   6.373   3.487   2.685 -0.3040  0.5239  0.5184
17842TIP3    H174941   6.446   3.503   2.625  0.9511 -2.6191  0.9583
17842TIP3    H274942   6.295   3.501   2.633  0.7214 -1.4448 -1.7899
17843TIP3   OH274943   4.600   2.057   2.431 -0.3269  0.0208 -0.0406
17843TIP3    H174944   4.682   2.018   2.401  1.3909  0.9891  2.9298
17843TIP3    H274945   4.550   1.984   2.467 -0.0517 -0.3707 -0.4441
17844TIP3   OH274946   6.338   5.926  12.082  0.5003  0.0249 -0.1892
17844TIP3    H174947   6.426   5.959  12.099 -0.4815  1.6331  2.3313
17844TIP3    H274948   6.297   5.994  12.028  0.5417 -0.3605 -0.7165
17845TIP3   OH274949   1.537   2.099   4.226 -0.3939  0.1021  0.4571
17845TIP3    H174950   1.572   2.056   4.303 -0.9128  1.0925  1.2688
17845TIP3    H274951   1.452   2.134   4.254  0.5499  2.8099  0.2842
17846TIP3   OH274952   5.936   4.816  14.953  0.0131 -0.3621  0.5292
17846TIP3    H174953   5.968   4.781  14.870 -0.4306  1.5885 -0.5129
17846TIP3    H274954   5.920   4.909  14.936 -1.7325 -0.2634  2.3143
17847TIP3   OH274955   3.495   4.897  10.369  0.0114 -0.0413 -0.3106
17847TIP3    H174956   3.430   4.840  10.411  0.8624 -0.9048 -0.1277
17847TIP3    H274957   3.555   4.836  10.325 -0.0895  0.7978 -1.6490
17848TIP3   OH274958   0.542   5.619   0.416 -0.0267  0.7571 -0.3461
17848TIP3    H174959   0.618   5.664   0.381  0.2247  2.1216  1.7583
17848TIP3    H274960   0.572   5.582   0.499 -1.6240  1.4307  0.5895
17849TIP3   OH274961   4.516   6.364  12.106  0.5327  0.0922 -0.4924
17849TIP3    H174962   4.501   6.313  12.185  1.5751  1.5240  0.6710
17849TIP3    H274963   4.448   6.432  12.107 -1.0710 -1.3670 -2.2124
17850TIP3   OH274964   0.070   0.892  14.914  0.1729 -0.1022  0.4518
17850TIP3    H174965   0.111   0.930  14.836  0.8854 -0.3781  0.6848
17850TIP3    H274966  -0.015   0.860  14.884  0.2888  0.1279 -0.1260
17851TIP3   OH274967   0.049   5.754  11.914  0.5068 -0.0441 -0.3142
17851TIP3    H174968   0.131   5.736  11.960 -0.3517 -0.5251  1.1198
17851TIP3    H274969   0.002   5.670  11.916 -0.5926  0.5570  0.1441
17852TIP3   OH274970   2.203   1.583  14.462  0.3408 -1.2073 -0.0254
17852TIP3    H174971   2.280   1.632  14.432 -0.0341  0.2506  1.2897
17852TIP3    H274972   2.133   1.647  14.461 -0.2461 -1.7926  1.4669
17853TIP3   OH274973   4.519   2.116   0.625 -0.3450  0.9249  0.1042
17853TIP3    H174974   4.457   2.093   0.555  1.0938  0.1661 -0.9947
17853TIP3    H274975   4.483   2.075   0.703 -0.2027 -1.3353 -0.9274
17854TIP3   OH274976   2.183   1.722   2.924  0.0884 -0.3335 -0.0527
17854TIP3    H174977   2.157   1.636   2.892 -1.7171  0.3946 -0.7348
17854TIP3    H274978   2.118   1.743   2.992  0.2009  0.6671 -0.2335
17855TIP3   OH274979   2.884   1.174  12.873  0.5494 -0.2602 -0.0539
17855TIP3    H174980   2.806   1.229  12.865  1.9481  1.9243  0.3799
17855TIP3    H274981   2.925   1.177  12.786  1.7938  1.3304  0.5345
17856TIP3   OH274982   3.828   1.296  14.554 -0.1266  0.3225  0.0556
17856TIP3    H174983   3.770   1.260  14.487  1.4601 -0.8308 -0.7678
17856TIP3    H274984   3.785   1.274  14.637  0.0048 -2.2509 -0.4639
17857TIP3   OH274985   6.352   0.088  15.787  0.1517 -0.8514 -0.3172
17857TIP3    H174986   6.318  -0.000  15.773  2.8623 -1.9487 -0.5500
17857TIP3    H274987   6.385   0.087  15.877  0.5058 -0.1967 -0.4338
17858TIP3   OH274988   6.217   1.198   1.989  0.0415 -0.0173  0.0043
17858TIP3    H174989   6.233   1.290   1.966 -1.3153  0.4134  0.7121
17858TIP3    H274990   6.305   1.160   1.999  0.6350  1.6442  1.4770
17859TIP3   OH274991   1.694   1.309   1.861  0.1622  0.0953 -0.0620
17859TIP3    H174992   1.613   1.264   1.836  0.5838 -0.4398 -0.4736
17859TIP3    H274993   1.674   1.346   1.948 -1.0792  1.3974 -0.8412
17860TIP3   OH274994   1.325   5.686   3.812  0.3208 -0.2704  0.4466
17860TIP3    H174995   1.254   5.709   3.872  0.5877 -0.5440  0.8710
17860TIP3    H274996   1.403   5.682   3.867  0.9597  1.4769 -0.2596
17861TIP3   OH274997   2.483   2.090  16.741  0.1475  0.0147  0.1388
17861TIP3    H174998   2.392   2.117  16.746  0.4557  1.0049  0.6745
17861TIP3    H274999   2.525   2.132  16.817  1.2037  0.2216 -0.5318
17862TIP3   OH275000   0.751   0.104  11.655 -0.3340  0.2144  0.2781
17862TIP3    H175001   0.683   0.040  11.635 -0.3574  0.1540  0.5560
17862TIP3    H275002   0.734   0.176  11.594 -1.8763  1.1004  1.6851
17863TIP3   OH275003   2.327   2.229  11.994 -0.0005 -0.3994  0.3820
17863TIP3    H175004   2.351   2.161  11.932 -0.0064 -0.6236  0.6250
17863TIP3    H275005   2.284   2.296  11.941  0.6184 -0.2703  0.0335
17864TIP3   OH275006   2.108   2.034  16.620  0.3126  0.2422  0.3080
17864TIP3    H175007   2.148   2.114  16.587  0.5625 -0.1344 -0.3261
17864TIP3    H275008   2.072   1.991  16.543  1.2640 -0.8552  0.4406
17865TIP3   OH275009   4.525   0.311   0.504  0.0263  0.0752 -0.1152
17865TIP3    H175010   4.473   0.303   0.584 -0.6115  1.7936 -0.3093
17865TIP3    H275011   4.476   0.372   0.450  0.8532 -0.4509 -1.5016
17866TIP3   OH275012   4.422   2.456  12.609  0.2104  0.0961  0.2485
17866TIP3    H175013   4.497   2.493  12.562  1.6365 -3.2525 -0.4458
17866TIP3    H275014   4.346   2.491  12.564  1.3186  2.8038  0.2907
17867TIP3   OH275015   4.879   2.662  14.551  0.4683 -0.5972 -0.1738
17867TIP3    H175016   4.939   2.705  14.611  0.0182  1.0984 -0.9001
17867TIP3    H275017   4.811   2.726  14.534 -1.1634 -2.2028  0.0141
17868TIP3   OH275018   6.387   3.391  13.737  0.0372 -0.4443  0.0095
17868TIP3    H175019   6.356   3.436  13.659  0.7174  0.6491  0.3418
17868TIP3    H275020   6.373   3.453  13.808  1.6596 -0.4437  0.3742
17869TIP3   OH275021   0.348   3.813   2.113 -0.1366 -0.4233  0.4061
17869TIP3    H175022   0.345   3.888   2.172  1.9033 -0.2568  0.3747
17869TIP3    H275023   0.264   3.770   2.125 -0.1388  0.0971  2.7753
17870TIP3   OH275024   2.474   6.364  13.587  0.2718 -0.1461 -0.3458
17870TIP3    H175025   2.535   6.333  13.654 -0.4249 -2.1330 -0.5545
17870TIP3    H275026   2.388   6.360  13.630 -0.2248 -1.7347 -1.3809
17871TIP3   OH275027   1.198   4.853   3.123 -0.2859  0.2759  0.5472
17871TIP3    H175028   1.199   4.866   3.028  1.1243 -0.1155  0.4889
17871TIP3    H275029   1.265   4.787   3.139 -2.1214 -1.4151  1.5979
17872TIP3   OH275030   2.806   6.398   2.032  0.3874  0.5011  0.2648
17872TIP3    H175031   2.735   6.333   2.029 -0.7094  1.6025  1.0098
17872TIP3    H275032   2.880   6.355   1.990 -1.3470  0.0796 -2.6572
17873TIP3   OH275033   1.198   1.494  16.583  0.0250  0.1891  0.5376
17873TIP3    H175034   1.249   1.572  16.561  0.6970 -0.2965  0.3280
17873TIP3    H275035   1.220   1.430  16.515 -1.7246  0.3109 -0.2019
17874TIP3   OH275036   3.013   6.369   6.696 -0.2986  0.1764  0.0878
17874TIP3    H175037   3.070   6.303   6.735  0.7288  0.8408 -0.2508
17874TIP3    H275038   3.014   6.349   6.602 -1.2536 -0.2708  0.1573
17875TIP3   OH275039   6.417   2.799   1.234  0.4256 -0.6344 -0.4910
17875TIP3    H175040   6.423   2.704   1.225  0.9829 -0.5008 -1.6526
17875TIP3    H275041   6.332   2.821   1.197  0.1199 -0.7115  0.1489
17876TIP3   OH275042   2.775   6.446  14.314 -0.1813 -0.0052 -0.6217
17876TIP3    H175043   2.756   6.501  14.390 -0.8242 -0.2398 -0.6014
17876TIP3    H275044   2.814   6.506  14.250 -0.1879  0.3178 -0.3242
17877TIP3   OH275045   1.486   1.512   3.944 -0.0622  0.1642  0.9104
17877TIP3    H175046   1.574   1.487   3.916 -1.3828 -1.8632 -1.9938
17877TIP3    H275047   1.471   1.462   4.025  0.0879 -2.9001 -0.7818
17878TIP3   OH275048   4.351   1.189   0.890 -0.3618  0.6037  0.0258
17878TIP3    H175049   4.439   1.191   0.853 -0.4283 -2.1958 -0.4501
17878TIP3    H275050   4.292   1.194   0.815 -0.5624 -0.3359  0.1133
17879TIP3   OH275051   3.716   2.427  16.158 -0.1684  0.2951 -0.2806
17879TIP3    H175052   3.694   2.396  16.070 -2.4996  2.4227 -0.5686
17879TIP3    H275053   3.692   2.354  16.215  3.2951 -1.9438 -1.3932
17880TIP3   OH275054   6.362   5.782  16.009  0.1966  0.1266 -0.2367
17880TIP3    H175055   6.433   5.827  16.056  0.3528 -2.4687  2.2695
17880TIP3    H275056   6.399   5.698  15.983 -1.8731 -1.3127  1.1460
17881TIP3   OH275057   1.876   2.180  12.776  0.2814 -0.2241 -0.0144
17881TIP3    H175058   1.845   2.251  12.832  0.4585  0.1156 -0.3433
17881TIP3    H275059   1.943   2.136  12.829  0.0004 -0.2965  0.2830
17882TIP3   OH275060   1.800   3.114   2.654  0.3961  0.0966  0.2338
17882TIP3    H175061   1.804   3.159   2.570 -2.4657 -0.9886 -0.5897
17882TIP3    H275062   1.775   3.181   2.717 -1.9371  0.1466 -0.6482
17883TIP3   OH275063   0.101   0.887  15.670  0.3230  0.1967 -0.2300
17883TIP3    H175064   0.194   0.865  15.667  0.4607  0.2900  1.8967
17883TIP3    H275065   0.063   0.824  15.732 -0.4750  1.8827  1.0864
17884TIP3   OH275066   2.118   6.778  17.057 -0.6117 -0.2934 -0.0085
17884TIP3    H175067   2.079   6.861  17.083 -1.8264  0.0353 -2.5356
17884TIP3    H275068   2.107   6.721  17.133 -1.0117  1.4357  1.2801
17885TIP3   OH275069   5.870   3.096  16.929  0.1570  0.1517  0.3596
17885TIP3    H175070   5.809   3.106  16.857 -1.5654 -0.6828  1.6227
17885TIP3    H275071   5.957   3.104  16.889 -0.7109 -1.0262 -1.9101
17886TIP3   OH275072   2.630   0.121   5.258  0.2478  0.1286  0.2680
17886TIP3    H175073   2.678   0.039   5.248  1.5988  0.8041  0.9238
17886TIP3    H275074   2.609   0.125   5.352 -0.0974  0.3891  0.1830
17887TIP3   OH275075   0.601   6.493   3.136  0.4764 -0.3263  0.1112
17887TIP3    H175076   0.625   6.581   3.106 -1.9455  0.5707  0.5342
17887TIP3    H275077   0.545   6.508   3.212  0.0379 -2.2490  0.2235
17888TIP3   OH275078   3.729   2.145  11.193 -0.4049 -0.5434  0.3029
17888TIP3    H175079   3.808   2.164  11.244 -0.1163  0.3693 -0.4554
17888TIP3    H275080   3.686   2.230  11.184 -0.7099 -0.7818 -0.5535
17889TIP3   OH275081   2.942   1.095  16.955  0.2304  0.3574 -0.2931
17889TIP3    H175082   2.863   1.149  16.960  0.2701  0.4180 -0.3233
17889TIP3    H275083   2.911   1.009  16.926 -0.0731 -0.1273  1.3499
17890TIP3   OH275084   0.821   6.211   2.678  0.1766 -0.0666  0.5250
17890TIP3    H175085   0.901   6.160   2.663 -0.0029 -0.1372 -0.2375
17890TIP3    H275086   0.769   6.197   2.599 -1.0168 -0.7829  1.4139
17891TIP3   OH275087   5.859   6.408  11.208  0.3718  0.2651  0.0809
17891TIP3    H175088   5.893   6.471  11.145 -0.0078  1.1569  0.7357
17891TIP3    H275089   5.766   6.402  11.188  0.2606  0.5071  0.5014
17892TIP3   OH275090   2.748   1.221  15.572 -0.2873  0.1182 -0.3156
17892TIP3    H175091   2.736   1.315  15.555 -0.5280  0.3355  0.9078
17892TIP3    H275092   2.786   1.218  15.660  0.6688 -0.9087 -0.7486
17893TIP3   OH275093   5.226   5.438  16.262  0.4787  0.3669  0.4803
17893TIP3    H175094   5.255   5.512  16.208  1.2095  0.6028  1.1752
17893TIP3    H275095   5.181   5.380  16.200 -0.5890  1.6291  0.0186
17894TIP3   OH275096   1.482   3.021   4.424 -0.0054  0.1772  0.0709
17894TIP3    H175097   1.394   3.036   4.456  0.0514  0.8241 -0.0632
17894TIP3    H275098   1.489   3.075   4.345  0.8942  1.0649  0.7382
17895TIP3   OH275099   4.750   0.200   1.817 -0.7324  0.3487 -0.5145
17895TIP3    H175100   4.825   0.139   1.817 -1.1316 -0.1488 -0.2759
17895TIP3    H275101   4.745   0.232   1.727  0.0658  0.7599 -0.4260
17896TIP3   OH275102   3.738   1.921  10.843  0.1436 -0.2167  0.1325
17896TIP3    H175103   3.708   1.887  10.758 -1.4627 -1.7016  1.2206
17896TIP3    H275104   3.746   2.015  10.830 -2.0346 -0.1508 -1.1317
17897TIP3   OH275105   5.721   3.539   5.047 -0.6585  0.4061 -0.4841
17897TIP3    H175106   5.703   3.468   4.986  1.0043 -0.3815 -0.1376
17897TIP3    H275107   5.635   3.566   5.079 -1.4968  0.1376 -2.3480
17898TIP3   OH275108   2.145   0.641   6.049  0.1274  0.1999  0.2263
17898TIP3    H175109   2.095   0.634   5.967 -0.3907  0.9111  0.4728
17898TIP3    H275110   2.225   0.687   6.024 -0.6687  1.7267  0.3680
17899TIP3   OH275111   3.017   5.644   4.853 -0.1494 -0.3421  0.1806
17899TIP3    H175112   3.092   5.605   4.808  0.0331  2.2963 -2.1097
17899TIP3    H275113   2.952   5.657   4.785 -1.0621  1.1425  1.2598
17900TIP3   OH275114   0.926   5.852  14.726  0.4007 -0.2574  0.3267
17900TIP3    H175115   0.982   5.899  14.664  1.4563  2.0973  2.8746
17900TIP3    H275116   0.987   5.805  14.783 -0.4730 -1.1835  0.5408
17901TIP3   OH275117   4.533   5.228   0.428  0.0445  0.1476  0.6104
17901TIP3    H175118   4.582   5.311   0.428 -0.7379  0.6335 -0.2166
17901TIP3    H275119   4.464   5.241   0.492  1.2169 -0.7116  2.1264
17902TIP3   OH275120   1.355   4.028  12.810 -0.2164  0.2170  0.1466
17902TIP3    H175121   1.399   4.104  12.848  0.3531  0.0442 -0.1512
17902TIP3    H275122   1.325   4.058  12.724  0.0493  0.0915  0.0101
17903TIP3   OH275123   4.133   1.805   5.117  0.9043 -0.1805 -0.0002
17903TIP3    H175124   4.174   1.872   5.172  2.4686 -2.5483  1.9403
17903TIP3    H275125   4.040   1.827   5.118  1.4281  2.3801 -0.1531
17904TIP3   OH275126   0.187   1.376  16.530  0.0969  1.0303 -0.4462
17904TIP3    H175127   0.127   1.379  16.604  0.2661 -1.3329 -0.1236
17904TIP3    H275128   0.131   1.357  16.455  0.1556  1.4960 -0.6137
17905TIP3   OH275129   1.575   3.370   4.574  0.5067  0.1485  0.1642
17905TIP3    H175130   1.604   3.366   4.482 -0.7163 -5.1788 -0.3248
17905TIP3    H275131   1.480   3.382   4.569  0.5179  0.5641  0.8087
17906TIP3   OH275132   6.321   1.863   4.583  0.3795  0.9601  0.3285
17906TIP3    H175133   6.312   1.865   4.679 -2.1528  1.0326  0.1384
17906TIP3    H275134   6.352   1.950   4.560  0.4998  1.1133  1.0372
17907TIP3   OH275135   4.847   5.911   1.214  0.1989 -0.3389  0.1410
17907TIP3    H175136   4.800   5.972   1.272 -0.7470 -1.6205  0.7731
17907TIP3    H275137   4.939   5.936   1.221  0.0577 -0.2194  1.9190
17908TIP3   OH275138   4.124   1.313   1.072  0.5087 -0.3067 -0.2117
17908TIP3    H175139   4.116   1.409   1.074  2.9431 -0.0508  0.4609
17908TIP3    H275140   4.218   1.297   1.082 -0.0164 -2.8213  1.5327
17909TIP3   OH275141   6.092   0.645   3.939  0.0045 -0.0834 -0.2832
17909TIP3    H175142   6.182   0.677   3.936 -0.1169  0.5046  1.3051
17909TIP3    H275143   6.099   0.551   3.922  1.0241 -0.1975  0.6290
17910TIP3   OH275144   4.898   0.364  15.658 -0.0293  0.5493 -0.2961
17910TIP3    H175145   4.804   0.349  15.652  0.2159 -0.8449 -0.9661
17910TIP3    H275146   4.914   0.387  15.750 -1.1303  1.7730 -0.3835
17911TIP3   OH275147   0.418   0.340   3.785  0.5175 -0.2941  0.8900
17911TIP3    H175148   0.442   0.391   3.708 -0.2415 -0.9361  0.2069
17911TIP3    H275149   0.448   0.393   3.859 -0.0611  1.0336  0.2037
17912TIP3   OH275150   2.813   5.127  13.394 -0.1272  0.6988  0.5134
17912TIP3    H175151   2.867   5.050  13.413  0.3663  1.4386  2.2827
17912TIP3    H275152   2.870   5.202  13.411 -0.5088  1.5014 -1.4660
17913TIP3   OH275153   0.146   0.124  10.934  0.3126 -0.4521  0.3881
17913TIP3    H175154   0.084   0.177  10.983  0.9424 -2.1368  3.2798
17913TIP3    H275155   0.092   0.060  10.887 -0.2894  0.9970 -0.9867
17914TIP3   OH275156   2.955   2.567   3.890  0.4875 -0.5061  0.3686
17914TIP3    H175157   2.927   2.564   3.798  0.8971  0.1420  0.2150
17914TIP3    H275158   2.988   2.657   3.902 -1.0019 -0.0903  1.5856
17915TIP3   OH275159   4.732   1.300   1.235 -0.3337 -0.0169 -0.4262
17915TIP3    H175160   4.744   1.211   1.268 -1.7925  0.1644  0.6718
17915TIP3    H275161   4.821   1.330   1.215  0.4447 -0.7736  1.6649
17916TIP3   OH275162   1.918   6.075  13.347 -0.2167 -0.0068 -0.2976
17916TIP3    H175163   1.853   6.145  13.347 -1.2025 -0.7069 -3.7955
17916TIP3    H275164   1.883   6.009  13.408 -2.1690  0.2038 -1.1096
17917TIP3   OH275165   0.907   4.524  16.452 -0.1330  0.6068 -0.2337
17917TIP3    H175166   0.936   4.537  16.542 -0.3508 -1.9252  0.2738
17917TIP3    H275167   0.814   4.503  16.460 -0.4585  1.5805 -1.1916
17918TIP3   OH275168   5.659   1.062  11.103  0.0730  0.1525  0.1851
17918TIP3    H175169   5.693   1.147  11.076  2.4499 -0.7919 -0.0729
17918TIP3    H275170   5.610   1.080  11.183  0.7981  1.7352  0.3169
17919TIP3   OH275171   3.925   5.210  12.858  0.3531 -0.2833  0.0757
17919TIP3    H175172   3.841   5.165  12.844  1.2339 -2.3635  1.1513
17919TIP3    H275173   3.973   5.154  12.918  2.6726  0.7020 -0.7389
17920TIP3   OH275174   0.530   2.507   5.315  0.0532 -0.5164 -0.3454
17920TIP3    H175175   0.577   2.427   5.338  1.6771  0.7540  1.0260
17920TIP3    H275176   0.440   2.491   5.343  0.6645 -1.3410  1.2977
17921TIP3   OH275177   0.552   4.586   1.608  0.9895 -0.5919  0.0832
17921TIP3    H175178   0.584   4.594   1.698 -1.8951  0.4447  1.1235
17921TIP3    H275179   0.552   4.676   1.574  1.3694 -0.8837 -0.7351
17922TIP3   OH275180   4.130   1.168  14.029 -0.0288  0.2179 -0.5040
17922TIP3    H175181   4.213   1.180  13.984 -0.8878 -1.0605 -2.5632
17922TIP3    H275182   4.148   1.099  14.094  0.6444  0.3662 -0.5240
17923TIP3   OH275183   4.625   2.993   3.501 -0.3002  0.0117 -0.3837
17923TIP3    H175184   4.703   3.039   3.470  0.3725 -0.8710 -0.0944
17923TIP3    H275185   4.661   2.923   3.556 -1.3641  0.3886  0.8272
17924TIP3   OH275186   4.891   1.113   2.532  0.1414  0.0493  0.8104
17924TIP3    H175187   4.813   1.120   2.587 -0.5604  1.2392 -0.2713
17924TIP3    H275188   4.895   1.196   2.485  1.7814 -0.1991  0.4443
17925TIP3   OH275189   2.087   0.368   5.438 -0.2152 -0.0285  0.2915
17925TIP3    H175190   2.115   0.446   5.389  0.1064  1.5919  2.8414
17925TIP3    H275191   2.008   0.396   5.484 -0.9926 -1.7426  0.0696
17926TIP3   OH275192   6.659   2.404  15.326 -0.4516  0.5914  0.3471
17926TIP3    H175193   6.688   2.391  15.416 -0.7190  0.6309  0.4383
17926TIP3    H275194   6.722   2.355  15.273 -1.1161 -0.6333  0.6470
17927TIP3   OH275195   2.612   5.273   4.913  0.1485  0.0182 -0.0379
17927TIP3    H175196   2.686   5.213   4.910  0.4183  0.3080  0.6297
17927TIP3    H275197   2.543   5.224   4.958  0.4959  0.3274  0.8605
17928TIP3   OH275198   4.803   3.985  11.836  0.1478 -0.4315 -0.1326
17928TIP3    H175199   4.794   4.015  11.926 -0.4212 -2.2475  0.4578
17928TIP3    H275200   4.803   4.065  11.783 -1.6394  0.5746  1.2986
17929TIP3   OH275201   0.807   6.760   4.142  0.3673 -0.2894  0.1216
17929TIP3    H175202   0.764   6.726   4.220  0.3425  0.1817  0.3201
17929TIP3    H275203   0.890   6.797   4.175 -0.9637  2.7189  0.4678
17930TIP3   OH275204   4.833   3.981   2.679  0.3626 -0.3407 -0.2550
17930TIP3    H175205   4.790   4.059   2.643  1.1067  0.2453  0.1121
17930TIP3    H275206   4.926   4.001   2.677  0.4397 -0.2241  2.1086
17931TIP3   OH275207   4.165   0.769   4.239  0.3869 -0.1023 -0.4933
17931TIP3    H175208   4.257   0.791   4.225  0.6337 -0.7555  0.0311
17931TIP3    H275209   4.163   0.728   4.326 -0.0153 -2.1438 -1.4040
17932TIP3   OH275210   1.058   6.289  15.664  0.2569 -0.2826 -0.4049
17932TIP3    H175211   1.130   6.353  15.663 -0.9939  1.1723 -0.1468
17932TIP3    H275212   1.062   6.248  15.577  0.9013  0.3565 -0.6873
17933TIP3   OH275213   1.496   3.619   6.164 -0.1029 -0.6088  0.5395
17933TIP3    H175214   1.532   3.585   6.245 -0.7850 -0.5501  0.8752
17933TIP3    H275215   1.425   3.558   6.141 -2.1628  1.1626  1.7936
17934TIP3   OH275216   6.063   2.981  15.743 -0.2042  0.5074 -0.3766
17934TIP3    H175217   6.021   2.966  15.828  0.0014 -4.0282 -0.8317
17934TIP3    H275218   5.991   2.980  15.680 -0.1989  2.2258 -0.4436
17935TIP3   OH275219   6.481   6.590   2.257 -0.3180 -0.1193  0.0935
17935TIP3    H175220   6.411   6.564   2.317 -0.0595 -2.5598 -0.5406
17935TIP3    H275221   6.555   6.534   2.282  0.8032  1.0560 -0.4886
17936TIP3   OH275222   3.529   4.948   1.033  0.0488  0.2011  0.6441
17936TIP3    H175223   3.486   5.015   0.981 -0.3936 -0.2426  0.4293
17936TIP3    H275224   3.509   4.866   0.988  1.2578 -0.0109  0.4435
17937TIP3   OH275225   1.268   5.204  10.510  1.1278 -0.1892  0.7851
17937TIP3    H175226   1.261   5.136  10.577  1.7563 -0.7725  0.2701
17937TIP3    H275227   1.191   5.260  10.524  1.6107  0.1064  2.4281
17938TIP3   OH275228   1.563   1.998  16.283  0.2323  0.4989 -0.0350
17938TIP3    H175229   1.559   2.026  16.192 -0.0764 -0.9408 -0.4853
17938TIP3    H275230   1.640   1.941  16.287 -1.9887 -2.8006 -0.4392
17939TIP3   OH275231   1.227   4.091  14.648  0.3114  0.5526  0.3370
17939TIP3    H175232   1.269   4.171  14.679 -0.0191  1.6696 -1.9121
17939TIP3    H275233   1.222   4.101  14.553 -0.3092 -1.8824  0.0388
17940TIP3   OH275234   1.426   2.529   4.128  0.6543 -0.1998  0.2127
17940TIP3    H175235   1.368   2.601   4.151 -1.1270 -1.4944 -0.0248
17940TIP3    H275236   1.478   2.562   4.054 -0.3532  0.7128 -0.1099
17941TIP3   OH275237   3.885   1.837   0.631  0.1125  0.5456  0.1366
17941TIP3    H175238   3.910   1.748   0.653  0.7913  0.0480 -2.3972
17941TIP3    H275239   3.937   1.892   0.690  2.6278 -0.6558 -0.8074
17942TIP3   OH275240   4.294   1.997   5.931  0.2380  0.1981  0.8849
17942TIP3    H175241   4.310   1.979   6.024 -1.3789  2.1419  1.5983
17942TIP3    H275242   4.208   1.958   5.913 -0.5949  1.9433  0.9042
17943TIP3   OH275243   4.709   0.001  14.970 -0.0764 -0.3651  0.2232
17943TIP3    H175244   4.741  -0.089  14.975  1.1162  0.0978  2.1692
17943TIP3    H275245   4.618  -0.005  14.999 -0.2069 -1.0339 -0.3010
17944TIP3   OH275246   1.115   4.490   4.282  0.0223 -0.8138  0.1058
17944TIP3    H175247   1.035   4.475   4.332 -0.2907  1.5837  0.4426
17944TIP3    H275248   1.185   4.453   4.337 -0.6435 -1.2141  0.7004
17945TIP3   OH275249   4.421   3.650  11.592 -0.3169  0.6312  0.0024
17945TIP3    H175250   4.411   3.698  11.674 -1.3483  0.0456  0.2361
17945TIP3    H275251   4.384   3.564  11.610 -0.4970  0.4736 -1.0589
17946TIP3   OH275252   2.677   4.731  14.835  0.3499 -0.5112  0.2435
17946TIP3    H175253   2.628   4.650  14.847  0.5976 -0.6574  0.2700
17946TIP3    H275254   2.663   4.755  14.743  2.4125 -1.9986 -0.5471
17947TIP3   OH275255   2.379   5.266  17.072  0.0226  0.2481 -0.2636
17947TIP3    H175256   2.325   5.251  16.994  0.3653 -0.1637 -0.4234
17947TIP3    H275257   2.450   5.202  17.064  1.4871  1.8868 -0.9262
17948TIP3   OH275258   3.532   5.725   4.012 -0.0598  0.1409 -0.3438
17948TIP3    H175259   3.571   5.697   4.095  2.8041  1.5935 -1.0462
17948TIP3    H275260   3.515   5.643   3.965 -0.7592 -0.6590  1.2309
17949TIP3   OH275261   0.630   6.674   6.004  0.6046  0.4109  0.2487
17949TIP3    H175262   0.559   6.735   6.026  0.4935  0.6966 -0.8420
17949TIP3    H275263   0.693   6.684   6.075 -0.7961 -0.4360  1.6807
17950TIP3   OH275264   1.097   1.398  12.738  0.2191  0.0058  0.0754
17950TIP3    H175265   1.093   1.302  12.743  0.5794  0.0439  1.3903
17950TIP3    H275266   1.191   1.418  12.739  0.1573  0.3732 -0.5621
17951TIP3   OH275267   2.605   5.118  16.749  0.2729  0.1170 -0.1916
17951TIP3    H175268   2.609   5.214  16.750  1.5710  0.0724 -0.0912
17951TIP3    H275269   2.586   5.094  16.840 -0.1209  0.2730 -0.2296
17952TIP3   OH275270   2.106   2.664  14.128  0.5283 -0.2387 -0.1551
17952TIP3    H175271   2.047   2.609  14.180  0.4876 -0.2005 -0.1612
17952TIP3    H275272   2.100   2.750  14.168  3.3295 -0.9698  2.1889
17953TIP3   OH275273   5.250   5.276  15.915 -0.6996 -0.7241 -0.0550
17953TIP3    H175274   5.326   5.318  15.875 -0.4944  1.1642  2.0677
17953TIP3    H275275   5.176   5.332  15.891 -1.2462 -1.8268 -1.0361
17954TIP3   OH275276   6.655   2.242  16.860 -0.0944 -0.3023  0.2904
17954TIP3    H175277   6.671   2.148  16.850 -0.3058 -0.3149  0.0413
17954TIP3    H275278   6.736   2.277  16.896  1.4700 -0.0034 -3.0699
17955TIP3   OH275279   3.874   3.893   1.973 -0.8625 -0.8490  0.0491
17955TIP3    H175280   3.949   3.836   1.989 -0.3618 -0.4311 -0.7324
17955TIP3    H275281   3.839   3.863   1.889  0.2417  0.8392 -1.0640
17956TIP3   OH275282   5.590   3.001  11.508  0.3679 -0.5237 -0.4379
17956TIP3    H175283   5.685   2.998  11.503  0.5207  0.9795  0.9500
17956TIP3    H275284   5.565   2.920  11.552  0.9777 -1.0266 -1.0049
17957TIP3   OH275285   5.600   5.257  12.511 -0.0564  0.3129  0.7953
17957TIP3    H175286   5.688   5.236  12.540  0.9016 -0.4779 -2.2903
17957TIP3    H275287   5.550   5.177  12.526  0.5275 -0.2287 -0.0457
17958TIP3   OH275288   4.290   6.524   4.882  0.6050 -0.4393  0.9670
17958TIP3    H175289   4.349   6.512   4.807 -0.7813 -4.6978  0.2654
17958TIP3    H275290   4.205   6.544   4.843  0.5762  0.8933  1.6736
17959TIP3   OH275291   3.163   6.441  17.117  0.6291 -0.3299 -0.0484
17959TIP3    H175292   3.169   6.395  17.201  2.4226 -0.0340  0.0233
17959TIP3    H275293   3.145   6.372  17.054  0.9147 -0.7861  0.3608
17960TIP3   OH275294   0.061   5.014   3.978 -0.4025 -0.1754 -0.2939
17960TIP3    H175295   0.103   4.928   3.973  1.6705  0.8288 -2.5365
17960TIP3    H275296   0.108   5.059   4.048 -1.4450 -0.7963  0.8366
17961TIP3   OH275297   5.190   0.387   4.563  0.5605  0.3927 -0.3113
17961TIP3    H175298   5.274   0.354   4.531  0.1285 -1.3049  0.1946
17961TIP3    H275299   5.125   0.330   4.521 -0.2898  1.1226 -0.0169
17962TIP3   OH275300   1.569   1.881  15.441  0.1267 -0.0342  0.0358
17962TIP3    H175301   1.574   1.935  15.520  1.8376 -0.6345  0.3731
17962TIP3    H275302   1.649   1.829  15.442  0.5714  0.4579 -2.4788
17963TIP3   OH275303   2.935   5.480   2.384  0.5212 -0.2671 -0.4831
17963TIP3    H175304   2.902   5.543   2.447  4.2081  0.1396  1.3138
17963TIP3    H275305   2.885   5.400   2.402  0.6740  0.1497  2.3022
17964TIP3   OH275306   1.440   6.468   4.340 -0.0187 -0.2570  0.5609
17964TIP3    H175307   1.354   6.427   4.329 -1.0516  1.3421  2.1351
17964TIP3    H275308   1.443   6.536   4.272  0.8430 -1.4988 -0.7116
17965TIP3   OH275309   3.851   6.111  11.372 -0.0708  0.2090  0.2406
17965TIP3    H175310   3.771   6.111  11.319 -0.0227 -0.0946  0.1641
17965TIP3    H275311   3.827   6.156  11.453 -0.0549  0.9882 -0.1714
17966TIP3   OH275312   6.726   2.983   4.507 -0.2795 -0.7209 -0.3260
17966TIP3    H175313   6.791   2.933   4.458 -0.4404 -1.4063  0.1449
17966TIP3    H275314   6.779   3.038   4.566 -0.0232  1.3187 -2.3355
17967TIP3   OH275315   4.482   0.393   0.209 -0.7592 -0.3415 -0.0594
17967TIP3    H175316   4.391   0.403   0.238 -0.9166  0.2156 -0.7008
17967TIP3    H275317   4.530   0.462   0.255 -0.8857  0.1143 -0.5972
17968TIP3   OH275318   0.173   5.975  11.866 -0.1473  0.0322 -0.3693
17968TIP3    H175319   0.125   5.893  11.859 -1.3463  0.6738  0.0192
17968TIP3    H275320   0.113   6.041  11.832  0.6417  0.8182 -0.2883
17969TIP3   OH275321   4.348   0.093  16.018  0.6311  0.0426  0.1867
17969TIP3    H175322   4.344   0.163  15.952 -0.7670  0.6690  0.8968
17969TIP3    H275323   4.382   0.137  16.097 -1.5886  0.3236  1.0584
17970TIP3   OH275324   4.352   1.558  16.914 -0.4992  1.0679  0.3659
17970TIP3    H175325   4.377   1.492  16.850 -0.6566  1.7402 -0.4149
17970TIP3    H275326   4.430   1.570  16.969 -0.5270  0.1355  0.6158
17971TIP3   OH275327   3.766   3.181  15.733  0.0851 -0.3417  0.0169
17971TIP3    H175328   3.757   3.182  15.637  3.1769 -2.1361 -0.4432
17971TIP3    H275329   3.790   3.271  15.756 -1.8330  0.4007 -0.6480
17972TIP3   OH275330   1.775   0.600   0.583  0.5707 -0.1417 -0.3599
17972TIP3    H175331   1.736   0.516   0.608  2.5634 -0.7518  0.9423
17972TIP3    H275332   1.784   0.648   0.665  0.8199  0.7359 -0.8889
17973TIP3   OH275333   0.375   4.726   0.810  0.4807 -0.0475 -0.5803
17973TIP3    H175334   0.395   4.639   0.777 -1.5997 -1.1954  0.9603
17973TIP3    H275335   0.424   4.734   0.892 -0.9201 -0.6837  0.3694
17974TIP3   OH275336   5.676   3.323  11.984 -0.3163  0.3618  0.2288
17974TIP3    H175337   5.754   3.379  11.982 -0.7523  0.9648 -0.0833
17974TIP3    H275338   5.711   3.233  11.984  0.3922  0.6227  0.8082
17975TIP3   OH275339   4.113   3.644  15.723  0.2674 -0.5573  0.3148
17975TIP3    H175340   4.086   3.689  15.804  1.5996 -0.5695  0.7939
17975TIP3    H275341   4.201   3.612  15.742  0.2517 -1.3427 -0.8499
17976TIP3   OH275342   0.245   6.642  13.969 -0.3941  0.0302  0.0143
17976TIP3    H175343   0.167   6.587  13.965  0.1878 -0.7465 -0.9953
17976TIP3    H275344   0.315   6.584  13.998  0.3199  0.1069 -1.4938
17977TIP3   OH275345   0.332   5.012   5.342 -0.1842 -0.1466  0.3971
17977TIP3    H175346   0.391   4.989   5.271  1.5839  1.1067  1.3787
17977TIP3    H275347   0.296   5.097   5.317  0.2666  0.1896  0.8622
17978TIP3   OH275348   1.343   5.720  15.826 -0.1805 -0.2014 -0.0995
17978TIP3    H175349   1.299   5.635  15.835 -0.2831  0.0042  1.7774
17978TIP3    H275350   1.398   5.726  15.904  0.2682  1.2185 -0.5054
17979TIP3   OH275351   2.392   3.601   4.456  0.2175 -0.4146  0.2815
17979TIP3    H175352   2.383   3.697   4.460  1.3011  0.0374 -3.6038
17979TIP3    H275353   2.305   3.570   4.431  0.5593 -0.0167 -1.5625
17980TIP3   OH275354   6.014   6.303   0.846 -0.3325  0.1100  0.2369
17980TIP3    H175355   6.023   6.362   0.771  2.0977 -1.2225 -0.6148
17980TIP3    H275356   5.919   6.293   0.857 -0.8564 -0.7322 -3.5920
17981TIP3   OH275357   2.593   2.488  14.467  0.1798  0.4307 -0.1235
17981TIP3    H175358   2.618   2.405  14.509  1.3505  0.8929  0.1396
17981TIP3    H275359   2.506   2.472  14.431 -0.0729 -0.5698  0.8823
17982TIP3   OH275360   2.548   0.859  16.495  0.0829  0.1532  0.1506
17982TIP3    H175361   2.625   0.832  16.445 -0.1110  0.6751 -0.4392
17982TIP3    H275362   2.539   0.952  16.477  0.6062  0.5825  1.9886
17983TIP3   OH275363   1.040   5.001  12.006  0.1953 -0.2325  0.2458
17983TIP3    H175364   1.064   4.919  11.961 -2.1130 -2.0312  2.0840
17983TIP3    H275365   1.116   5.020  12.061 -0.1952 -2.6735  1.7692
17984TIP3   OH275366   6.466   1.655   4.874  0.3306 -0.1627 -0.3053
17984TIP3    H175367   6.393   1.701   4.914  2.0482  0.8454  1.8892
17984TIP3    H275368   6.471   1.572   4.922  0.8420 -0.0480 -0.1489
17985TIP3   OH275369   0.543   1.924  11.046 -0.5539  1.0416 -0.1772
17985TIP3    H175370   0.583   2.007  11.022  0.4736  0.7574  0.4691
17985TIP3    H275371   0.478   1.947  11.112 -2.1766  1.6165 -1.8922
17986TIP3   OH275372   5.478   3.882  12.133  0.0978  0.5587 -0.2265
17986TIP3    H175373   5.398   3.871  12.083 -0.8024  2.6121  0.6274
17986TIP3    H275374   5.502   3.974  12.120  1.3210  0.4501  0.9558
17987TIP3   OH275375   2.997   0.619  14.844 -0.1554  0.1752  0.9388
17987TIP3    H175376   3.076   0.644  14.795 -0.7810  0.4898  0.0570
17987TIP3    H275377   2.929   0.678  14.811 -0.5563  0.5645  2.3821
17988TIP3   OH275378   2.022   5.316  14.068 -0.1280 -0.8560  0.0290
17988TIP3    H175379   2.115   5.319  14.089 -0.5827  0.3909  2.1256
17988TIP3    H275380   2.010   5.387  14.004  0.6965 -2.5390 -2.1232
17989TIP3   OH275381   2.080   5.010   5.723 -0.1445 -0.1072 -0.5467
17989TIP3    H175382   2.025   4.968   5.657  0.3234  0.8298 -1.5566
17989TIP3    H275383   2.169   5.006   5.688  0.2910 -0.5974  0.5508
17990TIP3   OH275384   2.939   0.274   5.962  0.3891 -0.2589 -0.2869
17990TIP3    H175385   2.880   0.281   6.037 -1.3194 -0.6076 -1.5251
17990TIP3    H275386   3.027   0.278   5.999 -0.4001  0.9242  1.5846
17991TIP3   OH275387   2.483   6.385  14.061  0.0023  0.1702  0.0048
17991TIP3    H175388   2.502   6.431  14.143 -0.0864  0.6723 -0.2517
17991TIP3    H275389   2.387   6.385  14.055 -0.0325 -0.7875  0.4128
17992TIP3   OH275390   4.342   5.519  12.013  0.0917 -0.0950  0.1620
17992TIP3    H175391   4.278   5.450  12.032  1.8549 -1.4479  1.6012
17992TIP3    H275392   4.342   5.573  12.092  0.8842 -0.2841  0.3031
17993TIP3   OH275393   1.242   3.744   0.739 -0.6050 -0.3585 -0.0086
17993TIP3    H175394   1.226   3.752   0.833  0.7204 -1.6916  0.3681
17993TIP3    H275395   1.231   3.650   0.721 -1.5682 -0.0330 -1.3530
17994TIP3   OH275396   0.225   1.575  12.186 -0.2397  0.6150  0.1473
17994TIP3    H175397   0.199   1.624  12.264  0.6974  0.9115  0.2810
17994TIP3    H275398   0.178   1.618  12.115 -2.6943 -0.8938  0.7351
17995TIP3   OH275399   0.743   1.053  11.198 -0.1116 -0.3067  0.1435
17995TIP3    H175400   0.648   1.058  11.195 -0.2690 -2.3338  0.0062
17995TIP3    H275401   0.769   1.119  11.262 -1.5333  0.8192 -0.4039
17996TIP3   OH275402   1.247   0.925   2.063  0.5331 -0.1255  0.4718
17996TIP3    H175403   1.234   1.018   2.079  1.6690  0.0941  0.1630
17996TIP3    H275404   1.160   0.892   2.041  0.3938  1.1981 -1.1002
17997TIP3   OH275405   5.079   3.413  13.774 -0.2845 -0.6345 -1.0399
17997TIP3    H175406   5.046   3.423  13.863  2.6810 -0.7564  0.1932
17997TIP3    H275407   5.073   3.500  13.736 -2.7420 -0.8344 -1.2404
17998TIP3   OH275408   3.788   1.267  13.568  0.0406  0.8486  0.4181
17998TIP3    H175409   3.753   1.325  13.500 -0.2262  2.4016  1.7928
17998TIP3    H275410   3.711   1.225  13.606  0.0817  0.8528  0.5056
17999TIP3   OH275411   2.311   0.884   6.714  0.1230 -0.0185  0.7347
17999TIP3    H175412   2.376   0.873   6.644  0.4497  0.0908  1.0211
17999TIP3    H275413   2.305   0.979   6.725  0.6219 -0.0535  1.3654
18000TIP3   OH275414   2.689   2.534   4.058 -0.3041 -0.4669  0.0938
18000TIP3    H175415   2.649   2.537   3.971  1.3106 -1.4812 -0.7321
18000TIP3    H275416   2.759   2.469   4.050 -0.0920 -0.5539  2.1542
18001TIP3   OH275417   5.629   3.866  11.737 -0.1208  0.2180  0.1740
18001TIP3    H175418   5.568   3.933  11.768 -1.4632 -0.7952 -0.2194
18001TIP3    H275419   5.676   3.838  11.816 -0.0466  1.0984  0.4543
18002TIP3   OH275420   5.605   2.277  12.131 -0.1152  0.4172 -0.1849
18002TIP3    H175421   5.696   2.288  12.101 -0.3307 -2.4069 -2.3643
18002TIP3    H275422   5.552   2.311  12.058 -0.6500 -4.5298 -2.5291
18003TIP3   OH275423   5.098   1.279  12.826 -0.8169  0.8438  0.0462
18003TIP3    H175424   5.151   1.348  12.867  0.5430 -0.2579  0.2153
18003TIP3    H275425   5.052   1.239  12.900 -0.9176  0.9822  0.0604
18004TIP3   OH275426   2.998   4.768   4.902 -0.0851 -0.3184  0.2790
18004TIP3    H175427   3.041   4.850   4.925  1.8902 -1.3243  0.3464
18004TIP3    H275428   3.024   4.751   4.812  0.3993 -1.3668  0.6012
18005TIP3   OH275429   5.756   3.292  14.111 -0.4597  0.2813 -0.3359
18005TIP3    H175430   5.752   3.212  14.163 -0.8924 -0.5392 -1.5921
18005TIP3    H275431   5.736   3.264  14.022  0.5019  1.6056 -1.0088
18006TIP3   OH275432   6.786   3.330   0.052 -0.1039 -0.0141 -0.4951
18006TIP3    H175433   6.822   3.323  -0.036  1.1594  1.6078 -0.1722
18006TIP3    H275434   6.730   3.408   0.048 -0.5088 -0.2739 -0.0020
18007TIP3   OH275435   5.216   4.254  13.802  0.2671 -0.5094  0.3252
18007TIP3    H175436   5.225   4.317  13.874  2.1835 -0.8343  0.4294
18007TIP3    H275437   5.239   4.304  13.724 -0.7409 -0.4414  0.0556
18008TIP3   OH275438   2.590   3.790  12.511  0.0716 -0.0449  0.2015
18008TIP3    H175439   2.567   3.697  12.509  0.0660 -0.0276 -1.8078
18008TIP3    H275440   2.571   3.822  12.423  0.9586  1.6592  0.5822
18009TIP3   OH275441   1.091   1.259   0.324  0.6084  0.3084  0.2852
18009TIP3    H175442   1.048   1.245   0.240  1.0630 -0.1465  0.1283
18009TIP3    H275443   1.140   1.341   0.313  0.5556  0.3231  0.1565
18010TIP3   OH275444   3.089   3.576   3.746  0.5900 -0.2115  0.2299
18010TIP3    H175445   3.165   3.589   3.691 -0.2211  0.1022 -0.8494
18010TIP3    H275446   3.033   3.652   3.728 -0.4085 -0.9208  0.2554
18011TIP3   OH275447   6.050   1.912   3.041  0.1125 -0.3977  0.6727
18011TIP3    H175448   6.087   1.991   3.002  1.8828 -0.1207  2.7203
18011TIP3    H275449   6.007   1.943   3.120  1.1871 -1.4683  1.7234
18012TIP3   OH275450   5.237   6.603   0.986  0.8093 -0.1376  0.2423
18012TIP3    H175451   5.260   6.680   0.933  0.5910  0.5727  1.1542
18012TIP3    H275452   5.295   6.534   0.953  1.0895  0.4402 -0.5230
18013TIP3   OH275453   3.469   2.088  14.101  0.3312  0.3025 -0.4944
18013TIP3    H175454   3.559   2.120  14.106  0.3018  0.2948  0.2899
18013TIP3    H275455   3.458   2.035  14.181 -0.3635  0.2932 -0.5882
18014TIP3   OH275456   2.503   2.381   0.207 -0.0907  0.1732  0.3704
18014TIP3    H175457   2.485   2.415   0.294 -1.0803  1.9016 -0.4665
18014TIP3    H275458   2.418   2.352   0.174  0.4236 -1.3871  0.2930
18015TIP3   OH275459   0.458   3.643  10.375  0.1747  0.3088 -0.6520
18015TIP3    H175460   0.421   3.559  10.400 -0.3946  0.5284 -0.7461
18015TIP3    H275461   0.553   3.630  10.381  0.0936  0.3093  1.5044
18016TIP3   OH275462   5.124   4.238   3.460 -0.6744 -0.0575  0.0108
18016TIP3    H175463   5.131   4.157   3.511  1.8333  0.3598  0.4395
18016TIP3    H275464   5.141   4.212   3.370 -0.6841 -0.1221  0.0277
18017TIP3   OH275465   2.100   2.132   5.325 -0.7390  0.4233 -0.1659
18017TIP3    H175466   2.069   2.155   5.238  0.7585 -1.2845 -1.2224
18017TIP3    H275467   2.144   2.211   5.357 -1.5311  1.1487 -0.8343
18018TIP3   OH275468   2.271   0.420   4.039  0.4787  0.0528  0.5645
18018TIP3    H175469   2.237   0.333   4.019 -1.3269  0.3664  2.0550
18018TIP3    H275470   2.195   0.478   4.036  1.3453  1.2902  1.2922
18019TIP3   OH275471   1.533   3.846   2.974 -0.3234 -0.3483  0.4766
18019TIP3    H175472   1.563   3.852   3.065  0.5848 -1.1675  0.2453
18019TIP3    H275473   1.587   3.910   2.928 -0.7692  0.0513  0.5051
18020TIP3   OH275474   2.455   6.452   1.638  0.3694  0.1166  0.2583
18020TIP3    H175475   2.510   6.377   1.616 -1.7321 -1.6201  0.5803
18020TIP3    H275476   2.470   6.465   1.732 -0.6600 -1.1838  0.6350
18021TIP3   OH275477   1.251   0.237  17.123  0.0991  0.1266 -0.2313
18021TIP3    H175478   1.257   0.204  17.033  0.0147  0.9125 -0.5286
18021TIP3    H275479   1.170   0.287  17.125 -0.6691 -1.0757  0.6904
18022TIP3   OH275480   1.885   0.765   2.248 -0.3887 -0.0381  0.2131
18022TIP3    H175481   1.901   0.859   2.245  2.4396 -0.4632 -0.7536
18022TIP3    H275482   1.845   0.750   2.334 -1.2394  2.0530  0.2343
18023TIP3   OH275483   0.266   6.712   0.224 -0.2476 -0.0118  0.0259
18023TIP3    H175484   0.193   6.772   0.206  0.6097  1.1150  0.1594
18023TIP3    H275485   0.289   6.677   0.138 -1.3347 -0.8789  0.0632
18024TIP3   OH275486   3.672   3.852   1.363 -0.6307 -0.2681 -0.3061
18024TIP3    H175487   3.592   3.801   1.374 -0.2268 -0.9502 -0.4520
18024TIP3    H275488   3.685   3.858   1.269 -0.0097 -0.9844 -0.2791
18025TIP3   OH275489   0.635   6.123   1.094 -0.3674 -0.1243  0.1647
18025TIP3    H175490   0.645   6.091   1.004 -1.5183 -1.3851  0.4479
18025TIP3    H275491   0.718   6.167   1.113  0.3092 -0.7641 -1.1409
18026TIP3   OH275492   4.160   1.039  13.112 -0.1278  0.1302  0.0994
18026TIP3    H175493   4.099   1.085  13.169 -0.6122 -0.1706 -0.1738
18026TIP3    H275494   4.229   1.009  13.171  1.3182  2.9746  0.0157
18027TIP3   OH275495   2.430   4.718   0.717  0.0692 -0.3680  0.6669
18027TIP3    H175496   2.410   4.798   0.765 -0.8858 -0.4692  0.4451
18027TIP3    H275497   2.373   4.721   0.640  0.5117 -0.9369  0.3078
18028TIP3   OH275498   4.970   4.999   0.072 -0.0843 -0.6055 -0.0533
18028TIP3    H175499   4.990   4.941  -0.002  1.1733  0.8674 -0.9303
18028TIP3    H275500   4.910   4.948   0.127  0.0671 -2.2816 -1.3567
18029TIP3   OH275501   5.809   4.939   2.914  0.0093 -0.3099  0.3427
18029TIP3    H175502   5.829   4.991   2.836  0.0533 -0.3200  0.3478
18029TIP3    H275503   5.775   5.003   2.977  2.0676  0.0765  1.1226
18030TIP3   OH275504   0.766   6.042   4.298 -0.2439  0.1013 -0.1413
18030TIP3    H175505   0.837   5.992   4.258  0.1710  0.3995  0.2162
18030TIP3    H275506   0.770   6.019   4.391 -0.9999 -0.3414 -0.2037
18031TIP3   OH275507   2.977   6.117  16.820 -0.1520 -0.0106  0.6496
18031TIP3    H175508   2.936   6.032  16.831 -0.2177  0.0667  1.0294
18031TIP3    H275509   2.979   6.132  16.726  0.0682 -0.5344  0.5673
18032TIP3   OH275510   4.904   4.811   3.223 -0.4198  0.3942 -0.2391
18032TIP3    H175511   4.832   4.781   3.168 -0.4295  2.4459 -1.4369
18032TIP3    H275512   4.883   4.902   3.242  1.2332  0.6617  0.4532
18033TIP3   OH275513   5.186   2.066   5.052 -0.2181  0.1127 -0.2964
18033TIP3    H175514   5.148   1.994   5.103 -1.6931  0.6978 -0.5161
18033TIP3    H275515   5.213   2.027   4.969 -1.6442 -0.0841 -0.6868
18034TIP3   OH275516   1.933   4.883  15.360 -0.7247 -0.1502  0.6597
18034TIP3    H175517   1.969   4.883  15.449  0.8342  0.9221  0.0656
18034TIP3    H275518   1.852   4.833  15.368 -0.4474 -0.3929  2.6092
18035TIP3   OH275519   0.496   6.413  13.746 -0.0398  0.1191  0.5878
18035TIP3    H175520   0.496   6.505  13.722 -2.5523 -0.2330 -1.1663
18035TIP3    H275521   0.505   6.366  13.663 -0.5012 -1.2003  1.2461
18036TIP3   OH275522   2.130   6.105   4.691 -0.4836  0.1118  0.3633
18036TIP3    H175523   2.223   6.093   4.713  0.0182  0.5921 -1.3180
18036TIP3    H275524   2.111   6.196   4.714 -0.5678 -0.0085  0.7789
18037TIP3   OH275525   1.970   6.296  15.296  0.5576 -0.0017  0.1968
18037TIP3    H175526   1.972   6.384  15.334  0.6791  0.9281 -1.8220
18037TIP3    H275527   1.878   6.278  15.281  0.5981  0.2046 -0.3039
18038TIP3   OH275528   5.651   4.221  12.568 -0.3470 -0.5765 -0.0781
18038TIP3    H175529   5.670   4.314  12.575  0.8139 -0.7955  0.0131
18038TIP3    H275530   5.673   4.198  12.478  0.6913 -1.0075  0.2618
18039TIP3   OH275531   3.368   6.070   2.920 -0.6404 -0.1298 -0.4160
18039TIP3    H175532   3.434   6.135   2.894 -1.9590  2.4258  2.1727
18039TIP3    H275533   3.401   5.987   2.884  1.6180  1.7450 -3.0745
18040TIP3   OH275534   2.864   3.775   3.644  0.6697  0.2421  0.0934
18040TIP3    H175535   2.810   3.799   3.569  2.0011  1.8168 -0.4255
18040TIP3    H275536   2.803   3.768   3.717 -0.8724 -2.7387 -1.3329
18041TIP3   OH275537   6.551   0.561   6.455  0.1257 -0.0415 -0.0433
18041TIP3    H175538   6.590   0.487   6.409 -1.5202 -1.2871  0.4705
18041TIP3    H275539   6.457   0.545   6.452 -0.2219  1.5527  0.9046
18042TIP3   OH275540   3.653   2.639   4.156 -0.1922  0.2328  0.4810
18042TIP3    H175541   3.697   2.583   4.219 -1.0038 -1.9388 -0.7657
18042TIP3    H275542   3.598   2.579   4.105 -1.9481  2.3401 -0.2435
18043TIP3   OH275543   6.323   0.868  14.297  0.0989 -0.0534 -0.1538
18043TIP3    H175544   6.392   0.802  14.312  0.3896 -0.4012 -2.6040
18043TIP3    H275545   6.251   0.818  14.259 -0.9516  0.5634  0.9922
18044TIP3   OH275546   0.388   0.657   5.894  0.3342 -0.2834  0.0414
18044TIP3    H175547   0.422   0.741   5.925 -2.2440  0.9347 -0.2417
18044TIP3    H275548   0.446   0.635   5.820  2.1513  0.2954  1.2182
18045TIP3   OH275549   5.571   5.921  15.238 -0.0014  0.8637  0.5901
18045TIP3    H175550   5.546   5.997  15.186 -0.9968 -0.7615 -1.4605
18045TIP3    H275551   5.650   5.888  15.196  0.6453  0.9460  1.6995
18046TIP3   OH275552   6.658   3.013   1.175 -0.8905 -0.0881  0.2250
18046TIP3    H175553   6.584   3.009   1.236  0.2331 -0.1694  1.6609
18046TIP3    H275554   6.735   3.004   1.232  0.2349  0.4934 -1.1616
18047TIP3   OH275555   6.338   6.770   3.096  0.0992 -0.3121  0.3282
18047TIP3    H175556   6.326   6.689   3.144  0.4550 -1.1594 -0.9651
18047TIP3    H275557   6.271   6.829   3.130  0.7067 -0.6758  2.2475
18048TIP3   OH275558   4.433   4.962  11.271  0.2970  0.6389 -0.2431
18048TIP3    H175559   4.460   4.897  11.207  1.4174  1.3571 -0.5375
18048TIP3    H275560   4.366   5.014  11.227  1.5601  1.5776 -1.1265
18049TIP3   OH275561   2.377   0.052  12.262  0.1987 -0.5333  0.0206
18049TIP3    H175562   2.377   0.079  12.170 -1.9926 -0.7481 -0.0925
18049TIP3    H275563   2.456  -0.002  12.270  1.8424  1.5525 -1.0360
18050TIP3   OH275564   3.524   2.293   0.684 -0.0515 -0.0118  0.1589
18050TIP3    H175565   3.454   2.326   0.741  0.5850 -1.9614  2.2124
18050TIP3    H275566   3.480   2.273   0.601 -1.5097  0.6966  0.7268
18051TIP3   OH275567   5.942   2.717   5.635 -0.1784 -0.2609  0.0736
18051TIP3    H175568   5.917   2.724   5.727 -1.1992  0.3791 -0.2225
18051TIP3    H275569   6.037   2.714   5.636 -0.1410  0.4861  1.1192
18052TIP3   OH275570   3.844   3.023  16.003 -0.6380  0.0407 -0.1138
18052TIP3    H175571   3.819   3.085  15.934 -1.0298  0.5129  0.4459
18052TIP3    H275572   3.924   3.059  16.040  0.4310 -0.9970 -1.2940
18053TIP3   OH275573   2.110   1.235   0.467  0.0752 -0.3699  1.0352
18053TIP3    H175574   2.177   1.304   0.462  0.2928 -0.6253  0.1535
18053TIP3    H275575   2.042   1.272   0.522 -1.2924  1.8884 -1.8859
18054TIP3   OH275576   1.410   1.097   4.864  0.4185  0.2059 -0.4301
18054TIP3    H175577   1.480   1.158   4.887 -0.6765  0.7252  1.7809
18054TIP3    H275578   1.451   1.010   4.867  1.6393  0.6845 -2.1684
18055TIP3   OH275579   6.536   5.917  16.187 -0.1210  0.6674 -0.6146
18055TIP3    H175580   6.625   5.913  16.221 -0.6689 -0.0512  0.7945
18055TIP3    H275581   6.498   5.994  16.229 -0.0437  1.2489 -1.5763
18056TIP3   OH275582   2.299   1.974   4.592  0.0684  0.5940  0.3489
18056TIP3    H175583   2.373   1.995   4.649  1.1483 -0.3702 -0.6671
18056TIP3    H275584   2.305   1.880   4.577 -1.9709  0.2874  1.0397
18057TIP3   OH275585   0.672   2.505   5.860  1.2423  0.0411 -0.1561
18057TIP3    H175586   0.587   2.494   5.901  0.0054 -0.1649 -2.6235
18057TIP3    H275587   0.732   2.523   5.933 -0.8006 -0.2507  1.6746
18058TIP3   OH275588   6.206   6.378   3.841 -0.2073 -0.6757  0.0106
18058TIP3    H175589   6.233   6.466   3.867  0.1546 -0.8391  0.1925
18058TIP3    H275590   6.273   6.350   3.779 -0.7858 -0.4921 -0.7106
18059TIP3   OH275591   6.517   0.914   2.322  0.0865  0.0470  0.0631
18059TIP3    H175592   6.472   0.836   2.289 -1.5255  0.5973  0.8656
18059TIP3    H275593   6.573   0.881   2.392  0.0342 -0.4995 -0.1468
18060TIP3   OH275594   3.467   4.740  16.433  0.0692 -0.0745  0.3696
18060TIP3    H175595   3.523   4.664  16.447  1.9919  1.2706  0.3347
18060TIP3    H275596   3.521   4.801  16.382 -1.5690  1.1416 -0.0045
18061TIP3   OH275597   2.297   6.784  12.603  0.0380 -0.1654 -0.3386
18061TIP3    H175598   2.315   6.715  12.538 -1.1636  1.3318 -2.3737
18061TIP3    H275599   2.202   6.783  12.613  0.2154 -0.6804  1.8666
18062TIP3   OH275600   2.610   0.938  12.940 -0.0430 -0.1630 -0.1526
18062TIP3    H175601   2.699   0.972  12.951 -0.0702  0.0347 -0.5258
18062TIP3    H275602   2.614   0.890  12.857 -0.1432 -0.6150  0.1049
18063TIP3   OH275603   0.313   5.746  12.044  0.2952 -0.1201 -0.5426
18063TIP3    H175604   0.310   5.829  12.093 -0.7144 -0.3072 -0.2501
18063TIP3    H275605   0.381   5.695  12.087 -0.9622 -0.5087  1.0986
18064TIP3   OH275606   1.191   4.882   2.760  0.1209  0.4984 -0.3889
18064TIP3    H175607   1.210   4.841   2.676  0.7160  1.6427 -0.8389
18064TIP3    H275608   1.207   4.813   2.825  0.5972 -0.1202 -1.1498
18065TIP3   OH275609   5.677   4.129  13.687  0.2984 -0.0497 -0.8379
18065TIP3    H175610   5.634   4.199  13.736 -0.1579  0.9458 -2.5824
18065TIP3    H275611   5.634   4.129  13.602  0.8809 -1.8959 -1.1819
18066TIP3   OH275612   6.177   1.868   4.128  0.2267 -0.3303  0.3921
18066TIP3    H175613   6.232   1.792   4.146  2.3675  0.8280 -0.8699
18066TIP3    H275614   6.117   1.873   4.203  1.2922 -2.1209  1.4249
18067TIP3   OH275615   3.594   2.471   4.395  0.0326  0.0680 -0.2122
18067TIP3    H175616   3.572   2.385   4.430 -1.8484  0.9318  0.8385
18067TIP3    H275617   3.546   2.477   4.312  0.2061  0.1047 -0.3125
18068TIP3   OH275618   3.538   3.562  15.939 -0.4115 -0.6249 -0.2826
18068TIP3    H175619   3.498   3.647  15.957 -1.7930 -1.0287 -1.2516
18068TIP3    H275620   3.576   3.535  16.023 -1.3583  0.2254  0.4448
18069TIP3   OH275621   0.448   1.212  12.013 -0.1360 -0.0417  0.1630
18069TIP3    H175622   0.370   1.240  12.061 -0.7374  0.2106 -0.9475
18069TIP3    H275623   0.466   1.124  12.046 -0.2163  0.3238  1.2326
18070TIP3   OH275624   2.142   0.298   0.834  0.1046  0.4498  0.1748
18070TIP3    H175625   2.205   0.353   0.788  2.4077 -0.7356  1.7050
18070TIP3    H275626   2.193   0.222   0.863 -2.4983 -1.5630 -0.1586
18071TIP3   OH275627   3.580   1.658  16.382  0.0927  0.0136  0.4659
18071TIP3    H175628   3.567   1.627  16.471 -1.3323  1.7285  0.9099
18071TIP3    H275629   3.499   1.633  16.336  1.5208 -2.5279 -0.9578
18072TIP3   OH275630   1.631   0.961   2.814 -0.2135  0.8342 -0.4046
18072TIP3    H175631   1.706   0.965   2.874 -0.9502  0.0521  0.6058
18072TIP3    H275632   1.555   0.981   2.870 -0.8669  0.5822 -1.1838
18073TIP3   OH275633   4.010   6.015   5.679  0.6461  0.3546  0.6741
18073TIP3    H175634   3.927   6.060   5.662 -0.7350 -2.0173  0.7520
18073TIP3    H275635   4.028   5.966   5.599  1.2583 -0.1885  1.1304
18074TIP3   OH275636   1.212   6.695   2.866  0.0149  0.8625 -0.0366
18074TIP3    H175637   1.204   6.690   2.771 -2.4709 -0.8263  0.1402
18074TIP3    H275638   1.152   6.765   2.892  0.0626  0.7792  0.3077
18075TIP3   OH275639   4.215   0.215   3.465  0.5369 -0.1392 -0.4102
18075TIP3    H175640   4.243   0.260   3.546  0.2414 -0.2858 -0.2271
18075TIP3    H275641   4.252   0.268   3.395 -0.2888  0.7219 -0.2135
18076TIP3   OH275642   1.714   0.153   5.488  0.1287 -0.2451  0.4253
18076TIP3    H175643   1.623   0.160   5.517 -0.5851 -2.6365 -0.9570
18076TIP3    H275644   1.715   0.195   5.401  0.3550 -0.2353  0.4313
18077TIP3   OH275645   0.388   6.076  15.925  0.1959  0.2553 -0.5357
18077TIP3    H175646   0.401   6.048  16.015  2.3377  1.8616 -0.2836
18077TIP3    H275647   0.293   6.084  15.916 -0.1014 -0.7455  1.2837
18078TIP3   OH275648   1.604   1.627  13.387  0.5965 -0.5183  0.1259
18078TIP3    H175649   1.581   1.717  13.366  0.1893 -0.2253  1.7043
18078TIP3    H275650   1.578   1.577  13.309 -1.4846  0.3891  0.1734
18079TIP3   OH275651   4.526   0.726  14.219 -0.3531  0.1128  0.2679
18079TIP3    H175652   4.487   0.783  14.285 -0.6060  0.6839 -0.3542
18079TIP3    H275653   4.487   0.756  14.137  0.1606 -0.4012 -0.1692
18080TIP3   OH275654   5.983   2.562   3.359 -0.0851  0.5034  0.6331
18080TIP3    H175655   6.073   2.583   3.384  0.3987  1.5292 -1.7369
18080TIP3    H275656   5.991   2.516   3.275 -1.7613  0.4125  0.4818
18081TIP3   OH275657   0.796   4.520   4.760  0.0226  0.1401 -0.3982
18081TIP3    H175658   0.796   4.437   4.808  2.0619 -1.1357 -2.4535
18081TIP3    H275659   0.820   4.585   4.826  1.6058 -1.3807  0.6084
18082TIP3   OH275660   1.718   6.380  15.043  0.0541  0.0221 -0.0247
18082TIP3    H175661   1.635   6.334  15.055 -0.1216  0.2767 -0.2603
18082TIP3    H275662   1.775   6.314  15.003  0.0344 -0.2196  0.3441
18083TIP3   OH275663   2.217   0.542   2.276  0.3371  0.2923 -0.4587
18083TIP3    H175664   2.226   0.611   2.210  1.6122  1.3958  0.7857
18083TIP3    H275665   2.300   0.494   2.271  0.2533  0.0944  0.0315
18084TIP3   OH275666   0.134   0.933   2.561  0.4914  0.0078 -0.3589
18084TIP3    H175667   0.189   0.982   2.499 -1.5007 -1.1806 -3.3444
18084TIP3    H275668   0.183   0.853   2.577  1.0627  0.3480 -0.3564
18085TIP3   OH275669   5.181   0.020  10.928  0.2763 -0.0587 -0.0542
18085TIP3    H175670   5.182   0.036  10.833  0.9718 -0.4992 -0.1306
18085TIP3    H275671   5.143  -0.067  10.937  1.2814 -0.5181 -0.0290
18086TIP3   OH275672   0.152   1.307  11.891  0.5807 -0.0666  0.0265
18086TIP3    H175673   0.161   1.275  11.980  0.5864 -0.8274 -0.2373
18086TIP3    H275674   0.059   1.298  11.871  0.5546  0.2367 -0.0015
18087TIP3   OH275675   6.328   5.780   0.829  0.5238  0.2391 -0.3084
18087TIP3    H175676   6.324   5.716   0.899  0.9500 -1.2348 -1.5843
18087TIP3    H275677   6.371   5.856   0.868  0.8266 -0.5781  0.9993
18088TIP3   OH275678   6.518   2.429   5.114 -0.5662 -0.1313  0.0184
18088TIP3    H175679   6.458   2.386   5.053  0.5970  0.2046 -1.4057
18088TIP3    H275680   6.529   2.517   5.080 -1.0017  0.5618  1.5491
18089TIP3   OH275681   3.501   3.021   3.804  0.4979 -0.1774 -0.0728
18089TIP3    H175682   3.528   3.041   3.893 -0.7650 -1.6465  0.6770
18089TIP3    H275683   3.483   3.106   3.765 -1.4531  0.4085  1.9191
18090TIP3   OH275684   6.285   0.083   5.593 -0.7263 -0.1572  0.3241
18090TIP3    H175685   6.345   0.081   5.518 -1.6987  0.0815 -0.4820
18090TIP3    H275686   6.249  -0.005   5.597 -2.1542  0.3495 -0.7419
18091TIP3   OH275687   5.485   6.283   4.870 -0.1324 -0.4045  0.7052
18091TIP3    H175688   5.476   6.326   4.785 -0.8409 -0.2113  0.8735
18091TIP3    H275689   5.418   6.324   4.925 -2.5016 -3.3182  0.2396
18092TIP3   OH275690   3.035   4.203  17.098 -0.9329  0.5700  0.3372
18092TIP3    H175691   2.941   4.185  17.093 -0.7676 -0.2198 -0.1236
18092TIP3    H275692   3.068   4.144  17.166 -0.3966 -0.9364 -1.1442
18093TIP3   OH275693   0.495   3.557   0.604 -0.1275  0.3643  0.4705
18093TIP3    H175694   0.533   3.471   0.587  0.1876  0.4916  0.5188
18093TIP3    H275695   0.559   3.619   0.569 -1.3255  0.5619 -1.5060
18094TIP3   OH275696   3.036   4.684  16.964  0.1624  0.3067 -0.3387
18094TIP3    H175697   3.065   4.594  16.982 -1.0760 -0.2718 -1.0177
18094TIP3    H275698   3.005   4.680  16.873 -0.8480  1.1632 -0.0462
18095TIP3   OH275699   6.203   1.566  11.105  0.3353  0.4368 -0.1771
18095TIP3    H175700   6.209   1.491  11.046  1.2812  0.9930 -0.8076
18095TIP3    H275701   6.288   1.568  11.150 -0.2510  0.2200  0.9788
18096TIP3   OH275702   0.626   3.206   0.919 -0.3169  0.0104  0.0458
18096TIP3    H175703   0.597   3.207   1.010 -0.8149 -0.9010 -0.0886
18096TIP3    H275704   0.691   3.136   0.915 -0.1138  0.2136 -0.2390
18097TIP3   OH275705   2.562   1.466  15.737  0.2168 -0.4944 -0.4696
18097TIP3    H175706   2.528   1.518  15.810 -1.5865 -0.1339 -1.5029
18097TIP3    H275707   2.628   1.522  15.696  0.8539 -0.4844  0.5269
18098TIP3   OH275708   6.360   1.033   0.477 -0.3570 -0.2004  0.3276
18098TIP3    H175709   6.442   1.079   0.462 -0.6902  0.3034  0.0212
18098TIP3    H275710   6.317   1.084   0.546 -0.6035 -0.2092  0.1805
18099TIP3   OH275711   5.479   6.030   1.269 -0.0259  0.2064  0.6326
18099TIP3    H175712   5.496   6.091   1.341 -0.1709 -0.4081  1.2098
18099TIP3    H275713   5.411   5.971   1.304  2.0571 -2.0344  1.1936
18100TIP3   OH275714   1.049   2.689   4.916  0.2102 -0.4415  0.1005
18100TIP3    H175715   1.107   2.743   4.863  0.1761  1.5787  1.9748
18100TIP3    H275716   1.072   2.599   4.894  1.2651  0.3198 -2.1036
18101TIP3   OH275717   2.017   4.957  11.195  0.0279  0.0645  0.1705
18101TIP3    H175718   2.099   4.963  11.146  0.0974 -1.2842  0.0796
18101TIP3    H275719   1.949   4.962  11.128  0.1118 -1.2925 -0.0378
18102TIP3   OH275720   6.337   4.044  15.665 -0.0484 -0.3166 -0.2391
18102TIP3    H175721   6.367   4.061  15.576  0.4190  0.4988  0.0572
18102TIP3    H275722   6.242   4.048  15.660 -0.0557 -0.9713 -0.8277
18103TIP3   OH275723   5.127   3.738   5.350 -0.2413 -0.8607 -0.3704
18103TIP3    H175724   5.106   3.831   5.340  0.5677 -0.6428 -0.0568
18103TIP3    H275725   5.124   3.704   5.261 -2.7503 -1.0436 -0.3075
18104TIP3   OH275726   4.473   6.569  14.887 -0.1640 -0.0492  0.1093
18104TIP3    H175727   4.387   6.553  14.848 -0.3584  0.1870  0.4393
18104TIP3    H275728   4.535   6.535  14.822 -0.5128 -0.5093  0.0049
18105TIP3   OH275729   3.714   2.162   1.259 -0.0463 -0.3296  0.1321
18105TIP3    H175730   3.662   2.095   1.303  0.6819 -2.1158 -1.5586
18105TIP3    H275731   3.681   2.245   1.293 -3.0909 -1.4093  0.0895
18106TIP3   OH275732   0.191   0.309   1.026 -0.6849 -0.1199 -0.0788
18106TIP3    H175733   0.119   0.285   1.085 -1.6615  2.6966 -0.0164
18106TIP3    H275734   0.201   0.232   0.969 -4.4431 -0.2997 -0.7662
18107TIP3   OH275735   1.215   5.513  15.332  0.4134 -0.4208 -0.4652
18107TIP3    H175736   1.198   5.593  15.284 -2.7551 -1.7138 -1.7902
18107TIP3    H275737   1.221   5.445  15.265  3.5971 -1.3238  0.5637
18108TIP3   OH275738   5.185   3.554  11.133  0.9172 -0.5113  0.0166
18108TIP3    H175739   5.169   3.464  11.163  2.2939 -0.3239  1.4446
18108TIP3    H275740   5.277   3.555  11.108  0.5178  0.1179 -1.5530
18109TIP3   OH275741   4.550   6.060   4.074 -0.0288 -0.0217  0.2539
18109TIP3    H175742   4.641   6.038   4.091 -0.9557 -3.3657  1.5936
18109TIP3    H275743   4.502   6.028   4.150 -2.6512 -1.0339 -1.6454
18110TIP3   OH275744   3.385   4.988  15.975  0.2658  0.2536  0.3256
18110TIP3    H175745   3.385   5.034  15.891  0.3614  0.3723  0.3897
18110TIP3    H275746   3.304   4.937  15.976  0.2486  0.2799  0.1767
18111TIP3   OH275747   5.169   4.690   1.961  0.5590  0.4315  0.0321
18111TIP3    H175748   5.186   4.663   2.051  1.8395 -1.6848 -0.7659
18111TIP3    H275749   5.238   4.649   1.910 -0.7379  0.6817 -2.0615
18112TIP3   OH275750   3.130   4.880  14.578  0.7526 -0.0055 -0.5881
18112TIP3    H175751   3.158   4.800  14.622 -1.1985 -1.4821 -1.8820
18112TIP3    H275752   3.166   4.950  14.632 -1.7188 -1.6384  3.6719
18113TIP3   OH275753   0.828   2.139  15.569 -0.0051  0.0597 -0.4976
18113TIP3    H175754   0.877   2.057  15.566  0.0539  0.0184  0.7333
18113TIP3    H275755   0.770   2.136  15.493 -0.6658 -1.5483  0.0221
18114TIP3   OH275756   1.056   6.768   2.277  0.8425  0.6597  0.2772
18114TIP3    H175757   1.056   6.723   2.361 -2.7939 -1.4323 -0.5767
18114TIP3    H275758   1.029   6.858   2.297 -1.7065 -0.2360  1.3631
18115TIP3   OH275759   2.696   5.962   1.504  0.2730  0.2610 -0.9128
18115TIP3    H175760   2.637   5.913   1.446  0.0417  0.7266 -1.0771
18115TIP3    H275761   2.766   5.992   1.446  1.5722 -1.6549 -0.4388
18116TIP3   OH275762   1.653   2.736  12.294 -0.1858  0.5236 -0.4626
18116TIP3    H175763   1.698   2.808  12.250 -0.1021 -0.1147 -1.4581
18116TIP3    H275764   1.722   2.672  12.313 -0.3456  0.4614 -0.0852
18117TIP3   OH275765   2.027   0.838   3.538  0.0904 -0.0807 -0.0741
18117TIP3    H175766   1.942   0.796   3.545 -0.3805  0.8273 -0.2043
18117TIP3    H275767   2.082   0.774   3.492 -0.9188 -0.1128 -1.2995
18118TIP3   OH275768   2.657   5.194  14.879 -0.3566  0.1302  0.3501
18118TIP3    H175769   2.743   5.222  14.910  0.2755 -1.2900 -0.0169
18118TIP3    H275770   2.660   5.207  14.784 -1.4015  2.1802  0.5424
18119TIP3   OH275771   0.672   5.308  17.065  0.1869  0.0924 -0.0165
18119TIP3    H175772   0.633   5.390  17.093 -0.5412 -0.0694 -0.5143
18119TIP3    H275773   0.662   5.308  16.970  1.4505  0.0615 -0.1617
18120TIP3   OH275774   2.065   6.680   4.729 -0.4591  0.5052 -0.5441
18120TIP3    H175775   2.100   6.716   4.810  1.2112 -0.9073 -0.5762
18120TIP3    H275776   1.984   6.636   4.754 -0.1288  0.3682  0.3002
18121TIP3   OH275777   6.386   2.241  11.837 -0.4996  0.0306  0.1675
18121TIP3    H175778   6.303   2.262  11.880 -0.2253  0.1615  0.6412
18121TIP3    H275779   6.387   2.145  11.834 -0.2480 -0.0018  1.0083
18122TIP3   OH275780   4.996   2.228  16.797 -0.5920 -0.4496  0.2412
18122TIP3    H175781   4.979   2.284  16.874 -0.1396 -0.2778  0.2176
18122TIP3    H275782   5.061   2.276  16.746 -0.4586 -0.8377  0.0407
18123TIP3   OH275783   1.904   0.146   4.775 -0.3539  1.1496 -0.1560
18123TIP3    H175784   1.868   0.092   4.845  1.2196 -0.6610 -0.6469
18123TIP3    H275785   1.846   0.129   4.700  0.1355  0.0432 -0.3143
18124TIP3   OH275786   0.582   5.681   5.619 -0.0500 -0.1302  0.0506
18124TIP3    H175787   0.488   5.691   5.635 -0.0150  1.3608 -0.5896
18124TIP3    H275788   0.617   5.647   5.701 -0.7529  1.8670  1.2427
18125TIP3   OH275789   0.389   6.541  14.648 -0.1709 -0.1063  0.4068
18125TIP3    H175790   0.416   6.572  14.734  0.6420 -1.2146  0.5788
18125TIP3    H275791   0.383   6.446  14.658 -0.4882 -0.2098 -0.6434
18126TIP3   OH275792   4.068   1.862   4.131  0.2475 -0.1206 -0.4266
18126TIP3    H175793   4.050   1.780   4.086  0.5726 -0.4784  0.0953
18126TIP3    H275794   4.161   1.858   4.154  0.9181  1.4337 -2.5388
18127TIP3   OH275795   0.568   1.948   6.377 -0.5562 -0.6960  0.4922
18127TIP3    H175796   0.546   2.009   6.307  0.9971  0.5918  1.0732
18127TIP3    H275797   0.483   1.925   6.416 -1.1531  1.9425  0.9402
18128TIP3   OH275798   6.549   1.368  16.685  0.2695 -0.6845 -0.2795
18128TIP3    H175799   6.613   1.366  16.614  1.2601 -0.1545  0.5870
18128TIP3    H275800   6.585   1.430  16.749 -1.4815  0.2623 -0.1379
18129TIP3   OH275801   0.707   3.701   5.011 -0.4334 -0.4590 -0.5658
18129TIP3    H175802   0.617   3.690   4.982 -0.4055 -2.5663 -0.0275
18129TIP3    H275803   0.759   3.703   4.930 -0.9121  0.4293 -0.8595
18130TIP3   OH275804   4.016   2.959   2.353  0.6194 -0.1321 -0.4219
18130TIP3    H175805   4.083   2.998   2.297 -1.3255  1.2146 -1.9517
18130TIP3    H275806   4.011   3.017   2.428  0.0324  0.7115 -1.1043
18131TIP3   OH275807   1.638   5.531   6.655  0.2856 -0.0505 -0.0996
18131TIP3    H175808   1.579   5.606   6.649  0.4778 -0.0241 -2.4634
18131TIP3    H275809   1.718   5.566   6.693  0.2307  0.8734 -0.8184
18132TIP3   OH275810   5.440   5.450   2.308  0.2323 -0.5191 -0.2826
18132TIP3    H175811   5.508   5.412   2.363  1.3250  1.2944 -0.3161
18132TIP3    H275812   5.486   5.480   2.230 -0.6000  0.6476 -0.3509
18133TIP3   OH275813   2.933   4.406   6.083  0.1921 -0.5558  0.0126
18133TIP3    H175814   2.854   4.419   6.032  0.2369  0.7473  0.2382
18133TIP3    H275815   2.968   4.322   6.053  0.1354  0.0824 -1.9944
18134TIP3   OH275816   6.298   1.185   3.741 -0.0919  0.2161 -0.3130
18134TIP3    H175817   6.259   1.272   3.730  0.1605  0.4970  0.8922
18134TIP3    H275818   6.388   1.195   3.710 -0.3400  0.1217 -1.0857
18135TIP3   OH275819   3.103   5.566   5.748 -0.6468  0.2291 -0.2201
18135TIP3    H175820   3.042   5.631   5.712 -1.4880 -1.2559 -1.5941
18135TIP3    H275821   3.146   5.529   5.671  0.0677 -0.6077  0.5706
18136TIP3   OH275822   0.337   3.898  15.985 -0.4481  0.4310 -0.3359
18136TIP3    H175823   0.350   3.929  16.074  1.3276 -2.3180  0.4887
18136TIP3    H275824   0.268   3.832  15.992  0.2869 -0.4142 -0.7907
18137TIP3   OH275825   2.248   0.840  15.850  0.0191  0.4605  0.3079
18137TIP3    H175826   2.212   0.920  15.812 -0.6438  0.7715  1.5331
18137TIP3    H275827   2.251   0.857  15.944  1.1180 -0.4738  0.4741
18138TIP3   OH275828   3.289   0.198   6.266  0.3545 -0.3910  0.7306
18138TIP3    H175829   3.253   0.188   6.178  1.6992 -1.0207  0.2334
18138TIP3    H275830   3.285   0.292   6.283  2.0517  0.0247 -0.8966
18139TIP3   OH275831   0.634   5.411  13.154  0.1727 -0.7234 -0.0550
18139TIP3    H175832   0.728   5.391  13.155  0.3636 -0.6709 -3.5677
18139TIP3    H275833   0.628   5.497  13.113 -1.4033  0.1223  1.7596
18140TIP3   OH275834   1.480   1.271   3.570 -0.3693 -0.3108  0.0558
18140TIP3    H175835   1.464   1.253   3.663  0.5920  0.0582  0.3051
18140TIP3    H275836   1.428   1.349   3.552 -0.4924 -0.3327  0.3083
18141TIP3   OH275837   6.385   1.442  14.617 -0.3096  0.3400 -0.7415
18141TIP3    H175838   6.341   1.357  14.614  0.0306  0.1825 -1.8202
18141TIP3    H275839   6.324   1.499  14.663 -0.8132 -0.3321 -0.5546
18142TIP3   OH275840   3.967   4.307   5.087 -0.0007  0.0773  0.2957
18142TIP3    H175841   3.993   4.392   5.120  1.0823 -0.6837  1.4740
18142TIP3    H275842   4.014   4.244   5.141 -0.2869 -1.2701 -0.9483
18143TIP3   OH275843   5.926   1.485   5.137  0.5272 -0.5142 -0.6531
18143TIP3    H175844   5.939   1.390   5.135 -0.8860 -0.7323 -0.8258
18143TIP3    H275845   5.844   1.496   5.185  0.8094  0.6445 -0.4109
18144TIP3   OH275846   3.861   5.447  12.558 -0.1843 -0.2949 -0.5016
18144TIP3    H175847   3.849   5.517  12.494  0.3286 -0.2074 -0.5045
18144TIP3    H275848   3.916   5.383  12.513 -1.8436 -1.4099 -1.0407
18145TIP3   OH275849   1.621   0.906   2.486 -0.3223 -0.0681  0.2801
18145TIP3    H175850   1.604   0.894   2.579 -0.7706  0.0472  0.2170
18145TIP3    H275851   1.573   0.834   2.443  1.0157 -0.9548  0.2246
18146TIP3   OH275852   3.398   5.051  14.987  0.1378  0.2624  0.4240
18146TIP3    H175853   3.437   5.037  15.074  1.7626  1.1060 -0.1121
18146TIP3    H275854   3.397   4.964  14.947  0.8408  0.1083  0.7227
18147TIP3   OH275855   5.657   0.542  15.663 -0.2728 -0.7323  0.5353
18147TIP3    H175856   5.667   0.489  15.583  0.3944 -1.1368  0.8794
18147TIP3    H275857   5.718   0.503  15.725  0.1212  0.3613  0.8479
18148TIP3   OH275858   0.633   6.124  14.146 -0.0839  0.1847 -0.2777
18148TIP3    H175859   0.680   6.152  14.068  2.8435  1.8004  1.8720
18148TIP3    H275860   0.665   6.181  14.216 -3.1360 -0.6286  2.0193
18149TIP3   OH275861   2.345   1.333  12.857  0.2772  0.1601  0.2442
18149TIP3    H175862   2.317   1.351  12.947 -1.3270  0.6628 -0.3261
18149TIP3    H275863   2.332   1.416  12.811 -0.9727 -0.6498 -0.9264
18150TIP3   OH275864   0.865   0.491  15.304  0.0563 -0.6871 -0.1179
18150TIP3    H175865   0.869   0.581  15.338 -3.5201 -0.9422  1.3809
18150TIP3    H275866   0.777   0.483  15.268 -0.0046 -3.8055  0.4836
18151TIP3   OH275867   6.417   5.435   2.555  0.7282  0.1050 -0.3651
18151TIP3    H175868   6.347   5.471   2.610 -0.6526 -1.9834 -0.6435
18151TIP3    H275869   6.476   5.392   2.616  0.2962 -0.4536 -0.3334
18152TIP3   OH275870   6.189   1.275  17.139  0.0695 -0.1651 -0.1693
18152TIP3    H175871   6.184   1.349  17.199 -1.4143 -1.1402  0.9600
18152TIP3    H275872   6.277   1.240  17.152 -0.1036 -0.1301  1.1660
18153TIP3   OH275873   5.419   1.495  13.696 -0.2611  0.0339  0.1009
18153TIP3    H175874   5.427   1.503  13.601  1.4359 -1.3536  0.0821
18153TIP3    H275875   5.459   1.411  13.717 -0.2263  0.4908  2.1033
18154TIP3   OH275876   3.171   0.602   1.708  0.0154 -0.2399 -0.1048
18154TIP3    H175877   3.105   0.670   1.720 -0.5883 -0.3195 -2.4333
18154TIP3    H275878   3.141   0.529   1.762  0.9113  1.3653  2.8180
18155TIP3   OH275879   3.636   0.332   0.308  0.5967  0.0501  0.3538
18155TIP3    H175880   3.627   0.246   0.348  2.7534  0.0249  0.9042
18155TIP3    H275881   3.682   0.384   0.374  0.9426  1.0879 -0.6792
18156TIP3   OH275882   4.611   2.474   4.230  0.1294  0.4891 -0.5055
18156TIP3    H175883   4.571   2.505   4.148 -0.3501  1.5539  0.1171
18156TIP3    H275884   4.540   2.429   4.276  0.3531  0.0484 -0.5837
18157TIP3   OH275885   6.368   3.133   1.014  0.4044 -0.3985  0.2000
18157TIP3    H175886   6.374   3.219   1.056  1.8255  0.5514 -1.7826
18157TIP3    H275887   6.444   3.086   1.048  0.5077 -0.2950  0.1161
18158TIP3   OH275888   1.487   4.605  11.994 -0.3378  0.3457 -0.3027
18158TIP3    H175889   1.429   4.574  11.925 -1.8532  0.3432  0.9190
18158TIP3    H275890   1.560   4.646  11.947  0.1213 -2.1224 -1.9170
18159TIP3   OH275891   5.081   4.652   1.337 -0.0236 -0.1472 -0.5170
18159TIP3    H175892   5.176   4.666   1.328 -0.0199  0.1276 -0.1004
18159TIP3    H275893   5.049   4.646   1.247 -0.1001  3.1966 -0.8234
18160TIP3   OH275894   5.607   5.129   2.285 -0.7047 -0.5428 -0.3167
18160TIP3    H175895   5.630   5.096   2.198 -0.8267 -1.4858 -0.0048
18160TIP3    H275896   5.569   5.215   2.269 -1.1321 -0.8914 -1.2376
18161TIP3   OH275897   4.375   3.859  10.994 -0.5610 -0.5171 -0.6712
18161TIP3    H175898   4.386   3.799  11.068  2.1262  1.2426  0.5226
18161TIP3    H275899   4.455   3.847  10.942  0.8723  2.9251  0.4404
18162TIP3   OH275900   2.084   6.306   6.353  0.0533  0.3436 -0.1026
18162TIP3    H175901   2.019   6.358   6.400  0.1002  0.6817 -0.4071
18162TIP3    H275902   2.168   6.344   6.379  0.0169  1.7299 -1.8421
18163TIP3   OH275903   1.367   2.928   0.022 -0.0425 -0.2185  0.3455
18163TIP3    H175904   1.359   3.014  -0.020 -1.3216 -0.2881  0.3969
18163TIP3    H275905   1.410   2.873  -0.043 -1.6990 -0.2414 -0.8017
18164TIP3   OH275906   6.310   2.280   4.992  0.0176 -0.4978  0.1216
18164TIP3    H175907   6.216   2.274   4.977 -0.3869  1.6371  1.3829
18164TIP3    H275908   6.330   2.205   5.048 -1.1101 -0.4809  0.5695
18165TIP3   OH275909   0.241   1.008   2.843  0.0311  0.0112 -0.3546
18165TIP3    H175910   0.314   1.038   2.789 -0.5784 -0.7448 -1.6486
18165TIP3    H275911   0.166   1.007   2.783 -0.9482  0.3315  0.8286
18166TIP3   OH275912   5.501   6.427   1.089  0.6673 -0.0591 -0.1538
18166TIP3    H175913   5.509   6.481   1.011  0.8594  0.6014  0.3152
18166TIP3    H275914   5.565   6.357   1.077  2.1988  1.2030  0.3423
18167TIP3   OH275915   2.909   0.105   1.282 -0.3644  0.0564 -0.2286
18167TIP3    H175916   2.906   0.138   1.193 -0.7653  0.7120  0.0158
18167TIP3    H275917   2.860   0.170   1.333 -1.7706 -1.2570  0.1650
18168TIP3   OH275918   5.873   1.234  16.409 -0.0769 -0.2038 -0.2542
18168TIP3    H175919   5.779   1.255  16.416 -0.5350 -2.1080 -0.0826
18168TIP3    H275920   5.880   1.144  16.441  1.4845 -0.8340 -2.1444
18169TIP3   OH275921   3.791   2.256   0.642  0.3329  0.2440 -0.1191
18169TIP3    H175922   3.827   2.345   0.649  0.6230  0.1112  0.1246
18169TIP3    H275923   3.698   2.266   0.663  0.3409  0.5087 -0.2069
18170TIP3   OH275924   0.527   4.760   4.718 -0.0106 -0.3893 -0.2383
18170TIP3    H175925   0.547   4.789   4.629 -0.3277 -1.1129 -0.5586
18170TIP3    H275926   0.453   4.700   4.707 -0.1390 -0.3724  0.5294
18171TIP3   OH275927   4.498   1.347   5.405 -0.4712 -0.0363 -0.1086
18171TIP3    H175928   4.543   1.421   5.445 -1.4561 -0.9634  3.0210
18171TIP3    H275929   4.566   1.283   5.388 -0.0513  0.2258  0.5559
18172TIP3   OH275930   5.574   4.170  15.051 -0.2380  0.3554  0.2074
18172TIP3    H175931   5.577   4.258  15.087  0.2846  0.6443 -0.5176
18172TIP3    H275932   5.638   4.171  14.980 -1.5978 -0.0473 -1.0664
18173TIP3   OH275933   2.410   4.435   6.016  0.3376 -0.0873  0.4888
18173TIP3    H175934   2.454   4.478   6.090 -1.4444 -0.7848  2.0330
18173TIP3    H275935   2.336   4.389   6.056 -0.5393 -0.7067 -1.7248
18174TIP3   OH275936   2.219   1.289  12.299  0.7060  0.5120  0.3243
18174TIP3    H175937   2.213   1.382  12.278  1.7366  0.8380  1.3615
18174TIP3    H275938   2.213   1.286  12.395 -1.1929 -0.6735  0.2325
18175TIP3   OH275939   5.123   2.549  15.518 -0.5767 -0.1843 -0.2664
18175TIP3    H175940   5.115   2.471  15.573 -1.5975 -0.0690 -0.2403
18175TIP3    H275941   5.045   2.601  15.537  0.8727  1.6677  0.9608
18176TIP3   OH275942   2.064   6.021   2.066 -0.0515  0.1326  0.1640
18176TIP3    H175943   2.154   6.002   2.040 -0.3548  1.1120 -1.7317
18176TIP3    H275944   2.047   6.110   2.036 -1.6846 -0.0542  0.3907
18177TIP3   OH275945   4.648   5.695  11.373  0.3200  0.0117  0.7056
18177TIP3    H175946   4.599   5.619  11.405 -0.1360 -0.1184 -0.2575
18177TIP3    H275947   4.705   5.719  11.446 -1.8936  0.8225  2.2871
18178TIP3   OH275948   3.160   2.893  13.698  0.1780 -0.1694  0.6054
18178TIP3    H175949   3.107   2.949  13.641  1.0508  0.5122  0.4387
18178TIP3    H275950   3.096   2.854  13.758 -0.3029  2.7176  2.1750
18179TIP3   OH275951   2.471   5.016   2.058  0.2540 -0.5593 -0.3493
18179TIP3    H175952   2.425   5.018   1.974 -0.5371 -0.3432  0.0752
18179TIP3    H275953   2.536   4.946   2.048 -0.3340 -1.0523 -0.8861
18180TIP3   OH275954   4.661   0.923   0.854  0.1241  0.4920  0.2208
18180TIP3    H175955   4.636   0.931   0.946  0.6633 -0.9508  0.5188
18180TIP3    H275956   4.742   0.974   0.847  0.6801 -0.2865  0.8174
18181TIP3   OH275957   2.205   6.036  13.627  0.3620  0.4143  0.3492
18181TIP3    H175958   2.140   5.975  13.663 -0.8982  0.6388 -1.4617
18181TIP3    H275959   2.288   5.988  13.632 -0.3300 -0.8010  0.4772
18182TIP3   OH275960   0.503   0.035   1.874 -0.4163  0.0946  0.2623
18182TIP3    H175961   0.493  -0.048   1.919 -0.0793 -0.4529 -0.6298
18182TIP3    H275962   0.483   0.015   1.782 -1.4586  1.2477  0.2166
18183TIP3   OH275963   5.735   1.824   1.608 -0.2240  0.7171 -0.2965
18183TIP3    H175964   5.640   1.826   1.615 -0.4758 -0.4224 -2.5274
18183TIP3    H275965   5.766   1.811   1.698 -2.1957  0.2651  0.3625
18184TIP3   OH275966   0.775   5.638  14.772 -1.2423  0.2961  0.3681
18184TIP3    H175967   0.856   5.688  14.768  0.2739 -1.9408  1.5656
18184TIP3    H275968   0.760   5.609  14.682 -1.1038  1.2548  0.0246
18185TIP3   OH275969   2.019   1.304  16.551  0.0902  0.3862 -0.6091
18185TIP3    H175970   2.032   1.210  16.564 -0.1466  0.4019 -0.2348
18185TIP3    H275971   1.990   1.335  16.637  0.0095  0.7734 -0.7781
18186TIP3   OH275972   3.178   4.050  13.434  0.2826  0.0542 -0.0404
18186TIP3    H175973   3.211   4.079  13.348 -2.7380  0.9285 -1.0156
18186TIP3    H275974   3.257   4.024  13.481  2.1241 -0.2289 -2.9727
18187TIP3   OH275975   1.099   5.149  14.562  0.2105  0.0177  0.1403
18187TIP3    H175976   1.037   5.162  14.490 -0.1792  0.3420  0.5244
18187TIP3    H275977   1.053   5.184  14.639  1.5642  1.9722  0.1202
18188TIP3   OH275978   2.430   5.421   4.217 -0.1187  0.3457 -0.5208
18188TIP3    H175979   2.350   5.440   4.267  0.6494 -1.4321  1.5541
18188TIP3    H275980   2.422   5.328   4.194  1.0417  0.3199 -0.8577
18189TIP3   OH275981   4.728   0.052   0.706  0.6220 -1.0452 -0.3653
18189TIP3    H175982   4.744   0.145   0.692 -0.0610 -0.8349  0.1609
18189TIP3    H275983   4.761   0.035   0.795 -0.7523 -0.9021  0.2067
18190TIP3   OH275984   3.204   3.874   5.784 -0.3235  0.0144 -0.6093
18190TIP3    H175985   3.246   3.789   5.798  1.7747  0.8304 -1.5620
18190TIP3    H275986   3.204   3.915   5.870 -0.8526 -0.7056 -0.2505
18191TIP3   OH275987   2.680   0.196   6.545 -0.3548 -0.6260 -0.0989
18191TIP3    H175988   2.646   0.223   6.459 -1.7864  2.0581  1.2004
18191TIP3    H275989   2.604   0.161   6.591  0.4641 -2.3246  0.0707
18192TIP3   OH275990   2.324   5.972   3.938  0.3652  0.3036  0.4556
18192TIP3    H175991   2.286   5.911   4.001 -1.4983  1.4819  0.5711
18192TIP3    H275992   2.398   6.012   3.985  0.7094 -0.7927  0.8759
18193TIP3   OH275993   0.462   1.997  13.795 -0.1373 -0.2147 -0.2306
18193TIP3    H175994   0.524   1.975  13.726  0.8573 -0.0176  0.5773
18193TIP3    H275995   0.390   1.935  13.784  1.2969 -2.0500  0.2620
18194TIP3   OH275996   1.170   3.937  16.085 -0.4184  0.2426  0.2461
18194TIP3    H175997   1.179   3.855  16.133  0.0874 -0.1863 -0.5531
18194TIP3    H275998   1.233   3.996  16.127 -0.1699 -0.0421  0.2763
18195TIP3   OH275999   0.621   3.102  11.152  0.2741  0.0397 -0.3979
18195TIP3    H176000   0.661   3.124  11.068  0.7290  1.8667  0.2490
18195TIP3    H276001   0.694   3.079  11.208  0.4858  2.8703  0.6331
18196TIP3   OH276002   0.627   2.180  16.994 -0.1689 -0.2914  0.0756
18196TIP3    H176003   0.668   2.094  16.993  0.6176  0.0708  0.2120
18196TIP3    H276004   0.675   2.229  17.061  0.1650  0.6284 -0.8104
18197TIP3   OH276005   6.613   3.730  14.397 -0.3662 -0.3201  0.1773
18197TIP3    H176006   6.519   3.748  14.398 -0.4029 -0.5086  0.0199
18197TIP3    H276007   6.629   3.686  14.314 -0.1935 -0.5858  0.3510
18198TIP3   OH276008   0.779   1.430  15.864 -0.2876  0.6405 -0.2400
18198TIP3    H176009   0.760   1.370  15.792  1.5551 -0.9565  0.5161
18198TIP3    H276010   0.748   1.515  15.833 -1.9139 -0.4483 -1.8355
18199TIP3   OH276011   0.740   4.705  15.403  0.2175 -0.4205 -0.5817
18199TIP3    H176012   0.688   4.773  15.446 -0.9198 -0.4039 -1.9266
18199TIP3    H276013   0.676   4.643  15.370  0.9446 -0.0513 -2.8916
18200TIP3   OH276014   3.390   4.134  11.979  0.6435  0.2036 -0.4325
18200TIP3    H176015   3.352   4.102  12.061  0.7944  0.7472 -0.1447
18200TIP3    H276016   3.483   4.143  11.997  0.6909  0.2399 -0.6922
18201TIP3   OH276017   6.297   2.203  14.312  0.3362  0.0402  0.0987
18201TIP3    H176018   6.248   2.122  14.301  0.4371  0.1489 -1.3494
18201TIP3    H276019   6.380   2.187  14.266  0.6448  0.7173  0.4011
18202TIP3   OH276020   1.288   0.884  15.402 -0.1167  0.3216 -0.0988
18202TIP3    H176021   1.318   0.974  15.408 -0.3470  0.4182 -0.3721
18202TIP3    H276022   1.242   0.868  15.484 -0.8160  0.7293 -0.4022
18203TIP3   OH276023   6.405   1.552   0.819 -0.2494 -0.2355  0.3326
18203TIP3    H176024   6.408   1.620   0.886 -0.7409  1.8940 -1.7069
18203TIP3    H276025   6.495   1.517   0.816  0.7400  2.1845 -0.3513
18204TIP3   OH276026   6.260   4.391   1.868  0.4213  0.3166 -0.1127
18204TIP3    H176027   6.293   4.307   1.900 -1.1809 -0.5466 -0.5679
18204TIP3    H276028   6.333   4.429   1.820  1.3358 -0.5870  0.5115
18205TIP3   OH276029   3.040   1.601  16.637  0.1263  0.2491 -0.9008
18205TIP3    H176030   3.051   1.651  16.718  0.2437  0.7374 -1.2186
18205TIP3    H276031   3.020   1.512  16.667 -1.0938  0.6983 -0.3445
18206TIP3   OH276032   4.861   1.515   4.178 -0.3731  0.0746 -0.1865
18206TIP3    H176033   4.914   1.474   4.109  3.0952  2.4981  0.7578
18206TIP3    H276034   4.855   1.607   4.151 -1.1526  0.5591  1.5222
18207TIP3   OH276035   0.913   3.448   0.848 -0.3434  0.4223 -0.5658
18207TIP3    H176036   0.863   3.409   0.920 -0.3551  0.6918 -0.4283
18207TIP3    H276037   0.876   3.536   0.838  0.8249  1.0173  0.2484
18208TIP3   OH276038   3.997   0.180   5.508  0.0576 -0.4185  0.2441
18208TIP3    H176039   4.068   0.237   5.538  0.0742 -1.6099  2.7258
18208TIP3    H276040   3.922   0.238   5.497  1.2169  0.7837 -1.9921
18209TIP3   OH276041   0.234   3.766  14.515 -0.7504 -0.3469 -0.0533
18209TIP3    H176042   0.286   3.811  14.449  2.3958 -2.1411  1.0058
18209TIP3    H276043   0.183   3.702  14.465  0.2024 -0.4659 -0.9068
18210TIP3   OH276044   0.232   1.569  11.823 -0.4094  0.5984 -0.2911
18210TIP3    H176045   0.175   1.503  11.863 -0.5481 -0.1379 -1.6406
18210TIP3    H276046   0.171   1.632  11.784 -0.3107  0.3237 -0.9070
18211TIP3   OH276047   1.500   0.263  14.239  0.0895  0.1365  0.0611
18211TIP3    H176048   1.514   0.193  14.303 -0.3119  0.1110  0.1248
18211TIP3    H276049   1.507   0.344  14.290  0.1571  0.1297  0.0630
18212TIP3   OH276050   4.722   6.147   1.278  0.3665 -0.1322  0.6515
18212TIP3    H176051   4.777   6.177   1.206  0.6372 -2.6771 -0.3005
18212TIP3    H276052   4.743   6.207   1.350  1.2682  1.5034 -0.8994
18213TIP3   OH276053   4.272   4.704   0.384  0.3821 -0.8336  0.5302
18213TIP3    H176054   4.331   4.700   0.308  1.2191 -2.2274  1.2127
18213TIP3    H276055   4.320   4.754   0.449 -0.1025 -0.1242  0.3492
18214TIP3   OH276056   1.342   3.994  16.858  0.4159 -0.1503 -0.0238
18214TIP3    H176057   1.391   4.075  16.870  0.1166 -0.0328  0.3948
18214TIP3    H276058   1.324   3.991  16.764  0.2194  0.3853 -0.0021
18215TIP3   OH276059   0.033   0.872  10.551 -0.3558  0.0507 -0.4752
18215TIP3    H176060  -0.040   0.891  10.492 -0.0043 -1.3086 -1.3955
18215TIP3    H276061   0.006   0.794  10.599 -0.9130  1.4958  1.7045
18216TIP3   OH276062   2.501   2.844   2.331  0.3192 -0.4729  0.3194
18216TIP3    H176063   2.577   2.897   2.307 -1.1547  1.2757 -0.7603
18216TIP3    H276064   2.497   2.850   2.427 -0.0650  1.8254  0.2108
18217TIP3   OH276065   5.365   1.079   4.526  0.3317 -0.6758  0.1086
18217TIP3    H176066   5.344   1.059   4.435 -1.1314  1.3516 -0.0683
18217TIP3    H276067   5.461   1.089   4.526  0.2325  1.0394 -1.6728
18218TIP3   OH276068   4.527   1.114   3.476 -0.1025 -0.0565  0.3697
18218TIP3    H176069   4.543   1.051   3.546 -0.5672 -0.8911 -0.2488
18218TIP3    H276070   4.432   1.126   3.477 -0.0635  0.2821  0.1780
18219TIP3   OH276071   3.154   2.364  11.784 -0.5697  0.2731 -0.6903
18219TIP3    H176072   3.151   2.305  11.709 -1.9647 -0.2044 -0.3045
18219TIP3    H276073   3.087   2.330  11.843  0.2452  0.8559  0.6097
18220TIP3   OH276074   1.595   3.931   1.051 -0.3349  0.3360 -0.5205
18220TIP3    H176075   1.600   3.999   0.983  0.1238  1.1140  0.2680
18220TIP3    H276076   1.511   3.946   1.094 -0.8165 -0.4243 -1.1746
18221TIP3   OH276077   1.461   6.642   5.496 -0.2393 -0.2424  0.2124
18221TIP3    H176078   1.451   6.555   5.533 -2.4514  0.2655  0.9279
18221TIP3    H276079   1.391   6.650   5.432  2.3451 -0.4017 -2.8931
18222TIP3   OH276080   5.242   2.907  14.489  0.1257 -0.2499  0.4385
18222TIP3    H176081   5.295   2.885  14.565 -0.2924 -1.7617  0.3239
18222TIP3    H276082   5.158   2.936  14.526 -0.2396 -1.4316  0.5632
18223TIP3   OH276083   0.086   2.772  12.402  0.6394  0.3285  0.5814
18223TIP3    H176084   0.060   2.743  12.489 -1.2196 -0.0648 -0.0487
18223TIP3    H276085   0.176   2.741  12.392  0.7404  0.0148  2.1869
18224TIP3   OH276086   0.484   4.590  16.249 -0.0353  0.3451 -0.8891
18224TIP3    H176087   0.497   4.616  16.158 -1.6733  1.6051 -0.8085
18224TIP3    H276088   0.420   4.519  16.245  0.5696 -0.2175 -0.7610
18225TIP3   OH276089   4.357   6.453   0.637  1.1428 -0.1710  0.2624
18225TIP3    H176090   4.395   6.537   0.664  1.8144 -0.1006 -0.8595
18225TIP3    H276091   4.408   6.426   0.561  2.3011 -2.6398  1.7856
18226TIP3   OH276092   3.979   2.761   2.546  0.3046 -0.1069  0.0556
18226TIP3    H176093   3.979   2.841   2.599 -0.1353 -0.2858  0.3274
18226TIP3    H276094   3.983   2.793   2.455  2.5240  0.1813  0.1872
18227TIP3   OH276095   6.204   3.452  13.970  0.6297 -0.0983  0.4512
18227TIP3    H176096   6.268   3.481  14.034  0.0625  0.9629  0.5687
18227TIP3    H276097   6.137   3.407  14.021  0.1454  0.8024  0.6393
18228TIP3   OH276098   1.703   6.468  11.940 -0.0360 -0.4551  0.4038
18228TIP3    H176099   1.644   6.516  11.998  0.2906 -0.7851  1.0157
18228TIP3    H276100   1.645   6.431  11.873 -0.3349  0.4842  0.1252
18229TIP3   OH276101   4.899   2.430   4.675  0.7232  0.1279 -0.0700
18229TIP3    H176102   4.858   2.514   4.695  0.3275  0.4905 -2.2333
18229TIP3    H276103   4.829   2.378   4.636  1.3581 -0.6644 -0.1833
18230TIP3   OH276104   0.439   0.292  14.208  0.0267  0.5459 -0.2043
18230TIP3    H176105   0.348   0.280  14.181 -0.6184  3.1597  0.4320
18230TIP3    H276106   0.456   0.385  14.192  1.9789  0.5472  1.4245
18231TIP3   OH276107   4.802   6.585  15.376 -0.0556 -0.2679 -0.1526
18231TIP3    H176108   4.890   6.555  15.400  0.1179 -0.5475 -1.0970
18231TIP3    H276109   4.791   6.666  15.425  0.9854  0.0969 -0.4881
18232TIP3   OH276110   5.226   5.574   0.252 -0.5249  0.6911 -0.0070
18232TIP3    H176111   5.234   5.662   0.290 -0.3487  0.3770  0.7024
18232TIP3    H276112   5.235   5.515   0.327  1.2164 -0.0078 -0.7369
18233TIP3   OH276113   4.913   3.175  11.320  0.2809  0.6038 -0.0341
18233TIP3    H176114   4.943   3.232  11.391 -2.4762  0.8708  1.0088
18233TIP3    H276115   4.858   3.231  11.266  0.1086 -0.2937 -0.8088
18234TIP3   OH276116   6.351   3.150  13.897 -0.2050  0.1325 -0.1409
18234TIP3    H176117   6.350   3.234  13.851 -0.6301 -0.6433 -1.6178
18234TIP3    H276118   6.297   3.093  13.843 -2.1795 -0.4150  2.2064
18235TIP3   OH276119   3.822   4.264   1.336 -0.3336 -0.6314 -0.0641
18235TIP3    H176120   3.797   4.193   1.395 -0.1539  0.2060  1.0508
18235TIP3    H276121   3.917   4.271   1.346 -0.2626 -0.6357 -0.6584
18236TIP3   OH276122   4.170   1.489   0.744  0.2800 -0.0847  0.6367
18236TIP3    H176123   4.192   1.424   0.678 -0.8853 -0.1090  0.2484
18236TIP3    H276124   4.085   1.461   0.778  0.2493  0.6612  1.2004
18237TIP3   OH276125   0.022   0.210  14.397  0.1643  0.1920 -0.4129
18237TIP3    H176126  -0.072   0.193  14.404  0.0289  0.1670 -2.0161
18237TIP3    H276127   0.053   0.150  14.329  1.8707 -1.6791  1.8246
18238TIP3   OH276128   0.510   3.801   1.864 -0.4220  0.1471  0.3797
18238TIP3    H176129   0.587   3.838   1.907 -0.9433  1.0440  0.5704
18238TIP3    H276130   0.440   3.808   1.930 -0.7722 -0.2554  0.0590
18239TIP3   OH276131   3.056   3.022   2.390  0.5199 -0.6298 -0.4101
18239TIP3    H176132   3.149   3.025   2.369  0.4558 -1.2600 -0.8361
18239TIP3    H276133   3.051   3.044   2.483  1.0314  0.0028 -0.5298
18240TIP3   OH276134   5.753   1.592   5.711 -0.4962 -0.5747  0.0523
18240TIP3    H176135   5.709   1.649   5.774  0.1856  0.0203 -0.0054
18240TIP3    H276136   5.828   1.643   5.681 -0.8932 -0.7804 -1.3560
18241TIP3   OH276137   1.725   0.134   4.568 -0.2416 -0.0056 -0.2295
18241TIP3    H176138   1.719   0.187   4.489  0.2443 -1.1780 -1.0841
18241TIP3    H276139   1.637   0.099   4.580 -0.9722  2.1335  1.2130
18242TIP3   OH276140   4.498   0.172  12.613  0.2428  0.4822  0.4731
18242TIP3    H176141   4.474   0.100  12.672 -1.4748  0.5040 -0.1487
18242TIP3    H276142   4.459   0.250  12.652 -1.5674  0.3842 -1.0021
18243TIP3   OH276143   4.761   0.425   3.597 -0.4303 -0.6892 -0.3803
18243TIP3    H176144   4.708   0.458   3.670 -0.7824 -1.4012 -0.3047
18243TIP3    H276145   4.697   0.407   3.528  0.1383  2.7911 -2.0288
18244TIP3   OH276146   5.760   1.672   2.991 -0.0112  0.3727  0.1802
18244TIP3    H176147   5.749   1.755   2.945  1.7154  0.5378  0.0019
18244TIP3    H276148   5.780   1.696   3.081  2.5094  0.2928 -0.2774
18245TIP3   OH276149   0.483   0.320  11.160  0.1166 -0.5772  0.4980
18245TIP3    H176150   0.493   0.369  11.241  3.2695  0.0527 -0.1572
18245TIP3    H276151   0.564   0.335  11.112 -1.9593 -0.0999 -3.2541
18246TIP3   OH276152   2.009   4.066   2.723 -0.0606  0.3950  0.4609
18246TIP3    H176153   2.044   4.100   2.641 -0.1481  0.2478  0.3626
18246TIP3    H276154   2.050   3.981   2.734 -0.8432 -0.0415  0.0386
18247TIP3   OH276155   2.799   4.647  13.291  0.5491  0.0845  0.6782
18247TIP3    H176156   2.892   4.659  13.309  0.9076 -0.9040 -0.3670
18247TIP3    H276157   2.779   4.714  13.225  1.0635 -1.0253 -0.6564
18248TIP3   OH276158   3.974   2.570   4.706  0.0092 -0.6273  0.7630
18248TIP3    H176159   3.933   2.648   4.744 -0.2489 -0.1584 -0.4096
18248TIP3    H276160   4.065   2.597   4.692 -0.3875 -0.0020 -0.9192
18249TIP3   OH276161   5.570   1.464   0.234  0.1061 -0.2424 -0.1021
18249TIP3    H176162   5.623   1.540   0.209 -0.4541  1.0516  2.3377
18249TIP3    H276163   5.631   1.408   0.282  0.5307 -1.4428 -1.9378
18250TIP3   OH276164   1.891   3.589   6.182  0.2071 -0.1835  0.2620
18250TIP3    H176165   1.954   3.517   6.176 -0.3290 -1.1899  4.2680
18250TIP3    H276166   1.806   3.546   6.191 -0.5570  1.0835 -0.5294
18251TIP3   OH276167   3.680   1.389  13.001  0.2377  0.4788 -0.3486
18251TIP3    H176168   3.647   1.389  13.091  1.5227 -0.1847  0.1535
18251TIP3    H276169   3.659   1.302  12.967  3.4814 -0.9222  0.8265
18252TIP3   OH276170   5.750   5.226   0.236  0.0860  0.1410 -0.0197
18252TIP3    H176171   5.818   5.293   0.237 -0.3986  0.6726 -1.1836
18252TIP3    H276172   5.668   5.275   0.241 -0.2354 -0.4949  1.4393
18253TIP3   OH276173   0.814   0.345   2.991  0.0492 -0.1661  0.4254
18253TIP3    H176174   0.776   0.302   2.914  0.5692  0.0971  0.0192
18253TIP3    H276175   0.799   0.438   2.976 -2.4171 -0.2108  1.9986
18254TIP3   OH276176   3.173   5.823   2.426  0.0032 -0.0670 -0.5447
18254TIP3    H176177   3.098   5.837   2.485 -0.3276 -1.6530 -0.5608
18254TIP3    H276178   3.249   5.851   2.478 -0.5025  0.8591 -0.2655
18255TIP3   OH276179   3.480   0.788   2.406  0.3347 -0.1550  0.0170
18255TIP3    H176180   3.483   0.775   2.312 -0.0225 -0.6864  0.0775
18255TIP3    H276181   3.476   0.883   2.417  1.1849 -0.0483 -0.4762
18256TIP3   OH276182   0.419   5.924  12.776 -0.1108 -0.4750  0.5266
18256TIP3    H176183   0.445   6.015  12.763  0.6414 -0.5020  1.7779
18256TIP3    H276184   0.420   5.886  12.687  2.8081 -0.1207  0.3042
18257TIP3   OH276185   1.431   2.314  15.046  0.1562  0.2753  0.1237
18257TIP3    H176186   1.394   2.402  15.041 -0.6432 -0.0984 -1.2583
18257TIP3    H276187   1.355   2.256  15.051  0.6514 -0.3629  0.4399
18258TIP3   OH276188   4.908   6.414   3.130 -0.0870 -0.1895 -0.1574
18258TIP3    H176189   4.977   6.350   3.150  0.0305  0.4304  1.6123
18258TIP3    H276190   4.827   6.366   3.146 -0.0095 -0.1483  0.3980
18259TIP3   OH276191   0.085   6.793  10.647 -0.1541 -0.6195  0.0695
18259TIP3    H176192   0.047   6.880  10.638  2.1807  1.0464  3.7128
18259TIP3    H276193   0.099   6.763  10.558 -0.4805  3.0263 -1.3670
18260TIP3   OH276194   5.645   1.314   5.324 -0.1814  0.1505  0.1299
18260TIP3    H176195   5.592   1.368   5.265 -1.1331 -0.0763  0.7430
18260TIP3    H276196   5.733   1.318   5.288 -0.4801  1.0961 -0.5437
18261TIP3   OH276197   4.787   6.586   1.659  0.3839 -0.2025  0.1649
18261TIP3    H176198   4.707   6.549   1.696  0.7244 -2.0100 -0.7935
18261TIP3    H276199   4.765   6.604   1.567  1.1435 -1.0011 -0.1864
18262TIP3   OH276200   5.904   6.575  17.065 -0.1871  0.1414 -0.5233
18262TIP3    H176201   5.995   6.603  17.073  0.4412 -1.9833  0.4737
18262TIP3    H276202   5.863   6.603  17.146  0.1822 -0.8586  0.0252
18263TIP3   OH276203   5.797   0.569   2.838  0.1421  0.2191 -0.2720
18263TIP3    H176204   5.889   0.575   2.862 -0.1919  0.5290  1.0287
18263TIP3    H276205   5.796   0.577   2.743  1.3375  1.5008 -0.1995
18264TIP3   OH276206   1.230   0.095   4.627 -0.5484 -0.7685 -0.1253
18264TIP3    H176207   1.153   0.124   4.675 -0.4694 -1.1017  0.2065
18264TIP3    H276208   1.235   0.153   4.551 -0.8815 -0.4762  0.0775
18265TIP3   OH276209   4.194   4.879   0.648 -0.0663 -0.0073 -0.0020
18265TIP3    H176210   4.162   4.910   0.563 -2.0462  0.4727  0.8656
18265TIP3    H276211   4.275   4.929   0.662  0.7880 -0.7424 -1.9596
18266TIP3   OH276212   3.722   0.593  15.943  0.1618 -0.1716  0.0285
18266TIP3    H176213   3.733   0.592  16.038 -0.2511 -1.2884  0.0854
18266TIP3    H276214   3.795   0.541  15.910 -0.4764 -0.9879 -0.1449
18267TIP3   OH276215   0.798   3.734   1.383  0.6251  0.9746  0.8142
18267TIP3    H176216   0.872   3.674   1.384  1.3178  1.8235  1.3026
18267TIP3    H276217   0.721   3.678   1.393  1.2526  0.1699  1.1610
18268TIP3   OH276218   6.729   0.233  11.966  0.2102 -0.5437  0.1015
18268TIP3    H176219   6.738   0.297  11.896 -0.2062 -0.9716 -0.3425
18268TIP3    H276220   6.684   0.159  11.926 -1.6231 -0.1053  1.2491
18269TIP3   OH276221   0.689   4.163  16.237 -0.5994 -0.1585 -1.0081
18269TIP3    H176222   0.728   4.076  16.238  0.2217  0.1501  1.3904
18269TIP3    H276223   0.762   4.222  16.222 -0.0423  0.3666  2.7183
18270TIP3   OH276224   0.321   4.902   3.212 -0.1967 -0.6803 -0.2239
18270TIP3    H176225   0.361   4.930   3.294 -1.6304 -0.5178  0.4519
18270TIP3    H276226   0.243   4.853   3.239 -1.7507  0.9741 -1.4827
18271TIP3   OH276227   2.182   4.762   2.161  0.0496 -0.4737 -0.2850
18271TIP3    H176228   2.234   4.744   2.083  0.0854 -1.7919  0.0169
18271TIP3    H276229   2.213   4.699   2.226  0.0777  0.6538  0.8369
18272TIP3   OH276230   2.160   6.343   0.009  0.1471  0.4829  0.0420
18272TIP3    H176231   2.207   6.333  -0.074  0.5912  0.1279  0.3305
18272TIP3    H276232   2.116   6.258   0.021  0.7010  0.2633  0.5411
18273TIP3   OH276233   3.345   6.471  13.071  0.0853  0.0261  0.0351
18273TIP3    H176234   3.262   6.464  13.024  0.0996 -1.1645  0.1534
18273TIP3    H276235   3.320   6.484  13.163  0.0332  0.1988 -0.0033
18274TIP3   OH276236   2.090   0.517  13.457 -0.0892 -0.1737  0.1852
18274TIP3    H176237   2.030   0.453  13.420 -0.1659  0.1042 -0.1721
18274TIP3    H276238   2.106   0.580  13.387 -0.2185  0.3480  0.6102
18275TIP3   OH276239   5.770   5.481   0.103  0.7817  0.4587  0.4660
18275TIP3    H176240   5.744   5.392   0.080 -0.7087  1.3500 -1.6982
18275TIP3    H276241   5.777   5.526   0.018 -0.1988  2.8145  1.5406
18276TIP3   OH276242   1.472   0.497  12.343 -0.7498  0.0907  0.1137
18276TIP3    H176243   1.540   0.555  12.378  1.0331 -0.7038 -1.8264
18276TIP3    H276244   1.433   0.456  12.420  2.3692 -0.9300  1.3014
18277TIP3   OH276245   2.796   5.439  17.018  0.2297  0.0066  0.1604
18277TIP3    H176246   2.752   5.524  17.020 -1.5169 -0.8569  1.6861
18277TIP3    H276247   2.829   5.431  16.929 -1.2438  1.4766 -0.5620
18278TIP3   OH276248   0.240   4.805   4.824  0.0599  0.3853 -0.0976
18278TIP3    H176249   0.247   4.724   4.774  0.0473  0.6246 -0.4964
18278TIP3    H276250   0.287   4.788   4.906  1.3143  0.4455 -0.7812
18279TIP3   OH276251   2.690   1.487  16.805  0.0861 -0.2243  0.3969
18279TIP3    H176252   2.742   1.534  16.871  2.7098 -0.4970 -1.2939
18279TIP3    H276253   2.720   1.524  16.721 -1.2324 -1.6518 -0.7646
18280TIP3   OH276254   0.971   3.189  13.846  0.1764  0.2017 -0.1336
18280TIP3    H176255   0.962   3.107  13.894  0.6278 -0.8071 -1.7148
18280TIP3    H276256   1.060   3.218  13.865 -0.1852  0.6807  0.9210
18281TIP3   OH276257   3.726   2.830   5.058 -0.1040 -0.4872  0.2462
18281TIP3    H176258   3.676   2.751   5.079 -0.2086 -0.8635 -1.3114
18281TIP3    H276259   3.790   2.838   5.129 -1.3179 -0.8902  1.4285
18282TIP3   OH276260   3.100   0.183   0.030  0.1299 -0.3673  0.8687
18282TIP3    H176261   3.014   0.203  -0.008  0.5377 -2.2740 -1.2616
18282TIP3    H276262   3.100   0.088   0.041  2.4466 -0.6193 -0.5899
18283TIP3   OH276263   3.384   2.785   3.924  0.0808  0.1553 -0.4308
18283TIP3    H176264   3.436   2.857   3.889 -0.0439 -0.1869 -1.3546
18283TIP3    H276265   3.425   2.706   3.887  0.3408 -0.2737  0.7249
18284TIP3   OH276266   4.158   3.899   5.551 -0.0656 -0.3051  0.1046
18284TIP3    H176267   4.066   3.904   5.524 -0.0134 -1.7532 -0.4362
18284TIP3    H276268   4.207   3.938   5.478 -0.1662 -0.8740 -0.2735
18285TIP3   OH276269   6.633   0.885   5.811  0.1112 -0.4878  0.3882
18285TIP3    H176270   6.553   0.933   5.833 -0.0213 -0.3823 -0.3104
18285TIP3    H276271   6.703   0.932   5.858  0.3322  1.7855 -1.9544
18286TIP3   OH276272   0.900   0.876  12.764  0.1916  0.4727 -1.0330
18286TIP3    H176273   0.805   0.881  12.754  0.1991  1.2540 -0.7702
18286TIP3    H276274   0.929   0.827  12.687 -0.4898 -0.4253 -0.7321
18287TIP3   OH276275   1.553   6.121   0.076 -0.3233  0.1462  0.9260
18287TIP3    H176276   1.562   6.090   0.166 -0.3580 -0.1657  0.8198
18287TIP3    H276277   1.634   6.169   0.059  0.1852 -0.7532  0.7410
18288TIP3   OH276278   5.324   4.077   2.714 -0.7039  0.0880  0.2678
18288TIP3    H176279   5.312   4.171   2.723  1.1565  0.2479  1.7819
18288TIP3    H276280   5.318   4.044   2.804  3.3642 -0.5300  0.5028
18289TIP3   OH276281   0.291   4.602   4.671 -0.6203 -0.1555 -0.7048
18289TIP3    H176282   0.277   4.612   4.577 -1.7934 -1.9834 -0.7693
18289TIP3    H276283   0.336   4.518   4.680  0.3224  0.4436  0.3217
18290TIP3   OH276284   2.141   0.022   1.457 -0.1144  0.3906  0.1304
18290TIP3    H176285   2.072   0.012   1.392  0.8244 -1.3566 -0.6468
18290TIP3    H276286   2.217  -0.020   1.418  0.8006  0.3543  1.8687
18291TIP3   OH276287   3.448   5.884   5.453 -0.2207  0.0368 -0.2953
18291TIP3    H176288   3.528   5.832   5.454 -1.1958 -1.5302 -1.0965
18291TIP3    H276289   3.380   5.826   5.488 -1.2891  0.8475 -0.9541
18292TIP3   OH276290   5.965   4.279  11.270  0.3426  0.1699  0.1198
18292TIP3    H176291   5.937   4.253  11.182  2.2744 -0.7770 -0.2858
18292TIP3    H276292   5.959   4.374  11.270  3.2598  0.5154 -2.2257
18293TIP3   OH276293   0.560   6.508  16.330 -0.0159  0.3415 -0.4343
18293TIP3    H176294   0.548   6.572  16.260  2.2077  1.3942  0.0548
18293TIP3    H276295   0.512   6.544  16.405 -0.6456  0.2746 -0.8006
18294TIP3   OH276296   2.698   6.681  12.578 -0.5061  0.2757 -0.3453
18294TIP3    H176297   2.608   6.653  12.559 -0.6201 -1.4523  2.2359
18294TIP3    H276298   2.697   6.702  12.672  1.6794  0.6154 -0.3525
18295TIP3   OH276299   5.247   3.160   1.678  0.5897  0.1707  0.0875
18295TIP3    H176300   5.257   3.184   1.586 -0.6400  1.8928  0.3487
18295TIP3    H276301   5.308   3.088   1.691  1.7075  0.7151 -1.7628
18296TIP3   OH276302   0.278   2.630  16.996 -0.5665 -0.3055  0.0905
18296TIP3    H176303   0.317   2.585  17.071  2.4428  1.3728 -0.3118
18296TIP3    H276304   0.337   2.611  16.923 -1.2965  1.1992 -0.9485
18297TIP3   OH276305   5.001   1.870  14.216 -0.2881  0.0842 -0.1219
18297TIP3    H176306   5.010   1.785  14.173  1.4190  0.7548 -1.2137
18297TIP3    H276307   5.003   1.933  14.144  0.3745  1.1314  0.7909
18298TIP3   OH276308   2.391   1.481   4.943  0.0087  0.2923  0.0692
18298TIP3    H176309   2.351   1.396   4.965  0.5278 -0.0824 -0.4124
18298TIP3    H276310   2.317   1.536   4.918 -0.1801 -0.6029 -1.4924
18299TIP3   OH276311   5.009   6.570  14.722 -0.1641 -0.1749 -0.2942
18299TIP3    H176312   4.959   6.586  14.642  1.5752 -0.4249 -1.4899
18299TIP3    H276313   5.056   6.488  14.705 -0.6723 -0.8930  1.4836
18300TIP3   OH276314   4.210   2.611   3.058  0.0841  0.1780  0.9691
18300TIP3    H176315   4.302   2.616   3.029  0.1374 -1.1746  0.8200
18300TIP3    H276316   4.160   2.615   2.976 -0.0980  2.3554  1.1359
18301TIP3   OH276317   2.502   6.100   4.136 -0.4996 -0.0809  0.1864
18301TIP3    H176318   2.486   6.186   4.096 -0.3774 -0.2072 -0.1402
18301TIP3    H276319   2.488   6.114   4.230 -0.5667  0.2757  0.1250
18302TIP3   OH276320   5.571   1.574   0.888  0.0301  0.4523 -0.1650
18302TIP3    H176321   5.530   1.500   0.934  1.1661  0.5768  1.1174
18302TIP3    H276322   5.631   1.533   0.826 -0.0023  0.2809 -0.0845
18303TIP3   OH276323   2.578   2.747   4.197  0.4450  0.2247  0.4229
18303TIP3    H176324   2.624   2.670   4.164 -0.0332  0.6734 -1.4087
18303TIP3    H276325   2.627   2.822   4.163  0.2375  0.7411  1.2157
18304TIP3   OH276326   6.387   5.164  12.971 -0.0018  0.1630  0.0835
18304TIP3    H176327   6.312   5.103  12.971  0.3545 -0.2804  0.3006
18304TIP3    H276328   6.463   5.108  12.985  0.4525  0.5179 -0.8988
18305TIP3   OH276329   3.530   6.441  12.872 -0.3391 -0.0727  0.4322
18305TIP3    H176330   3.473   6.426  12.948  0.4904 -0.6110  0.9774
18305TIP3    H276331   3.617   6.416  12.903  0.0608 -0.0413 -0.6249
18306TIP3   OH276332   2.176   3.879  10.547  0.4563  0.1089  0.2637
18306TIP3    H176333   2.238   3.953  10.554 -0.1804  0.7436 -0.5410
18306TIP3    H276334   2.208   3.815  10.610  0.3313  1.5682  1.8882
18307TIP3   OH276335   2.243   5.788  12.147 -0.2586  0.2171  0.3774
18307TIP3    H176336   2.252   5.703  12.191 -0.0225  0.3190  0.5231
18307TIP3    H276337   2.320   5.837  12.173 -1.2145  1.0984  1.6626
18308TIP3   OH276338   1.156   6.703  12.226  0.6032  0.0802 -0.4104
18308TIP3    H176339   1.184   6.629  12.172  2.1665  1.0116 -0.9458
18308TIP3    H276340   1.078   6.671  12.272  0.7965 -1.6284 -1.1906
18309TIP3   OH276341   1.319   4.811   2.521  0.6286  0.1504 -0.6714
18309TIP3    H176342   1.380   4.746   2.557  0.3883 -1.3274 -2.7940
18309TIP3    H276343   1.372   4.863   2.461  0.4398  0.8361 -0.2522
18310TIP3   OH276344   6.000   1.272  12.511  0.2900  0.0825 -0.2778
18310TIP3    H176345   6.044   1.357  12.517  0.1349  0.1443 -0.0040
18310TIP3    H276346   5.907   1.293  12.508  0.2153 -0.1036  0.4716
18311TIP3   OH276347   4.521   2.925   0.722  0.5988 -0.0268  0.5610
18311TIP3    H176348   4.518   2.829   0.715 -0.9774  0.0125  0.3407
18311TIP3    H276349   4.566   2.954   0.643  0.1287 -0.5552  0.0883
18312TIP3   OH276350   0.760   0.369  12.103 -0.3573  0.9704 -0.2030
18312TIP3    H176351   0.796   0.458  12.100  0.3615  0.7538  1.2528
18312TIP3    H276352   0.809   0.322  12.036  0.4094  1.2830  0.1224
18313TIP3   OH276353   3.365   4.779  14.960 -0.0930  0.3410 -0.2196
18313TIP3    H176354   3.348   4.737  15.044  1.4089  1.2107  0.5689
18313TIP3    H276355   3.288   4.760  14.907 -0.3700 -1.5757  0.8006
18314TIP3   OH276356   2.327   6.395   1.231 -0.0311 -0.3785 -0.0633
18314TIP3    H176357   2.346   6.309   1.270  0.7161 -0.2875 -0.2228
18314TIP3    H276358   2.282   6.443   1.300 -0.6142 -0.9545 -0.0270
18315TIP3   OH276359   6.497   3.753   0.057 -0.1909  0.2080 -0.1819
18315TIP3    H176360   6.553   3.831   0.056 -1.3345  1.0671 -1.6947
18315TIP3    H276361   6.420   3.778   0.007  0.2528 -2.5170 -2.4735
18316TIP3   OH276362   2.245   3.696   3.405  0.5164 -0.0102  0.5081
18316TIP3    H176363   2.182   3.764   3.381 -0.3634 -0.7570  0.6618
18316TIP3    H276364   2.266   3.714   3.497 -0.0285 -0.1840  0.6693
18317TIP3   OH276365   0.443   0.860   0.649 -0.2156  0.2785 -0.8627
18317TIP3    H176366   0.425   0.909   0.569 -1.5402 -0.5665 -1.1172
18317TIP3    H276367   0.522   0.809   0.629  0.3943  1.2800 -1.0535
18318TIP3   OH276368   4.965   1.170   4.598  0.1678  0.1438  0.3311
18318TIP3    H176369   4.889   1.227   4.611 -2.5523 -2.3068 -3.0008
18318TIP3    H276370   5.012   1.209   4.524  0.4338  0.0291  0.4383
18319TIP3   OH276371   4.595   2.768  11.021 -0.0248  0.3996  0.0616
18319TIP3    H176372   4.620   2.702  10.956  1.0490  0.6244  0.2256
18319TIP3    H276373   4.535   2.826  10.975  1.9530  1.5006 -1.2791
18320TIP3   OH276374   3.987   1.440  14.392 -0.1722  0.4381  0.1849
18320TIP3    H176375   3.932   1.389  14.452 -0.8221 -0.7944 -1.3693
18320TIP3    H276376   3.931   1.454  14.315  0.9642  1.0651 -0.5605
18321TIP3   OH276377   1.960   5.210  12.236  0.0159  0.1418 -0.0588
18321TIP3    H176378   1.968   5.121  12.269  0.4052  0.8803  1.9995
18321TIP3    H276379   1.879   5.243  12.275  0.2943  0.9441 -0.1340
18322TIP3   OH276380   0.793   3.031   4.460  0.3674  0.0467 -0.0483
18322TIP3    H176381   0.860   2.963   4.454  1.0743  0.7601 -0.4927
18322TIP3    H276382   0.820   3.097   4.395 -0.3673  0.6868  0.2781
18323TIP3   OH276383   4.645   4.657   4.992  0.1295  0.1505 -0.5025
18323TIP3    H176384   4.612   4.615   5.071  2.9195  0.6142  1.0477
18323TIP3    H276385   4.626   4.750   5.004 -0.7813  0.0641 -1.1428
18324TIP3   OH276386   6.087   0.946   5.724 -0.0855 -0.3696  0.1194
18324TIP3    H176387   6.034   0.870   5.700 -1.3080  0.9964 -1.7940
18324TIP3    H276388   6.045   0.981   5.803 -0.9078 -0.3840 -0.3053
18325TIP3   OH276389   2.695   3.696  16.408  0.1513 -0.0994  0.1095
18325TIP3    H176390   2.674   3.778  16.364 -0.8592 -0.3743  0.0288
18325TIP3    H276391   2.673   3.628  16.343  1.6425 -0.4190 -0.0823
18326TIP3   OH276392   4.890   6.167   0.834  0.3689  0.5522 -0.0844
18326TIP3    H176393   4.831   6.212   0.774  0.6811 -0.3976 -1.1572
18326TIP3    H276394   4.967   6.224   0.839  0.7049  0.2398 -1.3126
18327TIP3   OH276395   3.063   1.693   5.081 -0.1557  0.3164 -0.1294
18327TIP3    H176396   3.022   1.725   5.161  1.0785 -0.0496  0.6889
18327TIP3    H276397   3.045   1.599   5.080  0.5357  0.1740  0.1728
18328TIP3   OH276398   5.566   6.114   0.664  0.2338 -0.2167 -0.1966
18328TIP3    H176399   5.642   6.062   0.637 -0.6024 -1.1275 -0.8687
18328TIP3    H276400   5.492   6.054   0.657 -0.9490  1.3199 -2.0685
18329TIP3   OH276401   4.431   3.040   5.984 -0.6634  0.0703 -0.5681
18329TIP3    H176402   4.482   3.039   6.065  0.0386  1.9707 -0.9357
18329TIP3    H276403   4.371   2.965   5.993  0.3184 -0.5892  1.0758
18330TIP3   OH276404   0.451   5.964   0.134 -0.1102 -0.3205 -0.4540
18330TIP3    H176405   0.492   5.952   0.220 -0.8325 -1.7655 -0.2971
18330TIP3    H276406   0.392   6.039   0.147  1.2910  0.8062 -0.2748
18331TIP3   OH276407   5.513   2.178  12.419 -0.3738 -0.2740 -0.2379
18331TIP3    H176408   5.495   2.172  12.325  2.0913 -0.4839 -0.7604
18331TIP3    H276409   5.573   2.105  12.436  2.1999  1.9068  0.6722
18332TIP3   OH276410   5.290   2.010  14.551 -0.7671  0.1768  0.3562
18332TIP3    H176411   5.371   2.039  14.593  1.7617 -1.5901 -2.8238
18332TIP3    H276412   5.246   1.958  14.617  2.1626 -1.1729  1.4241
18333TIP3   OH276413   5.320   6.746  12.473 -0.0767 -0.2942 -0.1838
18333TIP3    H176414   5.288   6.661  12.443  0.5871 -0.5055 -0.2902
18333TIP3    H276415   5.402   6.727  12.518  1.1026  0.4656 -1.8705
18334TIP3   OH276416   1.148   1.778  14.803  1.0653 -0.5440  0.4733
18334TIP3    H176417   1.052   1.779  14.799  1.1051 -1.0922 -1.1215
18334TIP3    H276418   1.171   1.863  14.841 -0.0310 -0.1726  0.3413
18335TIP3   OH276419   4.192   1.887   1.946 -0.8272  0.5365 -0.1271
18335TIP3    H176420   4.118   1.930   1.903 -0.7175  1.5768  0.7024
18335TIP3    H276421   4.228   1.829   1.879 -1.8669  0.6525 -0.8092
18336TIP3   OH276422   4.915   5.874   4.890 -0.2972  0.2416  0.1146
18336TIP3    H176423   4.845   5.813   4.913  0.3474  0.0979  1.8316
18336TIP3    H276424   4.978   5.821   4.842  0.4007 -0.5730  1.8465
18337TIP3   OH276425   1.957   6.535   3.875  0.1882  0.4023 -0.2127
18337TIP3    H176426   1.903   6.558   3.951 -0.0519 -0.1633 -0.2047
18337TIP3    H276427   1.967   6.617   3.827 -2.1394  0.2446 -1.1289
18338TIP3   OH276428   6.782   5.097  13.180  1.1143  0.2051 -0.1210
18338TIP3    H176429   6.769   5.191  13.165  2.7393  0.3086 -1.0802
18338TIP3    H276430   6.874   5.082  13.161  0.6484 -1.7969 -1.0611
18339TIP3   OH276431   1.362   3.138  15.663  0.0665 -0.2244  0.3490
18339TIP3    H176432   1.365   3.104  15.752  0.6065 -0.5059  0.2287
18339TIP3    H276433   1.453   3.158  15.642 -0.3445  3.0595  1.0588
18340TIP3   OH276434   2.252   1.926  16.365  0.1896 -0.5117 -1.1443
18340TIP3    H176435   2.279   1.835  16.358 -1.4839 -1.6608  3.6471
18340TIP3    H276436   2.332   1.973  16.391  0.5938 -1.0250 -1.4368
18341TIP3   OH276437   4.428   1.202  12.278 -0.4944 -0.1128 -0.0083
18341TIP3    H176438   4.437   1.270  12.345  0.8603  1.6061 -1.8360
18341TIP3    H276439   4.359   1.235  12.220 -0.3781 -0.6975 -0.4867
18342TIP3   OH276440   1.684   4.190  12.032  0.1341  0.0656  0.5360
18342TIP3    H176441   1.626   4.220  11.963 -0.3487 -0.5389  0.6767
18342TIP3    H276442   1.713   4.270  12.075  1.1182  0.5200 -0.8845
18343TIP3   OH276443   2.305   6.266   4.371 -0.6318  0.2934 -0.0739
18343TIP3    H176444   2.289   6.331   4.440 -1.2125  0.2855 -0.1960
18343TIP3    H276445   2.223   6.217   4.366  0.6427 -2.3398  1.9858
18344TIP3   OH276446   5.085   6.380   0.078  0.6020  0.3428  0.1025
18344TIP3    H176447   5.029   6.363   0.002 -0.1292 -1.3424  0.9581
18344TIP3    H276448   5.174   6.382   0.042  0.2341  0.0779 -0.8679
18345TIP3   OH276449   3.217   3.701  15.927  0.2730 -0.4634  0.7209
18345TIP3    H176450   3.141   3.724  15.981  0.1173  1.0757 -0.0840
18345TIP3    H276451   3.283   3.766  15.951 -1.3313  3.5833 -4.1317
18346TIP3   OH276452   3.293   5.919  10.963  0.7579  0.2026 -0.3732
18346TIP3    H176453   3.261   5.997  10.917  0.2126 -0.3409 -0.9332
18346TIP3    H276454   3.347   5.954  11.035 -1.5397  1.2130  0.9924
18347TIP3   OH276455   2.331   5.324   5.506 -0.1848 -0.1114  0.5602
18347TIP3    H176456   2.404   5.364   5.553 -0.2158  0.9968 -0.3195
18347TIP3    H276457   2.270   5.395   5.488 -0.0969 -0.4351 -1.3046
18348TIP3   OH276458   0.957   1.207  12.343  0.3570  0.1977  0.5198
18348TIP3    H176459   0.909   1.125  12.356  0.7958  0.0007  0.9254
18348TIP3    H276460   1.039   1.180  12.301 -0.2146  0.6202 -0.9275
18349TIP3   OH276461   1.578   1.239   0.615 -0.1900  0.8138  0.1072
18349TIP3    H176462   1.566   1.164   0.673  2.9967 -0.2530 -0.4243
18349TIP3    H276463   1.576   1.315   0.673 -1.6856  0.2037  0.9072
18350TIP3   OH276464   2.742   3.247   2.132  1.2696  0.7103 -0.7980
18350TIP3    H176465   2.825   3.261   2.179  0.7649 -2.7759  1.4788
18350TIP3    H276466   2.762   3.177   2.070  0.0960  0.0488 -0.4415
18351TIP3   OH276467   2.490   1.230   2.600 -0.4703  0.1704  0.0945
18351TIP3    H176468   2.468   1.169   2.670 -1.6413  0.2297 -0.2161
18351TIP3    H276469   2.524   1.307   2.645  0.6701 -0.5354  0.5048
18352TIP3   OH276470   1.739   1.918  14.120 -0.5216  0.1566 -0.2504
18352TIP3    H176471   1.726   1.878  14.206  0.8597  0.5209  0.1528
18352TIP3    H276472   1.743   1.844  14.059 -1.0047 -0.1284  0.0581
18353TIP3   OH276473   3.862   4.387   5.490 -0.1813 -0.5308 -0.3479
18353TIP3    H176474   3.888   4.452   5.556 -1.8194  0.8887 -1.0354
18353TIP3    H276475   3.945   4.357   5.452  0.6711  0.1877  0.8999
18354TIP3   OH276476   6.770   4.221  12.688 -0.5178  0.2822  0.0118
18354TIP3    H176477   6.838   4.255  12.746 -0.9480 -0.5339  1.0110
18354TIP3    H276478   6.719   4.299  12.664 -0.1807  0.6611  0.5032
18355TIP3   OH276479   2.798   4.748   3.993  0.2972  0.3678  0.2231
18355TIP3    H176480   2.812   4.758   3.899  0.6188 -1.6105  0.0063
18355TIP3    H276481   2.863   4.805   4.033  2.8484 -1.5866 -0.8043
18356TIP3   OH276482   1.064   1.447  11.850  0.5902  0.0466  0.1954
18356TIP3    H176483   1.122   1.456  11.775  0.7787 -1.4323  0.1406
18356TIP3    H276484   1.092   1.366  11.893 -2.3255 -1.5258 -0.6399
18357TIP3   OH276485   6.730   1.897   5.529  0.9190  0.3434 -0.3347
18357TIP3    H176486   6.635   1.888   5.519  0.9667 -1.9806  0.6377
18357TIP3    H276487   6.765   1.883   5.441  0.3825  0.8120 -0.6228
18358TIP3   OH276488   2.521   5.183  10.766  0.4127 -0.1351  0.4459
18358TIP3    H176489   2.496   5.091  10.757  0.3590 -0.0726 -0.1080
18358TIP3    H276490   2.452   5.231  10.720  2.0976 -0.0288 -2.1573
18359TIP3   OH276491   5.522   1.445  11.078 -0.1418  0.4950 -0.4459
18359TIP3    H176492   5.458   1.401  11.133  0.4976  0.3505  0.1943
18359TIP3    H276493   5.605   1.400  11.095  0.4897  1.7964  0.0826
18360TIP3   OH276494   1.871   0.717  12.193 -0.4599 -0.0919 -0.3700
18360TIP3    H176495   1.885   0.671  12.110  1.3718  0.2642 -0.2825
18360TIP3    H276496   1.860   0.809  12.168  0.9187  0.1428 -0.1889
18361TIP3   OH276497   4.348   2.482   3.260  0.1011 -0.0682  0.2179
18361TIP3    H176498   4.289   2.542   3.214 -0.7908 -0.8122  0.3419
18361TIP3    H276499   4.385   2.428   3.190  0.6345  0.3914  0.1413
18362TIP3   OH276500   2.236   4.369   3.905 -0.5657 -0.3018 -0.4642
18362TIP3    H176501   2.299   4.433   3.938  0.1556 -1.5156  0.6203
18362TIP3    H276502   2.165   4.421   3.868  0.7488  1.1134 -1.0914
18363TIP3   OH276503   3.882   3.399   0.647 -1.3204  0.5691 -0.1013
18363TIP3    H176504   3.908   3.338   0.716 -0.4030 -0.5674 -1.3976
18363TIP3    H276505   3.889   3.485   0.688  1.2232  0.0877  0.6664
18364TIP3   OH276506   3.150   1.708  13.196 -0.1967  0.1985  0.2009
18364TIP3    H176507   3.114   1.621  13.179  1.7748 -0.6202 -0.0967
18364TIP3    H276508   3.218   1.693  13.262  0.1980  1.4992  0.1142
18365TIP3   OH276509   1.656   2.899   1.689  0.2549 -0.1839 -0.2595
18365TIP3    H176510   1.722   2.963   1.661  0.6768 -0.8641 -0.8757
18365TIP3    H276511   1.676   2.821   1.637 -2.5299  0.3237 -2.3351
18366TIP3   OH276512   6.579   2.906   5.190 -0.5540  0.0435 -0.8641
18366TIP3    H176513   6.670   2.875   5.186 -0.8447 -0.8248 -1.0291
18366TIP3    H276514   6.584   2.991   5.233  0.4754  0.5705 -1.9671
18367TIP3   OH276515   5.457   4.469   1.545  0.4090 -0.3641  0.1140
18367TIP3    H176516   5.436   4.475   1.452 -0.6549  0.8714  0.4056
18367TIP3    H276517   5.531   4.409   1.549  1.9274  1.2569 -1.7476
18368TIP3   OH276518   3.176   1.912   0.034  0.0536 -0.1030 -0.9578
18368TIP3    H176519   3.100   1.875   0.079 -0.2494  0.1042 -1.2901
18368TIP3    H276520   3.222   1.963   0.100 -0.9227  1.0078 -1.1105
18369TIP3   OH276521   4.985   3.173  13.112  0.0641 -0.1914 -0.6534
18369TIP3    H176522   5.026   3.097  13.152 -1.5312 -0.7245  0.0668
18369TIP3    H276523   4.905   3.187  13.164  1.5602  3.6245  1.0128
18370TIP3   OH276524   1.797   1.568   4.362 -0.2947  0.1736 -0.2630
18370TIP3    H176525   1.848   1.487   4.362  0.5462  0.6944  0.0482
18370TIP3    H276526   1.713   1.543   4.323 -0.6308 -1.2107  1.2579
18371TIP3   OH276527   4.124   0.870   2.095 -0.0888 -0.2337 -0.0301
18371TIP3    H176528   4.058   0.938   2.104 -0.0486 -0.3285  1.0519
18371TIP3    H276529   4.118   0.819   2.176  1.6669  0.0755  0.3273
18372TIP3   OH276530   5.617   2.219   0.235 -0.4503  0.1295  0.3789
18372TIP3    H176531   5.655   2.303   0.207 -0.5457  0.0639  0.0475
18372TIP3    H276532   5.689   2.173   0.277 -0.3278  0.2711  0.3264
18373TIP3   OH276533   2.444   1.780   1.573 -0.1313 -0.1906  0.8242
18373TIP3    H176534   2.432   1.807   1.481  0.3531 -0.0225  0.8064
18373TIP3    H276535   2.410   1.691   1.577 -0.6445 -0.0099  0.6018
18374TIP3   OH276536   1.752   1.150  11.437  0.1592  0.6265 -0.3959
18374TIP3    H176537   1.779   1.231  11.480  0.4687 -0.2890  1.1783
18374TIP3    H276538   1.802   1.148  11.355  1.8198  0.9379  0.5831
18375TIP3   OH276539   2.862   4.461  12.108 -0.6432  0.6557  0.7713
18375TIP3    H176540   2.786   4.413  12.140 -0.0396  0.2028  1.5449
18375TIP3    H276541   2.829   4.509  12.032 -0.6377 -3.5376 -2.3066
18376TIP3   OH276542   5.877   1.504   2.462  0.1741  0.5735 -0.0080
18376TIP3    H176543   5.860   1.428   2.518 -3.5369 -0.7181 -2.5254
18376TIP3    H276544   5.972   1.506   2.453  0.6440 -1.4814  3.1069
18377TIP3   OH276545   0.010   6.057   0.083 -0.4794  0.3210  0.3913
18377TIP3    H176546  -0.033   6.139   0.109 -1.2552 -0.0069  0.1984
18377TIP3    H276547  -0.037   6.031   0.003  0.9865  0.6372 -0.6173
18378TIP3   OH276548   5.915   5.742   1.131  0.2801  0.1311 -0.1494
18378TIP3    H176549   5.856   5.771   1.061  0.5180  1.9326  0.3536
18378TIP3    H276550   5.957   5.664   1.095 -0.1307  0.5915 -1.7421
18379TIP3   OH276551   5.670   3.702  11.963  0.4219 -0.3327 -0.2555
18379TIP3    H176552   5.631   3.775  12.012 -0.2526  0.4742 -1.9319
18379TIP3    H276553   5.615   3.627  11.984 -0.1564  0.1040 -0.1738
18380TIP3   OH276554   4.146   6.232   4.262 -0.3068 -0.1898 -0.4986
18380TIP3    H176555   4.166   6.225   4.169 -1.7695 -1.5356 -0.7513
18380TIP3    H276556   4.139   6.142   4.292  0.5209  0.2291  1.0126
18381TIP3   OH276557   6.055   3.265   5.494  0.0089  0.0800 -0.1688
18381TIP3    H176558   6.051   3.269   5.589  2.0719 -1.0409  0.0095
18381TIP3    H276559   6.042   3.173   5.473  2.4732 -0.2161 -0.7134
18382TIP3   OH276560   0.562   1.904  14.654 -0.1815 -0.0406  0.4274
18382TIP3    H176561   0.619   1.943  14.588 -1.4088  0.4189 -0.3777
18382TIP3    H276562   0.509   1.976  14.687 -2.0932 -0.8830 -0.6845
18383TIP3   OH276563   4.345   1.288  12.688  0.2027 -0.3931 -0.0416
18383TIP3    H176564   4.313   1.264  12.775 -0.4093  0.3327 -0.0626
18383TIP3    H276565   4.299   1.369  12.666  1.9329  0.6130 -0.1439
18384TIP3   OH276566   1.229   2.633  10.752  0.3260 -0.3019 -0.0105
18384TIP3    H176567   1.282   2.702  10.792 -0.5659 -0.6298  1.8270
18384TIP3    H276568   1.142   2.645  10.790 -0.8593 -0.0804 -2.5690
18385TIP3   OH276569   1.496   5.153   4.875 -0.2305  0.5472  0.1010
18385TIP3    H176570   1.525   5.062   4.886  1.5274  0.9775 -0.6126
18385TIP3    H276571   1.406   5.146   4.843  0.5341 -1.0037 -1.9306
18386TIP3   OH276572   2.979   5.683  12.416  0.0140  0.0631  0.1239
18386TIP3    H176573   2.962   5.588  12.416  0.1701 -0.0440  2.8550
18386TIP3    H276574   2.896   5.722  12.443  0.3618  0.5810  0.4490
18387TIP3   OH276575   0.414   6.274   4.881 -0.8542 -0.0966  0.3434
18387TIP3    H176576   0.345   6.333   4.909 -2.1455 -1.3107 -0.1723
18387TIP3    H276577   0.379   6.186   4.898  0.3888 -0.7546 -0.3142
18388TIP3   OH276578   1.219   4.599   0.243 -0.6620  0.5007  0.0449
18388TIP3    H176579   1.155   4.655   0.199 -0.6960  1.4562  1.2848
18388TIP3    H276580   1.186   4.510   0.230 -1.8246  0.9288  0.0112
18389TIP3   OH276581   2.185   6.159  10.930 -0.0068 -0.4362  0.3455
18389TIP3    H176582   2.096   6.140  10.900  0.3390  0.1574 -1.1065
18389TIP3    H276583   2.242   6.110  10.872  0.6735  0.5431  0.1512
18390TIP3   OH276584   1.215   3.060   4.481 -0.2159  0.6548  0.0423
18390TIP3    H176585   1.139   3.038   4.535 -0.1173 -0.3427 -0.2033
18390TIP3    H276586   1.196   3.147   4.447 -1.3262  0.3625 -0.1399
18391TIP3   OH276587   6.176   0.981   1.612 -0.4156  0.1895  0.0507
18391TIP3    H176588   6.110   0.997   1.680  0.0806 -1.4737  0.9723
18391TIP3    H276589   6.258   0.969   1.660  0.3862  1.1899 -1.0126
18392TIP3   OH276590   5.988   2.264   3.826  0.2298  0.1297  0.1746
18392TIP3    H176591   6.062   2.283   3.767  0.8210  0.5034  1.0166
18392TIP3    H276592   5.999   2.172   3.850  0.2315  0.0937  0.0373
18393TIP3   OH276593   1.529   1.822   2.665  0.0313 -0.2528 -0.5246
18393TIP3    H176594   1.475   1.795   2.591  1.0524  1.3620 -1.9413
18393TIP3    H276595   1.557   1.911   2.642 -0.9525  0.9912  2.5655
18394TIP3   OH276596   5.507   1.936   3.892 -0.7535  0.0593  0.2689
18394TIP3    H176597   5.592   1.943   3.849 -0.0834 -2.4799  1.0142
18394TIP3    H276598   5.443   1.959   3.824  0.4363 -0.4398 -1.0586
18395TIP3   OH276599   6.561   2.994  11.325 -0.2337  0.0966 -0.4277
18395TIP3    H176600   6.519   2.909  11.311  1.3368 -0.9118  0.6490
18395TIP3    H276601   6.590   3.021  11.238 -2.5022  0.5472 -1.0986
18396TIP3   OH276602   0.552   0.615  16.019  0.8269  0.5500 -0.0295
18396TIP3    H176603   0.525   0.625  15.928  1.9087  0.1984 -0.3944
18396TIP3    H276604   0.633   0.565  16.016 -0.7040 -2.2311  1.3261
18397TIP3   OH276605   4.932   5.624   4.468 -0.1840 -0.4393 -0.1039
18397TIP3    H176606   4.876   5.700   4.454 -3.2559 -2.2917  1.2990
18397TIP3    H276607   4.993   5.652   4.537 -0.8375  0.9316 -0.0446
18398TIP3   OH276608   0.919   5.256   1.860 -0.4214  0.0061 -0.3689
18398TIP3    H176609   0.882   5.316   1.795  0.9702  0.9600 -0.3355
18398TIP3    H276610   0.868   5.273   1.940 -1.9686 -0.9883 -1.1039
18399TIP3   OH276611   0.302   5.064   5.012  0.3343 -0.2006 -0.3012
18399TIP3    H176612   0.352   5.052   4.932  2.1686 -0.8960  0.8847
18399TIP3    H276613   0.351   5.130   5.062 -1.2068  0.8162 -0.0663
18400TIP3   OH276614   4.087   2.591   2.806  0.1144 -0.4673  0.2608
18400TIP3    H176615   4.078   2.505   2.767 -0.4607 -0.6814  0.8435
18400TIP3    H276616   3.998   2.616   2.831  0.3934 -0.1103  0.9401
18401TIP3   OH276617   0.351   4.240  12.751 -0.3661  0.2155  0.0557
18401TIP3    H176618   0.443   4.226  12.728 -0.4990  0.5459 -0.7239
18401TIP3    H276619   0.313   4.282  12.673 -1.3975 -0.7871 -0.0189
18402TIP3   OH276620   5.336   4.317  16.622 -0.5537  0.4877  0.4138
18402TIP3    H176621   5.403   4.266  16.667 -1.6173 -0.2969  1.1463
18402TIP3    H276622   5.323   4.394  16.677 -0.3396  0.5891  0.3247
18403TIP3   OH276623   1.977   0.709   2.524  0.0257  0.0598  0.0761
18403TIP3    H176624   1.958   0.783   2.583 -0.0707 -0.7933  1.1370
18403TIP3    H276625   2.066   0.682   2.547  0.1225 -0.0633 -0.4251
18404TIP3   OH276626   2.527   4.333  12.935  0.2146  0.5325  0.1479
18404TIP3    H176627   2.583   4.256  12.933  0.0485  0.4223 -0.3460
18404TIP3    H276628   2.587   4.406  12.920  0.0933  0.3329 -1.4716
18405TIP3   OH276629   4.859   0.955   4.317 -0.5942  0.2908 -0.3862
18405TIP3    H176630   4.893   1.036   4.280  2.8044 -0.9109 -0.2378
18405TIP3    H276631   4.863   0.968   4.412  1.6338 -0.5820 -0.3175
18406TIP3   OH276632   3.276   4.229  16.447  0.1128 -0.3245 -0.3026
18406TIP3    H176633   3.254   4.311  16.402 -1.1351 -0.9246 -0.8382
18406TIP3    H276634   3.349   4.193  16.397 -1.2019 -0.9468 -1.8543
18407TIP3   OH276635   3.239   4.860   2.185  0.5430  0.2904 -0.1293
18407TIP3    H176636   3.224   4.944   2.141 -1.0744 -0.0906 -0.3544
18407TIP3    H276637   3.325   4.870   2.227  0.2319  2.1698  0.1361
18408TIP3   OH276638   1.585   1.995  14.598  0.6218 -0.0610  0.0349
18408TIP3    H176639   1.501   1.950  14.596  1.1375 -1.0583 -2.5266
18408TIP3    H276640   1.578   2.055  14.672 -1.5960 -1.4780  1.0835
18409TIP3   OH276641   2.495   0.692   2.593 -0.2713  0.4518 -0.0157
18409TIP3    H176642   2.405   0.665   2.579  0.7825 -3.2346 -0.6237
18409TIP3    H276643   2.508   0.763   2.530 -2.3195  0.0572 -0.9734
18410TIP3   OH276644   1.181   2.834   2.408 -0.1071  0.1348 -0.3631
18410TIP3    H176645   1.243   2.779   2.457 -1.0434  1.7353  2.9340
18410TIP3    H276646   1.100   2.830   2.459 -0.9053  2.6255 -1.2947
18411TIP3   OH276647   6.659   6.357  13.601  0.0621  0.1372 -0.0876
18411TIP3    H176648   6.748   6.325  13.591  0.2444  0.8820 -0.9662
18411TIP3    H276649   6.668   6.452  13.608 -0.6045  0.1610  0.6769
18412TIP3   OH276650   1.655   5.706  15.724 -0.2835 -0.0968  0.3123
18412TIP3    H176651   1.711   5.783  15.721  0.1393 -0.2966  2.0911
18412TIP3    H276652   1.566   5.741  15.713  0.0457  0.3739 -1.0644
18413TIP3   OH276653   1.269   5.156   3.078 -0.2096  0.2652 -0.2780
18413TIP3    H176654   1.179   5.138   3.050  0.4236 -2.0321 -1.0327
18413TIP3    H276655   1.287   5.089   3.144  1.6347 -0.7216 -1.6923
18414TIP3   OH276656   4.051   2.601   0.415  0.0947  0.7996 -0.8624
18414TIP3    H176657   4.040   2.667   0.347  0.0428  1.2998 -0.3704
18414TIP3    H276658   4.096   2.646   0.486 -1.0309  0.6470 -0.0248
18415TIP3   OH276659   2.784   5.750  14.844  0.4732  0.2650  0.7027
18415TIP3    H176660   2.833   5.799  14.778 -0.3805  1.1117  0.6816
18415TIP3    H276661   2.831   5.765  14.925  1.8309 -1.2034  0.2293
18416TIP3   OH276662   3.369   2.873  15.366 -0.6644  0.0299  0.0382
18416TIP3    H176663   3.450   2.923  15.358  1.4881 -2.9519  1.4861
18416TIP3    H276664   3.319   2.919  15.435  0.2016  1.3650 -0.1939
18417TIP3   OH276665   6.234   5.594   0.063  0.0166  0.1568 -0.0245
18417TIP3    H176666   6.308   5.539   0.086 -1.2076 -1.4413  0.2828
18417TIP3    H276667   6.166   5.571   0.127 -1.0705  0.8683 -0.8744
18418TIP3   OH276668   3.870   2.347   4.580 -0.0411  0.4987  0.4181
18418TIP3    H176669   3.919   2.418   4.620 -0.3761  2.1403 -1.8333
18418TIP3    H276670   3.778   2.366   4.602 -0.4062  2.3435 -2.1836
18419TIP3   OH276671   4.388   4.179  11.075 -0.1313 -0.0974  0.0321
18419TIP3    H176672   4.374   4.273  11.071 -0.4692 -0.1613 -0.4643
18419TIP3    H276673   4.401   4.160  11.168  0.7128  0.5355  0.0499
18420TIP3   OH276674   6.143   3.527   3.323  0.7219 -0.2426 -0.1388
18420TIP3    H176675   6.235   3.507   3.306  0.7671  0.2787 -0.5672
18420TIP3    H276676   6.138   3.541   3.417  1.3961  1.1638 -0.2793
18421TIP3   OH276677   5.694   5.851   0.033 -0.0106 -0.1202 -0.2680
18421TIP3    H176678   5.674   5.925  -0.026  0.6660  0.3254  0.0447
18421TIP3    H276679   5.608   5.819   0.060 -0.3444 -0.4421 -1.6241
18422TIP3   OH276680   1.428   0.243  11.949 -0.1170 -0.1943  0.1024
18422TIP3    H176681   1.521   0.248  11.928 -0.1179  1.2318  0.3162
18422TIP3    H276682   1.386   0.299  11.883 -0.6654  0.2549  0.8171
18423TIP3   OH276683   1.731   5.074   1.122 -0.0054  0.4839  0.3719
18423TIP3    H176684   1.684   5.006   1.169  1.7387  0.3335  1.9942
18423TIP3    H276685   1.663   5.138   1.099 -0.9437  0.7107  3.3845
18424TIP3   OH276686   4.906   4.881  12.816 -0.2795 -0.0996 -0.2700
18424TIP3    H176687   4.940   4.896  12.728  1.6165 -0.7304  0.3159
18424TIP3    H276688   4.848   4.955  12.832 -0.5534  0.0975 -1.9805
18425TIP3   OH276689   3.833   4.825  13.191 -0.9557 -0.0727 -0.3637
18425TIP3    H176690   3.769   4.811  13.261 -1.3619 -1.3836 -0.9589
18425TIP3    H276691   3.782   4.824  13.110 -0.3741  0.4378 -0.7508
18426TIP3   OH276692   3.566   4.422   0.410 -0.4858  0.5517  0.0879
18426TIP3    H176693   3.489   4.472   0.436  0.3472  1.2815  1.2062
18426TIP3    H276694   3.614   4.407   0.491  1.2840  1.3532 -0.7731
18427TIP3   OH276695   2.152   1.149  10.994  0.0247  0.2757  0.3798
18427TIP3    H176696   2.211   1.171  11.066 -1.3573 -1.0425  2.0083
18427TIP3    H276697   2.096   1.226  10.986  0.4823  0.6140  0.4066
18428TIP3   OH276698   0.671   2.663   2.501 -0.2162 -0.3425 -0.1614
18428TIP3    H176699   0.579   2.681   2.522  0.0810  1.5854 -0.3101
18428TIP3    H276700   0.688   2.714   2.422  1.6643  1.6303  1.3918
18429TIP3   OH276701   1.722   3.790   4.720  0.5082 -0.0964  0.4677
18429TIP3    H176702   1.712   3.815   4.628  1.4474 -2.6594 -0.4263
18429TIP3    H276703   1.634   3.796   4.757  0.4086  2.7620 -0.0249
18430TIP3   OH276704   4.051   5.567   2.633 -0.0514 -0.1335 -0.3598
18430TIP3    H176705   3.996   5.641   2.609  0.9277  0.6093 -0.3717
18430TIP3    H276706   4.134   5.606   2.660  0.1845 -1.1755  0.5052
18431TIP3   OH276707   0.035   0.164  16.925  0.1908 -0.2507 -0.3742
18431TIP3    H176708  -0.030   0.218  16.879 -1.2871 -0.8889  0.8834
18431TIP3    H276709   0.033   0.080  16.879  2.6673  0.7098 -2.4853
18432TIP3   OH276710   2.432   3.648   0.094  0.0508 -0.0135  0.1217
18432TIP3    H176711   2.471   3.590   0.158  2.4320  0.0581 -1.1510
18432TIP3    H276712   2.453   3.736   0.125  2.0173  0.0151 -1.1192
18433TIP3   OH276713   6.426   1.237  12.338  0.4759 -0.2036  0.2071
18433TIP3    H176714   6.353   1.292  12.364 -0.4168 -1.7764  1.2301
18433TIP3    H276715   6.478   1.227  12.418  0.1649 -1.4666  0.2754
18434TIP3   OH276716   2.713   5.744  12.951 -0.0435 -0.1194 -0.7727
18434TIP3    H176717   2.661   5.795  12.890  0.1263  0.2606 -0.6074
18434TIP3    H276718   2.675   5.763  13.037 -0.7461 -1.2215 -0.8257
18435TIP3   OH276719   1.967   0.409  11.789 -0.1935  0.4691 -0.4245
18435TIP3    H176720   2.013   0.485  11.825  0.1390  0.6156 -1.1537
18435TIP3    H276721   1.962   0.348  11.863 -1.4370  1.6159  0.4865
18436TIP3   OH276722   3.681   2.063   4.207  0.1025  0.0532 -0.4955
18436TIP3    H176723   3.635   2.084   4.125  0.6438 -1.4530 -1.2371
18436TIP3    H276724   3.613   2.065   4.274 -0.7143 -0.3872 -1.2817
18437TIP3   OH276725   5.487   1.948   1.694  0.1269  0.6693 -0.7515
18437TIP3    H176726   5.473   2.036   1.658 -0.2525  1.2096  0.6571
18437TIP3    H276727   5.485   1.960   1.789  3.1775 -0.3621 -0.4368
18438TIP3   OH276728   2.023   1.027   2.387 -0.0529 -0.0265 -0.4277
18438TIP3    H176729   1.984   1.005   2.471 -0.0172  0.5267 -0.2618
18438TIP3    H276730   2.109   1.062   2.410  0.1348 -0.2871 -0.7257
18439TIP3   OH276731   3.977   3.930  15.041 -0.0430  0.5942  0.3571
18439TIP3    H176732   4.016   3.889  15.117  0.2625 -0.9972 -0.6153
18439TIP3    H276733   3.887   3.897  15.038  0.7288 -1.5898 -1.4478
18440TIP3   OH276734   0.538   4.627  14.699  0.0389  0.3541  0.3865
18440TIP3    H176735   0.458   4.619  14.647 -0.3016  1.2642  0.7539
18440TIP3    H276736   0.597   4.679  14.646  0.7163 -0.9948 -0.2351
18441TIP3   OH276737   1.128   3.545   3.682 -0.2288 -0.4695  0.3913
18441TIP3    H176738   1.112   3.624   3.733 -2.2155 -0.6004  0.0878
18441TIP3    H276739   1.077   3.558   3.602 -0.8336 -2.1328  0.4576
18442TIP3   OH276740   1.470   3.743  14.649 -0.8066 -0.2822  0.0321
18442TIP3    H176741   1.489   3.818  14.705  0.1261 -0.2722 -0.2939
18442TIP3    H276742   1.541   3.681  14.668 -1.2354 -0.8337 -0.1491
18443TIP3   OH276743   6.232   1.070  16.544 -0.0657  0.5922  0.1442
18443TIP3    H176744   6.218   1.045  16.453  1.0193 -0.1343  0.1593
18443TIP3    H276745   6.148   1.056  16.586  0.2117 -2.3571 -0.0301
18444TIP3   OH276746   5.018   1.002  16.588 -0.2258  0.2219 -0.3935
18444TIP3    H176747   4.965   0.985  16.666 -0.4021 -0.9173 -0.7394
18444TIP3    H276748   5.092   0.941  16.596 -0.3474 -0.0477 -1.2035
18445TIP3   OH276749   0.289   4.582   1.950  0.1197  0.0009  0.0648
18445TIP3    H176750   0.355   4.513   1.943  0.2234 -0.3078  2.8630
18445TIP3    H276751   0.206   4.534   1.958 -0.0160  0.2557  0.1830
18446TIP3   OH276752   1.284   1.976   0.359  0.6476 -0.2714 -0.0230
18446TIP3    H176753   1.223   2.044   0.330  0.1628 -0.5903  0.2364
18446TIP3    H276754   1.307   2.000   0.449 -0.4886 -1.0978  0.5173
18447TIP3   OH276755   0.062   0.753  16.451 -0.3542 -0.0204 -0.6823
18447TIP3    H176756   0.028   0.663  16.445  1.2500 -0.5947 -1.8619
18447TIP3    H276757   0.049   0.789  16.364  0.8386  0.1638 -0.8074
18448TIP3   OH276758   0.862   6.425  15.803  0.0434 -0.1131 -0.2963
18448TIP3    H176759   0.914   6.370  15.744 -0.6645 -0.5716 -0.4945
18448TIP3    H276760   0.771   6.402  15.784 -0.1827 -0.8281  1.4872
18449TIP3   OH276761   6.776   6.043   5.543  0.4134 -0.3001  0.2931
18449TIP3    H176762   6.845   6.105   5.520  1.1633 -1.7266 -1.5794
18449TIP3    H276763   6.728   6.029   5.462 -0.2397 -1.5401  0.8628
18450TIP3   OH276764   0.313   1.411   1.394 -0.2904 -0.1278  1.1389
18450TIP3    H176765   0.240   1.407   1.456  0.8627 -1.2506  2.4887
18450TIP3    H276766   0.314   1.325   1.352  0.4058 -0.2177  1.3241
18451TIP3   OH276767   6.107   5.399  10.803  0.1036 -0.2983  0.7752
18451TIP3    H176768   6.094   5.432  10.714  1.9642  0.1991  0.6395
18451TIP3    H276769   6.020   5.400  10.843 -0.7455 -0.4380 -1.0001
18452TIP3   OH276770   4.241   5.178  11.136 -0.0489  0.2841  0.3113
18452TIP3    H176771   4.271   5.219  11.217  1.1636  0.7177 -0.3264
18452TIP3    H276772   4.204   5.250  11.085 -1.4974 -0.1169  0.7725
18453TIP3   OH276773   2.274   5.047  11.032  0.1925 -0.1600 -0.0386
18453TIP3    H176774   2.268   5.132  11.076  0.7488  0.2940 -0.8147
18453TIP3    H276775   2.355   5.051  10.982  0.8000 -1.5716  0.7698
18454TIP3   OH276776   4.741   3.943  14.897 -0.0604 -0.2012 -0.0976
18454TIP3    H176777   4.671   3.976  14.953 -0.4720 -0.6036 -0.3725
18454TIP3    H276778   4.697   3.907  14.821  0.3436 -1.5820  0.2818
18455TIP3   OH276779   5.498   1.170  16.083 -0.1390 -0.4301  0.4512
18455TIP3    H176780   5.487   1.264  16.102  0.2481 -0.3586  0.3290
18455TIP3    H276781   5.456   1.126  16.157 -2.3255 -0.2013 -0.5507
18456TIP3   OH276782   1.155   0.514  13.349 -0.2675 -0.4758  0.2776
18456TIP3    H176783   1.105   0.552  13.277 -2.1127 -2.5376  0.3516
18456TIP3    H276784   1.233   0.477  13.308  0.1325  0.8630 -0.1961
18457TIP3   OH276785   0.071   6.474   7.003  0.4882 -0.8111  0.6558
18457TIP3    H176786   0.105   6.546   6.950 -1.8688 -0.0737 -0.0132
18457TIP3    H276787   0.043   6.514   7.085 -3.7434 -0.1191 -0.8641
18458TIP3   OH276788   6.476   1.372  14.083 -0.0996  0.8690 -0.7514
18458TIP3    H176789   6.540   1.390  14.014  0.7104 -0.2130 -0.3158
18458TIP3    H276790   6.514   1.411  14.161 -0.3309  0.8570 -0.6319
18459TIP3   OH276791   5.313   0.136   4.366  0.1516 -0.1055 -0.3014
18459TIP3    H176792   5.371   0.211   4.379 -0.9190  0.4464  1.7478
18459TIP3    H276793   5.357   0.064   4.410  0.3909 -0.2847 -0.8252
18460TIP3   OH276794   1.440   3.797   1.626  0.9051 -0.3957  0.1770
18460TIP3    H176795   1.482   3.811   1.541 -0.0283 -0.7360 -0.3548
18460TIP3    H276796   1.439   3.702   1.638 -1.4362 -0.5623 -0.7622
18461TIP3   OH276797   2.202   6.512  13.293  0.3485 -0.0639  0.0461
18461TIP3    H176798   2.146   6.579  13.254  1.0358 -0.3904 -1.5848
18461TIP3    H276799   2.142   6.441  13.316 -0.1227  0.2511 -0.1905
18462TIP3   OH276800   2.694   1.527  11.505  0.2877 -0.2749  0.1165
18462TIP3    H176801   2.634   1.478  11.561 -0.0599  0.6359  0.5515
18462TIP3    H276802   2.660   1.617  11.505  0.5510 -0.1509 -1.1711
18463TIP3   OH276803   4.703   4.191  16.215 -0.0166 -0.0057 -0.3253
18463TIP3    H176804   4.676   4.278  16.185 -0.1849  0.1296  0.2010
18463TIP3    H276805   4.688   4.193  16.310  1.4032 -0.0997 -0.0900
18464TIP3   OH276806   2.533   6.762  15.921  0.2952 -0.1578  0.2344
18464TIP3    H176807   2.478   6.750  15.998  0.7528  0.6691  0.7098
18464TIP3    H276808   2.510   6.690  15.862 -2.1764  0.8200 -0.1204
18465TIP3   OH276809   3.972   2.958   1.630 -0.3604 -0.3344  0.8108
18465TIP3    H176810   3.952   2.921   1.716  1.0706 -1.4636  0.6984
18465TIP3    H276811   3.931   2.898   1.568 -0.4032 -0.1694  0.6784
18466TIP3   OH276812   2.091   4.107  12.186  0.0338 -0.2524 -0.2487
18466TIP3    H176813   2.030   4.039  12.212 -0.7486  0.1942 -0.8746
18466TIP3    H276814   2.056   4.187  12.225 -0.1306  0.1078 -1.1010
18467TIP3   OH276815   0.869   0.165  11.166  0.3614  0.1820  0.5004
18467TIP3    H176816   0.826   0.237  11.120  1.2732  1.3685  1.4310
18467TIP3    H276817   0.846   0.087  11.116 -1.0127  1.0577 -0.2943
18468TIP3   OH276818   6.058   1.673  16.232 -0.5252 -0.0698 -0.2669
18468TIP3    H176819   6.101   1.754  16.257  0.1717 -0.4057 -0.3417
18468TIP3    H276820   6.080   1.611  16.302 -0.0734 -0.5100 -0.7897
18469TIP3   OH276821   5.364   6.459   0.778  0.3992 -0.0821 -0.1223
18469TIP3    H176822   5.457   6.482   0.786  0.0630  1.3964 -0.3141
18469TIP3    H276823   5.356   6.425   0.689  0.9195 -1.0780  0.1962
18470TIP3   OH276824   3.096   3.501  15.220  0.5821  0.8278 -0.4004
18470TIP3    H176825   3.185   3.493  15.252  0.3441  0.1882  0.1156
18470TIP3    H276826   3.094   3.449  15.140  0.8554  1.4413 -0.8168
18471TIP3   OH276827   5.109   3.395  16.559  0.0041 -0.0898 -0.0885
18471TIP3    H176828   5.186   3.341  16.539 -0.1771 -0.5298  0.3609
18471TIP3    H276829   5.051   3.336  16.607  0.3781  0.8868  1.6365
18472TIP3   OH276830   5.407   0.304   0.883 -0.4266  0.2047  0.4038
18472TIP3    H176831   5.485   0.279   0.833  0.5930 -0.8226  2.3878
18472TIP3    H276832   5.441   0.346   0.961 -1.9438  0.9044  0.7258
18473TIP3   OH276833   0.727   1.233   5.537 -0.4360 -0.0959 -0.5087
18473TIP3    H176834   0.789   1.289   5.491  0.2207  0.6171  1.1729
18473TIP3    H276835   0.735   1.147   5.494  0.8776  0.2798 -1.0561
18474TIP3   OH276836   2.989   3.363  11.281  0.1244 -0.2163 -0.1161
18474TIP3    H176837   3.050   3.290  11.278  0.7019  0.1785  1.0627
18474TIP3    H276838   2.905   3.325  11.258  0.6056 -1.0124 -0.6218
18475TIP3   OH276839   4.873   4.071  11.449  0.2299 -0.0974  0.3027
18475TIP3    H176840   4.924   4.147  11.422 -0.6828  0.6688  0.7033
18475TIP3    H276841   4.827   4.099  11.528  0.3366 -1.2554  0.8064
18476TIP3   OH276842   4.021   6.435  17.071 -0.4436 -0.4358  0.4299
18476TIP3    H176843   4.026   6.500  17.002 -1.0598 -1.9979 -1.1502
18476TIP3    H276844   3.935   6.449  17.112 -0.0188  0.5771  1.0208
18477TIP3   OH276845   4.997   4.460  16.998  0.1656 -0.3215  0.4389
18477TIP3    H176846   5.067   4.409  16.958  1.0259 -0.1393  1.6524
18477TIP3    H276847   4.919   4.438  16.947  1.4687  1.2149 -2.4831
18478TIP3   OH276848   1.411   2.982   2.895 -0.0295 -0.0360  0.0714
18478TIP3    H176849   1.501   2.973   2.924 -0.0378 -2.0062 -0.3618
18478TIP3    H276850   1.375   2.894   2.902 -1.9564  0.7213  0.3067
18479TIP3   OH276851   0.988   3.941  14.737 -0.1372 -0.0514 -0.4028
18479TIP3    H176852   1.049   4.012  14.719 -1.6758  1.4797  0.1559
18479TIP3    H276853   0.994   3.927  14.831  1.1813 -1.6959 -0.6825
18480TIP3   OH276854   6.130   3.120  11.392  0.5252  0.3221  0.5278
18480TIP3    H176855   6.115   3.186  11.459  0.5984 -0.0275  0.8904
18480TIP3    H276856   6.206   3.071  11.423  1.7296  1.3285 -0.7070
18481TIP3   OH276857   4.643   4.597   1.329  0.0039 -0.2956 -0.6132
18481TIP3    H176858   4.553   4.588   1.298  0.6423 -0.6863 -2.4542
18481TIP3    H276859   4.671   4.508   1.350 -0.7846  0.0412  2.4261
18482TIP3   OH276860   3.399   0.477   1.816 -0.4432 -0.1072  0.2863
18482TIP3    H176861   3.324   0.511   1.768 -0.5725  2.5919  2.1939
18482TIP3    H276862   3.399   0.524   1.899  3.4197  0.1573  0.3373
18483TIP3   OH276863   6.650   2.798  10.448 -0.0091 -0.3656  0.0026
18483TIP3    H176864   6.643   2.891  10.468 -0.3934 -0.2873 -0.4600
18483TIP3    H276865   6.701   2.795  10.367 -1.4490 -0.4341 -0.9334
18484TIP3   OH276866   0.651   3.919  14.694 -0.5825 -1.1760  0.4121
18484TIP3    H176867   0.627   3.828  14.708 -1.0365 -0.7598  2.7842
18484TIP3    H276868   0.745   3.917  14.674 -0.5553 -2.1417  0.6189
18485TIP3   OH276869   5.444   6.577  13.701 -0.4129 -0.1655  0.4300
18485TIP3    H176870   5.432   6.541  13.788  0.9866  0.9579  1.1374
18485TIP3    H276871   5.505   6.517  13.658  0.3280  0.2335  0.8929
18486TIP3   OH276872   0.867   0.535   5.240  0.2184  0.0630  0.0978
18486TIP3    H176873   0.900   0.607   5.294  2.5298 -0.0429 -1.0454
18486TIP3    H276874   0.819   0.578   5.170  1.9114  0.5871 -0.7967
18487TIP3   OH276875   2.425   0.035   4.428  0.1625  0.3808 -0.0239
18487TIP3    H176876   2.389   0.047   4.340 -1.1256 -0.0552  0.4181
18487TIP3    H276877   2.351   0.053   4.487  0.9747  0.5565  0.9652
18488TIP3   OH276878   4.709   1.606  16.260  0.3426 -0.5282  0.3193
18488TIP3    H176879   4.687   1.622  16.352  2.0831 -0.3903  0.7525
18488TIP3    H276880   4.707   1.511  16.251  1.5312 -0.6317  0.9032
18489TIP3   OH276881   5.808   0.793  15.953  0.1916 -0.2379  0.4516
18489TIP3    H176882   5.790   0.880  15.990 -2.2133 -0.1942 -0.5844
18489TIP3    H276883   5.840   0.811  15.865 -1.4119 -0.3597 -0.1866
18490TIP3   OH276884   0.738   4.376   6.386 -0.2589  0.1564 -0.1376
18490TIP3    H176885   0.658   4.422   6.413 -0.8142 -0.9350  0.1337
18490TIP3    H276886   0.711   4.285   6.378  0.9427 -0.2057 -0.1789
18491TIP3   OH276887   5.941   0.750   1.586  0.0774  0.1079 -0.3151
18491TIP3    H176888   5.910   0.747   1.677 -0.6659  0.3029 -0.5576
18491TIP3    H276889   5.872   0.708   1.535  0.4530  0.0706 -0.8016
18492TIP3   OH276890   3.429   2.012  15.420 -0.1087 -0.0795 -0.5219
18492TIP3    H176891   3.445   1.920  15.397  1.4313  0.5241 -2.1477
18492TIP3    H276892   3.353   2.037  15.367 -2.6890 -1.2130  2.3757
18493TIP3   OH276893   3.726   3.810   5.023  0.2629  0.4145 -0.7762
18493TIP3    H176894   3.728   3.775   4.933  2.3282 -1.6978 -0.0104
18493TIP3    H276895   3.703   3.734   5.077  1.6744  0.9858  0.6911
18494TIP3   OH276896   5.595   5.421  13.893  0.5317 -0.0586  0.0109
18494TIP3    H176897   5.527   5.359  13.865 -0.2555  0.6789  0.2485
18494TIP3    H276898   5.658   5.420  13.821  0.7921 -1.4957  0.2298
18495TIP3   OH276899   4.230   2.301   2.075  0.4376 -0.1200  0.2223
18495TIP3    H176900   4.209   2.321   2.166  0.3767  0.6502  0.0481
18495TIP3    H276901   4.187   2.371   2.025  1.1435 -0.0799 -0.3381
18496TIP3   OH276902   5.633   6.357  13.591  0.1505  0.2254  0.1805
18496TIP3    H176903   5.659   6.274  13.552 -0.0795  0.6108 -0.8468
18496TIP3    H276904   5.539   6.347  13.609 -0.5482  1.1228 -2.4462
18497TIP3   OH276905   2.727   5.596  13.703 -0.1424 -0.1486  0.1678
18497TIP3    H176906   2.651   5.654  13.696  0.3462  0.5676  0.6202
18497TIP3    H276907   2.761   5.612  13.791  0.3004 -0.7540  0.1097
18498TIP3   OH276908   6.275   1.161  14.639  0.4375  0.0748 -0.3552
18498TIP3    H176909   6.337   1.094  14.669 -0.3912 -1.1574 -1.2885
18498TIP3    H276910   6.207   1.162  14.706 -0.3687 -1.2123 -1.1076
18499TIP3   OH276911   0.573   1.478  13.378 -0.0018 -0.0053 -0.0962
18499TIP3    H176912   0.483   1.451  13.358  0.3196  0.2414 -2.0747
18499TIP3    H276913   0.590   1.442  13.465 -1.1468 -2.2306 -0.7117
18500TIP3   OH276914   3.978   1.320  11.469 -0.3576  0.0765 -0.1571
18500TIP3    H176915   4.007   1.229  11.457 -0.3150  0.0277  0.2882
18500TIP3    H276916   3.903   1.313  11.529 -0.3348  0.3347 -0.0986
18501TIP3   OH276917   4.003   4.500   5.705  0.5423  0.4368  0.1887
18501TIP3    H176918   3.957   4.514   5.787  1.4346 -0.7728  0.9408
18501TIP3    H276919   4.076   4.562   5.708  0.8673  0.0392  0.5508
18502TIP3   OH276920   5.759   3.921   3.186  0.3976 -0.0756 -0.1486
18502TIP3    H176921   5.667   3.931   3.163  0.3980 -0.3310 -0.2611
18502TIP3    H276922   5.803   3.992   3.139  0.4059 -0.6292 -0.9913
18503TIP3   OH276923   5.837   3.244  11.096 -0.5849  0.1119 -0.0410
18503TIP3    H176924   5.818   3.295  11.017 -0.6846  0.6486  0.3237
18503TIP3    H276925   5.759   3.192  11.111  0.1891 -1.5690 -1.4651
18504TIP3   OH276926   1.528   2.646   2.747 -0.4153  0.7837  0.5468
18504TIP3    H176927   1.564   2.734   2.755 -0.5670  1.2846 -2.8220
18504TIP3    H276928   1.598   2.595   2.707 -1.7837  0.5814 -1.7305
18505TIP3   OH276929   5.784   4.087  11.336 -0.3873  0.5842  0.0514
18505TIP3    H176930   5.841   4.163  11.324 -0.0144  0.3192  0.1677
18505TIP3    H276931   5.829   4.032  11.401 -0.3977  0.0030 -0.4287
18506TIP3   OH276932   3.710   5.361  11.105 -0.0738  1.0778 -0.3691
18506TIP3    H176933   3.756   5.355  11.021  1.3776  0.5722  0.4515
18506TIP3    H276934   3.681   5.452  11.109 -2.4225  0.5700 -2.5420
18507TIP3   OH276935   0.919   3.370  11.740  0.4042  0.9828  0.0709
18507TIP3    H176936   0.852   3.420  11.787  1.4579  2.5923 -0.0535
18507TIP3    H276937   0.953   3.431  11.675  1.5256 -0.0282 -0.3266
18508TIP3   OH276938   1.848   5.556  14.470 -0.0852 -0.2875 -0.2145
18508TIP3    H176939   1.925   5.550  14.526  0.2343  0.7563 -0.5051
18508TIP3    H276940   1.882   5.590  14.387 -1.1770  2.8904  0.5003
18509TIP3   OH276941   1.675   0.667  12.406 -0.2150  0.2727  0.1914
18509TIP3    H176942   1.632   0.743  12.366  0.6559  0.8385  0.3008
18509TIP3    H276943   1.742   0.641  12.342 -0.5217 -0.4184  0.1469
18510TIP3   OH276944   0.458   0.578  13.669  0.1617  0.0402 -0.5354
18510TIP3    H176945   0.415   0.643  13.613  0.8726  0.8111 -0.2016
18510TIP3    H276946   0.551   0.597  13.662  0.2933 -0.0480  0.6627
18511TIP3   OH276947   5.288   4.284  11.820  0.3126  0.2211 -0.4863
18511TIP3    H176948   5.269   4.260  11.911  1.4191  0.0264 -0.2948
18511TIP3    H276949   5.238   4.221  11.768  0.1329 -0.0396 -0.0108
18512TIP3   OH276950   3.076   2.985  11.432  0.4300  0.1097  0.2375
18512TIP3    H176951   3.108   3.065  11.474  1.7268  0.0041 -0.5149
18512TIP3    H276952   3.039   3.015  11.349 -0.8989  0.1500  0.8200
18513TIP3   OH276953   6.782   0.537  16.187  0.1599  0.0866  0.1997
18513TIP3    H176954   6.793   0.475  16.260  0.0297  1.1593  1.1625
18513TIP3    H276955   6.860   0.526  16.133 -0.1023 -1.2680  0.0760
18514TIP3   OH276956   4.941   6.459  12.164  0.2172 -0.1882  0.0336
18514TIP3    H176957   4.926   6.549  12.193  1.9283  0.0289  0.3329
18514TIP3    H276958   4.976   6.468  12.075 -1.4664 -0.6801 -0.7182
18515TIP3   OH276959   1.517   4.469   0.659  0.0237 -0.0844 -0.0198
18515TIP3    H176960   1.590   4.510   0.613  0.2172 -0.6790 -0.2516
18515TIP3    H276961   1.555   4.439   0.742 -0.7978  2.9751  1.6282
18516TIP3   OH276962   6.200   3.797  15.404  0.3978  0.0692 -0.0106
18516TIP3    H176963   6.150   3.804  15.485 -0.4739 -1.7887 -0.3452
18516TIP3    H276964   6.285   3.763  15.432 -0.3306 -1.8269  0.0420
18517TIP3   OH276965   4.288   1.314   5.242  0.3220 -0.1115 -0.4838
18517TIP3    H176966   4.302   1.381   5.175  0.1357  2.0857  1.5395
18517TIP3    H276967   4.372   1.308   5.287 -0.2085  0.2340  0.5834
18518TIP3   OH276968   6.525   5.565  15.688 -0.1447 -0.1675  0.3940
18518TIP3    H176969   6.538   5.562  15.782  1.8169  0.0531  0.1663
18518TIP3    H276970   6.556   5.652  15.662  0.1401 -0.5354 -0.5437
18519TIP3   OH276971   1.273   4.447  16.130 -0.7437  0.2941 -0.3646
18519TIP3    H176972   1.269   4.384  16.202  0.1555 -0.8657 -1.2736
18519TIP3    H276973   1.275   4.532  16.172  1.8348 -0.4027  1.1319
18520TIP3   OH276974   3.200   2.507  11.214 -0.4436  0.0990 -0.6948
18520TIP3    H176975   3.156   2.478  11.135 -0.7906  0.5906 -0.6822
18520TIP3    H276976   3.197   2.603  11.210 -0.8334  0.1263  0.1149
18521TIP3   OH276977   2.843   3.295  16.186  0.0624 -0.2666  0.2355
18521TIP3    H176978   2.894   3.281  16.106 -0.5249 -1.3862  0.0343
18521TIP3    H276979   2.898   3.261  16.256 -0.7023 -2.2935 -0.0760
18522TIP3   OH276980   1.496   0.770   1.022  0.3777 -0.3791 -0.4269
18522TIP3    H176981   1.577   0.744   1.065 -0.3103  0.5208  1.4853
18522TIP3    H276982   1.439   0.800   1.092 -1.3584 -0.2578 -1.8050
18523TIP3   OH276983   4.390   0.611  14.881  0.1138 -0.9651 -0.5728
18523TIP3    H176984   4.366   0.521  14.857 -1.3394 -1.1463  1.3077
18523TIP3    H276985   4.484   0.607  14.898  0.0482 -2.1710 -0.3923
18524TIP3   OH276986   0.340   3.273  16.871  0.3355 -0.2438 -0.3776
18524TIP3    H176987   0.363   3.227  16.789 -0.0326 -1.2402  0.0601
18524TIP3    H276988   0.391   3.227  16.938  0.2607  0.2552  0.0212
18525TIP3   OH276989   6.795   3.141   5.057  0.1384  0.6405 -0.4635
18525TIP3    H176990   6.885   3.121   5.080  0.8751  2.1986 -1.8254
18525TIP3    H276991   6.801   3.201   4.983 -2.0036  1.1928 -0.2726
18526TIP3   OH276992   2.429   5.892   4.984 -0.5213  0.3199 -0.3853
18526TIP3    H176993   2.361   5.875   4.920 -1.3817 -0.1818  0.6293
18526TIP3    H276994   2.498   5.829   4.964 -0.7442  0.2316 -0.8700
18527TIP3   OH276995   1.920   6.688   6.496 -0.4495  0.2022  0.3475
18527TIP3    H176996   1.927   6.602   6.537  1.8909 -0.7047 -1.7186
18527TIP3    H276997   1.845   6.680   6.436 -1.0558  0.0672  1.1078
18528TIP3   OH276998   2.444   2.213   1.484  0.4891  0.2150 -0.7907
18528TIP3    H176999   2.537   2.196   1.502  0.6579  2.4582  0.9223
18528TIP3    H277000   2.403   2.210   1.571 -1.0045 -0.3804 -1.4911
18529TIP3   OH277001   1.430   4.455  11.606 -0.2779  0.3785 -0.0627
18529TIP3    H177002   1.486   4.529  11.630  0.1420  0.1926 -0.4421
18529TIP3    H277003   1.463   4.427  11.520 -0.8191  0.1288 -0.1950
18530TIP3   OH277004   4.540   2.372   0.523  0.2862  0.4216  0.4137
18530TIP3    H177005   4.558   2.281   0.545 -0.1418  0.7971  2.4697
18530TIP3    H277006   4.445   2.380   0.529  0.4841  1.5850  2.8946
18531TIP3   OH277007   5.554   5.543  11.223 -0.2772 -0.5216  0.5429
18531TIP3    H177008   5.621   5.524  11.158 -1.5008 -1.4095 -0.4968
18531TIP3    H277009   5.551   5.465  11.278 -3.1507 -2.3078 -1.8521
18532TIP3   OH277010   5.245   2.062   0.593  0.2544 -0.1106  0.6176
18532TIP3    H177011   5.259   2.151   0.559  0.7777 -0.2593  0.4206
18532TIP3    H277012   5.195   2.018   0.525  1.7432 -0.5618 -0.2453
18533TIP3   OH277013   1.220   1.962  11.252 -0.1283 -0.1368 -0.2146
18533TIP3    H177014   1.179   1.948  11.337  0.4066 -1.9175 -0.2158
18533TIP3    H277015   1.263   1.879  11.232 -0.1523  0.2837 -2.1841
18534TIP3   OH277016   4.079   2.587  13.628  0.3959 -0.1659 -0.3097
18534TIP3    H177017   4.052   2.678  13.638  0.7289 -0.0730 -0.2454
18534TIP3    H277018   4.003   2.543  13.591 -0.5202 -0.2877  1.5900
18535TIP3   OH277019   1.434   1.191   3.305 -0.2484  0.0213 -0.0932
18535TIP3    H177020   1.379   1.114   3.291 -0.4512  0.3136 -0.9639
18535TIP3    H277021   1.423   1.212   3.398 -3.8954  1.7715 -0.7497
18536TIP3   OH277022   3.217   1.687  14.161 -0.5341 -0.1906  0.4543
18536TIP3    H177023   3.255   1.710  14.076 -0.8458 -0.0554  0.3481
18536TIP3    H277024   3.255   1.602  14.182  2.0859  1.1756  1.7259
18537TIP3   OH277025   0.593   0.927  14.207  0.7305 -0.5937 -0.5315
18537TIP3    H177026   0.647   0.848  14.218 -1.6867 -2.2047  0.5976
18537TIP3    H277027   0.633   0.991  14.265  0.8141 -2.0995  1.1755
18538TIP3   OH277028   1.130   3.187   3.266 -0.3876 -0.0024  0.1064
18538TIP3    H177029   1.070   3.128   3.221  2.1573 -2.1635 -0.7612
18538TIP3    H277030   1.211   3.182   3.215  0.9376  1.7893  1.8595
18539TIP3   OH277031   0.167   4.755   4.044  0.3712  0.2328 -0.9058
18539TIP3    H177032   0.171   4.759   4.140  0.0309  1.4376 -0.9222
18539TIP3    H277033   0.103   4.686   4.026  0.6584 -0.2098 -0.2695
18540TIP3   OH277034   4.279   4.537  15.647 -0.5637  0.2809  0.0200
18540TIP3    H177035   4.196   4.489  15.654 -0.0923 -0.5656 -0.0521
18540TIP3    H277036   4.340   4.487  15.701 -0.4830  1.8059  1.3872
18541TIP3   OH277037   2.712   5.115   1.892  0.2292  0.1074 -0.1935
18541TIP3    H177038   2.789   5.134   1.839  0.1033 -0.7631 -0.7104
18541TIP3    H277039   2.744   5.057   1.961  0.3298  0.9871  0.5186
18542TIP3   OH277040   5.239   0.398  15.570 -0.5760  0.3709 -0.6483
18542TIP3    H177041   5.288   0.481  15.562 -1.3247  1.0409  1.1117
18542TIP3    H277042   5.150   0.425  15.591 -0.7103 -0.8898  0.5124
18543TIP3   OH277043   4.547   1.991  15.233 -0.1653  0.4513  0.0054
18543TIP3    H177044   4.548   1.997  15.138 -1.3885  1.6887  0.0374
18543TIP3    H277045   4.460   2.021  15.258  0.2329  0.4257  1.5306
18544TIP3   OH277046   1.906   2.603  14.565  0.1031  0.1958 -0.3995
18544TIP3    H177047   1.840   2.607  14.496 -0.6721 -0.7720  0.2541
18544TIP3    H277048   1.988   2.588  14.519  0.0806  2.5679 -1.3132
18545TIP3   OH277049   4.205   1.499   1.366 -0.4165  0.2271  0.1675
18545TIP3    H177050   4.190   1.412   1.403  1.2568 -0.1415  0.0965
18545TIP3    H277051   4.241   1.482   1.278  0.5639  0.9466  0.4070
18546TIP3   OH277052   0.663   5.801   2.924  0.3244  0.8427  0.2982
18546TIP3    H177053   0.697   5.857   2.994 -0.0802  0.9386  0.4223
18546TIP3    H277054   0.676   5.851   2.844 -0.9365  1.5540  0.5087
18547TIP3   OH277055   1.907   3.245  16.077 -0.6791  0.0689 -0.9992
18547TIP3    H177056   1.993   3.223  16.111 -0.2353  2.3778 -0.4697
18547TIP3    H277057   1.846   3.190  16.127  0.2062  1.0686  1.3109
18548TIP3   OH277058   1.543   1.912  13.091  0.0749  0.3172  0.2567
18548TIP3    H177059   1.616   1.849  13.085  1.5318  1.9615 -0.0940
18548TIP3    H277060   1.510   1.902  13.180  1.3948  0.2239  0.7558
18549TIP3   OH277061   2.893   5.106  11.207 -0.3444  0.1063 -0.5144
18549TIP3    H177062   2.813   5.094  11.259  0.1295 -0.7766  0.0195
18549TIP3    H277063   2.960   5.130  11.270  0.2738 -1.1276 -0.6698
18550TIP3   OH277064   3.804   5.107   3.975  0.1697  0.2004 -0.1754
18550TIP3    H177065   3.724   5.157   3.987  0.1631  0.2425 -0.3842
18550TIP3    H277066   3.846   5.107   4.061 -1.0513 -1.5629  0.4600
18551TIP3   OH277067   5.588   3.359   4.771  0.0293  0.4026  0.1717
18551TIP3    H177068   5.540   3.307   4.835  0.9181  1.5941  1.8687
18551TIP3    H277069   5.650   3.297   4.732  1.6376  0.2593  2.7360
18552TIP3   OH277070   4.829   2.856  16.677  0.2259 -0.1533  1.2836
18552TIP3    H177071   4.784   2.771  16.677  0.5444 -0.3829 -1.3464
18552TIP3    H277072   4.758   2.920  16.669  0.0879 -0.2480  1.7179
18553TIP3   OH277073   3.216   2.669   5.368  0.4208 -0.2162 -0.6789
18553TIP3    H177074   3.224   2.708   5.281  1.4983  0.5659 -0.2627
18553TIP3    H277075   3.243   2.740   5.427  3.0288 -1.7247  0.0893
18554TIP3   OH277076   2.508   3.996  15.577 -0.6546 -0.1728  0.0861
18554TIP3    H177077   2.573   4.051  15.533 -0.2494 -1.0389 -0.4233
18554TIP3    H277078   2.448   4.058  15.618  0.4067  0.6557  0.4385
18555TIP3   OH277079   3.352   3.768   2.891 -0.3889 -0.7582  0.8709
18555TIP3    H177080   3.280   3.707   2.911 -0.1910 -0.3635  3.0707
18555TIP3    H277081   3.381   3.743   2.803 -2.7136 -1.4121  0.2052
18556TIP3   OH277082   4.921   1.579  11.013 -0.3489  0.8574 -0.1624
18556TIP3    H177083   4.916   1.485  11.029 -0.1617  0.9015  0.1632
18556TIP3    H277084   5.000   1.607  11.060 -1.6857  1.5790  1.8181
18557TIP3   OH277085   3.183   4.947  16.699 -0.2554  0.5032  0.1418
18557TIP3    H177086   3.213   4.988  16.780  1.9910  0.5073 -0.6304
18557TIP3    H277087   3.226   4.861  16.697 -0.4096  0.4304 -0.9640
18558TIP3   OH277088   6.505   5.673  17.017 -0.0723  0.5736 -0.1484
18558TIP3    H177089   6.553   5.699  16.939 -1.0903  0.1529 -0.9405
18558TIP3    H277090   6.435   5.738  17.025 -0.7407 -0.1024 -0.3446
18559TIP3   OH277091   3.372   5.713  13.972 -0.2543 -0.3331 -0.1533
18559TIP3    H177092   3.294   5.757  14.005  1.1850  4.2752 -2.0527
18559TIP3    H277093   3.424   5.694  14.050 -2.7189 -2.7143  1.0621
18560TIP3   OH277094   3.669   0.635   3.444 -0.0141 -0.1029 -0.5796
18560TIP3    H177095   3.646   0.667   3.531 -0.4404  0.4230 -0.8816
18560TIP3    H277096   3.596   0.660   3.389  1.3255  1.8039 -1.6163
18561TIP3   OH277097   2.135   6.330   3.961 -0.1122 -0.4603 -0.2331
18561TIP3    H177098   2.080   6.402   3.927  3.5706  2.6756 -0.2288
18561TIP3    H277099   2.124   6.335   4.056  0.6587  0.6942 -0.1775
18562TIP3   OH277100   2.580   5.514  15.135 -0.0805  0.1951 -0.2028
18562TIP3    H177101   2.617   5.438  15.181 -2.1035 -0.5346  0.3252
18562TIP3    H277102   2.630   5.589  15.168  0.5056 -0.6608  0.9186
18563TIP3   OH277103   1.529   4.523   4.511  0.1665 -0.8477  0.5429
18563TIP3    H177104   1.599   4.586   4.492  1.3234 -1.8907  1.1672
18563TIP3    H277105   1.449   4.575   4.511  0.8840  0.3102 -0.6440
18564TIP3   OH277106   6.538   2.143  15.004 -0.0783 -0.2650  0.5452
18564TIP3    H177107   6.450   2.145  15.041 -0.7203 -0.0514 -0.9176
18564TIP3    H277108   6.563   2.234  14.995  0.1865 -0.3197  0.7238
18565TIP3   OH277109   6.589   2.822  13.254 -0.1869  0.3863 -0.0852
18565TIP3    H177110   6.548   2.831  13.168  0.5675 -0.6933 -0.5869
18565TIP3    H277111   6.673   2.868  13.245 -0.6282  1.3374  0.4802
18566TIP3   OH277112   1.742   5.727  11.428  0.1772 -0.1618 -0.3189
18566TIP3    H177113   1.812   5.792  11.440 -0.0961  0.1824 -0.5750
18566TIP3    H277114   1.664   5.779  11.411 -0.1755 -0.5463  0.1240
18567TIP3   OH277115   5.090   4.320   4.064 -0.2218  0.0039  0.2127
18567TIP3    H177116   5.173   4.280   4.037 -0.2187 -1.7578  2.4661
18567TIP3    H277117   5.033   4.245   4.083 -1.9224  1.1679 -0.0675
18568TIP3   OH277118   4.954   1.603   4.458 -0.4052 -0.4368  0.7784
18568TIP3    H177119   5.012   1.676   4.436 -0.1936 -0.7090  0.4079
18568TIP3    H277120   4.881   1.612   4.397 -0.4641 -0.4286  0.8515
18569TIP3   OH277121   6.094   3.324  11.770 -0.0703 -0.4240  0.3609
18569TIP3    H177122   6.184   3.355  11.780 -0.1682 -0.4434  1.3684
18569TIP3    H277123   6.047   3.361  11.844 -0.4204 -2.0978  1.0291
18570TIP3   OH277124   5.776   4.694  15.564 -0.0739  0.0048  0.2108
18570TIP3    H177125   5.806   4.661  15.479 -1.3124  0.4078 -0.4033
18570TIP3    H277126   5.695   4.741  15.544  2.2361  4.8405  0.6816
18571TIP3   OH277127   3.770   0.998  16.590 -0.2972 -0.3043  0.2034
18571TIP3    H177128   3.681   0.963  16.589 -0.0681 -0.8984  0.5692
18571TIP3    H277129   3.824   0.927  16.625  0.1871  0.3715  0.8536
18572TIP3   OH277130   1.673   5.804   4.854  0.3226  0.1560  0.3306
18572TIP3    H177131   1.721   5.884   4.830  1.7150 -0.2383  1.5822
18572TIP3    H277132   1.735   5.733   4.834  0.1601 -0.3973  1.7090
18573TIP3   OH277133   0.706   4.101   4.482 -0.3120 -0.4766 -0.2132
18573TIP3    H177134   0.724   4.115   4.575 -2.7965  1.4326  0.1143
18573TIP3    H277135   0.632   4.040   4.481 -0.4011 -0.3638 -0.8968
18574TIP3   OH277136   5.433   3.601  15.289 -0.8025 -0.6052  0.4148
18574TIP3    H177137   5.379   3.553  15.227 -1.9168 -1.1609  1.7620
18574TIP3    H277138   5.486   3.534  15.332 -0.1815 -0.2508  0.2088
18575TIP3   OH277139   1.450   0.272  13.523 -0.5820  0.0620  0.1887
18575TIP3    H177140   1.449   0.235  13.434  1.0532  0.2821  0.0477
18575TIP3    H277141   1.516   0.341  13.519  0.0215 -0.3795  1.7469
18576TIP3   OH277142   4.232   6.728  11.665 -0.3311 -0.0806 -0.0071
18576TIP3    H177143   4.237   6.810  11.714  0.9058  0.5572 -1.1335
18576TIP3    H277144   4.155   6.683  11.701 -1.3145  1.7746  0.3177
18577TIP3   OH277145   5.130   3.902   3.219 -0.0788 -0.2742  0.7606
18577TIP3    H177146   5.065   3.964   3.252 -0.6449 -0.1866 -0.4436
18577TIP3    H277147   5.208   3.919   3.270 -0.0865  1.7432  0.1964
18578TIP3   OH277148   6.371   3.303  16.296  0.2549  0.2457  0.1404
18578TIP3    H177149   6.300   3.310  16.233  1.9390  0.3996 -1.8481
18578TIP3    H277150   6.389   3.393  16.323 -1.2440  0.0892  1.8484
18579TIP3   OH277151   0.847   2.411   5.153  0.0305 -0.3872  0.2961
18579TIP3    H177152   0.803   2.440   5.233  1.8601 -0.2552  1.3199
18579TIP3    H277153   0.812   2.467   5.084  0.5351  1.5388  1.5332
18580TIP3   OH277154   3.165   4.784  11.336 -0.3853  0.4279 -0.4420
18580TIP3    H177155   3.209   4.862  11.301  0.3230  0.7548  1.0348
18580TIP3    H277156   3.215   4.710  11.301  0.5227  0.7548  0.1133
18581TIP3   OH277157   5.784   4.441   0.937 -0.7881 -0.3290  0.6499
18581TIP3    H177158   5.821   4.530   0.940  0.6001 -0.9014  1.3883
18581TIP3    H277159   5.718   4.441   1.006 -0.2805 -0.0762  1.1462
18582TIP3   OH277160   5.099   5.506  12.683 -0.4427  0.6191 -0.4193
18582TIP3    H177161   5.061   5.459  12.757 -0.0652  0.5033 -0.2915
18582TIP3    H277162   5.089   5.446  12.609  1.8645 -0.5821  0.1506
18583TIP3   OH277163   0.207   1.732   6.724 -0.1136 -0.8384  0.4273
18583TIP3    H177164   0.211   1.643   6.760 -2.2150 -1.2938 -0.2997
18583TIP3    H277165   0.142   1.726   6.654  0.9126  0.9286 -0.7302
18584TIP3   OH277166   0.069   2.940  13.199 -0.4197 -0.1235  0.6341
18584TIP3    H177167   0.091   3.026  13.162  2.0080 -1.5608 -1.5745
18584TIP3    H277168   0.086   2.948  13.292  2.1748  1.1435  0.1223
18585TIP3   OH277169   5.443   4.114  15.934 -0.1958  0.2664 -0.8677
18585TIP3    H177170   5.390   4.155  16.002  0.2126  0.0013 -0.3803
18585TIP3    H277171   5.398   4.135  15.852 -0.7324  0.5275 -0.5108
18586TIP3   OH277172   5.781   0.979  14.329 -0.0480 -0.6198  0.3120
18586TIP3    H177173   5.713   0.912  14.321  2.4540 -3.3009 -0.2731
18586TIP3    H277174   5.797   1.007  14.238 -1.2409  1.0562  0.5719
18587TIP3   OH277175   1.918   3.293  15.527  0.1658  0.2097  0.1279
18587TIP3    H177176   1.829   3.256  15.525 -0.2797  1.2683 -0.7542
18587TIP3    H277177   1.943   3.289  15.619 -0.7642 -0.2020  0.3804
18588TIP3   OH277178   3.497   4.527   3.863  0.4354  0.3476 -0.2552
18588TIP3    H177179   3.452   4.600   3.823  0.0274  0.0676 -0.3081
18588TIP3    H277180   3.569   4.567   3.913  0.1494  0.7865 -0.1962
18589TIP3   OH277181   3.556   5.280  15.121  0.5022  0.9790 -0.2664
18589TIP3    H177182   3.551   5.329  15.203  0.7591 -0.7034  0.8230
18589TIP3    H277183   3.480   5.309  15.071 -1.3698 -0.0143  1.8249
18590TIP3   OH277184   5.383   3.346   2.571  0.4847  0.7268 -0.9687
18590TIP3    H177185   5.445   3.332   2.500 -0.1718  1.3073 -1.6724
18590TIP3    H277186   5.310   3.393   2.531 -1.6513 -2.1507 -0.8174
18591TIP3   OH277187   0.722   0.107   0.152 -0.3189  0.1130  0.0861
18591TIP3    H177188   0.666   0.136   0.080  0.8865  0.9702 -0.5406
18591TIP3    H277189   0.782   0.044   0.111 -0.2656 -0.1430  0.5553
18592TIP3   OH277190   6.611   5.134   3.519  0.5099  0.2037 -0.0972
18592TIP3    H177191   6.550   5.067   3.487  0.4348  0.1052  0.2535
18592TIP3    H277192   6.578   5.159   3.605 -0.6664  2.2143 -1.0633
18593TIP3   OH277193   2.300   2.029  13.114  0.6176  0.6510 -0.3281
18593TIP3    H177194   2.229   2.016  13.051  0.8242  0.0220 -0.4396
18593TIP3    H277195   2.259   2.076  13.186  0.4414  1.6351 -1.0534
18594TIP3   OH277196   3.333   6.711  15.789  0.5517 -0.1513 -0.9554
18594TIP3    H177197   3.249   6.703  15.743  1.0258 -0.7083 -1.7491
18594TIP3    H277198   3.338   6.632  15.843  0.6020 -0.1620 -0.9753
18595TIP3   OH277199   2.590   0.383   3.263  0.3530 -0.0412  0.2750
18595TIP3    H177200   2.649   0.373   3.189  2.2773 -1.0819  1.8568
18595TIP3    H277201   2.522   0.317   3.248  0.0115  0.5794 -1.1190
18596TIP3   OH277202   1.985   2.058   1.852 -0.9096  0.4357 -0.4775
18596TIP3    H177203   1.950   1.985   1.902 -0.6363  0.6609  0.0506
18596TIP3    H277204   1.911   2.117   1.841 -2.1959 -1.5909 -4.1889
18597TIP3   OH277205   3.527   0.507  15.634  0.3981  0.7872  0.4577
18597TIP3    H177206   3.584   0.444  15.590 -0.6248  0.7225 -0.8582
18597TIP3    H277207   3.581   0.585  15.644  0.5994  0.9129 -1.2530
18598TIP3   OH277208   5.169   1.874  15.827  0.0742  0.3387 -0.2642
18598TIP3    H177209   5.243   1.840  15.879 -0.1039 -0.5494 -0.5778
18598TIP3    H277210   5.124   1.796  15.796 -2.1829  0.8262  1.5648
18599TIP3   OH277211   4.861   0.336   1.266  0.5322 -0.1580  0.0183
18599TIP3    H177212   4.957   0.334   1.263  0.5540  0.2455  0.2821
18599TIP3    H277213   4.835   0.245   1.279  0.9177 -0.1553  0.8683
18600TIP3   OH277214   4.532   6.372  14.458  0.1759  0.5857 -0.1011
18600TIP3    H177215   4.446   6.331  14.464  0.2722  0.4831  0.7570
18600TIP3    H277216   4.520   6.444  14.396 -0.4264  0.3262 -0.2928
18601TIP3   OH277217   4.042   4.138   6.053  0.1969 -0.3355 -0.0468
18601TIP3    H177218   4.057   4.190   5.974  0.3424 -0.2803  0.0174
18601TIP3    H277219   4.016   4.052   6.021 -2.8262  0.5116 -0.2065
18602TIP3   OH277220   4.203   2.904  16.921  0.3017  0.3542  0.1827
18602TIP3    H177221   4.152   2.985  16.924 -1.6925 -0.8126 -0.5495
18602TIP3    H277222   4.138   2.835  16.916  1.9175 -1.1637 -2.3922
18603TIP3   OH277223   2.017   4.544   3.872 -0.3581 -0.5047  0.9451
18603TIP3    H177224   1.950   4.481   3.846 -0.6222  0.3602 -0.5785
18603TIP3    H277225   1.972   4.608   3.926 -0.2340 -1.2083  1.9114
18604TIP3   OH277226   3.018   1.048   3.215  0.4299 -0.5653 -0.5127
18604TIP3    H177227   2.925   1.033   3.200 -0.4004  2.4264  0.7692
18604TIP3    H277228   3.048   1.091   3.135  0.1375  0.3138 -0.1731
18605TIP3   OH277229   1.377   5.142   2.247 -0.8600 -0.3909 -0.5393
18605TIP3    H177230   1.319   5.214   2.271 -0.7376 -0.2752 -0.5820
18605TIP3    H277231   1.399   5.159   2.155  0.6901  0.5974 -0.0353
18606TIP3   OH277232   2.808   0.919   2.093  0.4579 -0.0406 -0.4135
18606TIP3    H177233   2.892   0.875   2.107  1.2126  1.4881 -0.0356
18606TIP3    H277234   2.831   1.006   2.061 -0.9335  0.9078  1.0231
18607TIP3   OH277235   2.101   1.338  14.342  0.3940  0.5707  0.1576
18607TIP3    H177236   2.164   1.293  14.286  0.6432  0.2116  0.7184
18607TIP3    H277237   2.151   1.407  14.384  0.5788 -0.0970  1.0730
18608TIP3   OH277238   1.658   2.523  16.380 -0.5787  0.1313  0.1579
18608TIP3    H177239   1.663   2.428  16.367 -1.9253 -0.0866  1.0658
18608TIP3    H277240   1.728   2.558  16.325 -0.1049 -1.3785 -0.2516
18609TIP3   OH277241   0.261   0.455   2.676  0.1518  0.3896 -0.6106
18609TIP3    H177242   0.267   0.417   2.589 -1.5079 -0.4690 -0.3855
18609TIP3    H277243   0.200   0.397   2.723  0.2339  1.4083  0.7989
18610TIP3   OH277244   0.818   3.572  16.078 -0.3208  0.3111  0.2712
18610TIP3    H177245   0.843   3.528  16.159 -0.4573  0.1948  0.2497
18610TIP3    H277246   0.828   3.505  16.010  2.3811  1.1329 -0.2282
18611TIP3   OH277247   6.516   5.419  11.216  0.3098 -1.1788 -0.1750
18611TIP3    H177248   6.432   5.464  11.225  1.0326 -0.1159  1.6868
18611TIP3    H277249   6.544   5.402  11.306  1.7181 -2.2716 -0.7751
18612TIP3   OH277250   5.268   4.683  13.154 -0.6692  0.9545 -0.3201
18612TIP3    H177251   5.212   4.710  13.082 -1.9716 -1.0830 -0.1361
18612TIP3    H277252   5.259   4.754  13.219 -1.5620  1.5329 -1.0561
18613TIP3   OH277253   2.263   3.194  14.783  0.6175  0.6541 -0.0859
18613TIP3    H177254   2.243   3.132  14.713 -3.1086  1.3793  0.1160
18613TIP3    H277255   2.250   3.280  14.743  3.0891  1.2807  0.3309
18614TIP3   OH277256   4.319   5.426  16.061  0.1357  0.2052 -0.5414
18614TIP3    H177257   4.280   5.498  16.012 -0.0534 -0.4332 -1.3345
18614TIP3    H277258   4.335   5.463  16.148  0.3024  1.2904 -1.0139
18615TIP3   OH277259   4.581   1.733  11.991 -0.3395  0.0875  0.3103
18615TIP3    H177260   4.542   1.820  11.982 -1.6674 -0.6648 -2.3810
18615TIP3    H277261   4.663   1.739  11.942  0.0497  0.0817  0.9585
18616TIP3   OH277262   1.001   2.756   1.290 -0.7084 -0.2412 -0.1512
18616TIP3    H177263   1.047   2.672   1.281  0.0474  0.1895 -0.3815
18616TIP3    H277264   0.964   2.754   1.378 -0.4769 -0.7095 -0.0618
18617TIP3   OH277265   4.404   4.613  12.701  0.1537  0.2772  0.1436
18617TIP3    H177266   4.371   4.546  12.641  0.7215 -0.6328  0.8283
18617TIP3    H277267   4.326   4.644  12.747 -0.2001  0.5423 -0.6003
18618TIP3   OH277268   5.275   3.691  13.904  0.2023  0.0800  0.0747
18618TIP3    H177269   5.369   3.692  13.923  0.0186 -1.5033  1.2471
18618TIP3    H277270   5.246   3.603  13.928 -0.9666 -0.6760 -3.4431
18619TIP3   OH277271   3.241   0.201   5.504  0.0264 -0.4953 -0.5188
18619TIP3    H177272   3.291   0.190   5.585  1.3259  1.8253 -0.9082
18619TIP3    H277273   3.161   0.246   5.531 -0.3502 -1.2712 -0.3210
18620TIP3   OH277274   0.978   6.614   2.068 -0.0766  0.4339 -0.2734
18620TIP3    H177275   0.993   6.668   2.145 -3.0504  1.3276 -0.1946
18620TIP3    H277276   0.944   6.675   2.002 -0.3419 -0.7883 -1.3214
18621TIP3   OH277277   2.568   6.646   5.381  0.1779  0.2483 -0.1154
18621TIP3    H177278   2.477   6.640   5.407  0.0208 -3.0085 -1.0103
18621TIP3    H277279   2.616   6.661   5.462 -1.0985  2.2499  0.3245
18622TIP3   OH277280   4.531   3.719  13.706 -0.8228  0.3093 -0.5311
18622TIP3    H177281   4.589   3.785  13.743 -0.4853 -0.7697  0.9859
18622TIP3    H277282   4.485   3.764  13.636  2.2986  1.0599 -2.2885
18623TIP3   OH277283   0.065   1.227   3.687  0.2103  0.1660  0.2402
18623TIP3    H177284  -0.005   1.170   3.655 -1.1048  1.7224  0.2331
18623TIP3    H277285   0.084   1.195   3.775  0.0972 -0.7805 -0.0613
18624TIP3   OH277286   6.460   6.235   5.498 -0.0140 -0.3625  0.7919
18624TIP3    H177287   6.451   6.164   5.561  1.3277 -0.9943  0.3021
18624TIP3    H277288   6.527   6.292   5.535  0.2575 -0.3549  0.3051
18625TIP3   OH277289   2.909   1.879   0.150  0.0598  0.3475 -0.0898
18625TIP3    H177290   2.840   1.826   0.189  0.6503 -2.0889 -2.0560
18625TIP3    H277291   2.872   1.912   0.069  1.6125 -2.6943 -2.2407
18626TIP3   OH277292   0.749   5.787  10.410 -0.4757  0.1591  0.0127
18626TIP3    H177293   0.689   5.768  10.337 -0.1237  0.1391 -0.2746
18626TIP3    H277294   0.807   5.711  10.414 -0.1756  0.3866 -0.0091
18627TIP3   OH277295   0.396   6.665  16.552  0.3994  0.4914 -0.2336
18627TIP3    H177296   0.302   6.655  16.538  0.3614  0.0526  0.3001
18627TIP3    H277297   0.404   6.750  16.596  0.2079  0.3383  0.1040
18628TIP3   OH277298   6.481   2.406  14.418  0.4214 -0.1884 -0.0447
18628TIP3    H177299   6.489   2.469  14.346 -0.0813  0.2592  0.2832
18628TIP3    H277300   6.414   2.344  14.389 -2.2527  1.8302  1.2946
18629TIP3   OH277301   3.850   6.696  12.606  0.2091  1.1128 -0.4424
18629TIP3    H177302   3.790   6.711  12.532 -0.2773  0.7420 -0.1271
18629TIP3    H277303   3.891   6.781  12.621 -0.4902  1.4596 -0.4458
18630TIP3   OH277304   1.464   2.002   3.205  0.1542  0.1738  0.3299
18630TIP3    H177305   1.531   2.034   3.144  1.1252  0.7096  1.6301
18630TIP3    H277306   1.439   2.078   3.256 -1.2929 -0.0807  0.0440
18631TIP3   OH277307   2.528   3.230  14.867 -0.4147  0.2864 -0.5725
18631TIP3    H177308   2.439   3.248  14.837 -1.6105 -0.6846  2.0603
18631TIP3    H277309   2.563   3.168  14.803 -2.1683 -0.4031 -0.9243
18632TIP3   OH277310   6.024   4.684  12.535  0.2494  0.8948 -0.1503
18632TIP3    H177311   6.086   4.728  12.478  0.4023  0.1852 -0.5519
18632TIP3    H277312   6.078   4.640  12.601  0.0062  3.4240  1.8787
18633TIP3   OH277313   2.100   4.627  16.444 -0.5449 -0.0762 -0.5575
18633TIP3    H177314   2.024   4.629  16.386 -0.5530 -2.6585 -0.7512
18633TIP3    H277315   2.160   4.691  16.406 -0.6604 -1.4391 -3.3289
18634TIP3   OH277316   1.098   5.154   4.267  0.0585  0.0677  0.3583
18634TIP3    H177317   1.166   5.133   4.331 -0.4599 -0.9048  0.6093
18634TIP3    H277318   1.133   5.123   4.184  0.2040  0.1822  0.3769
18635TIP3   OH277319   0.598   6.501  11.283  0.1085  0.1840  0.0156
18635TIP3    H177320   0.646   6.574  11.322  1.4729 -0.5790 -0.1713
18635TIP3    H277321   0.561   6.454  11.358 -0.5047  0.8519  0.1509
18636TIP3   OH277322   0.833   3.060   5.076  0.0341 -0.0318 -0.5544
18636TIP3    H177323   0.899   3.124   5.101  0.2861 -0.3265 -0.4522
18636TIP3    H277324   0.873   2.975   5.098 -1.1123 -0.1550  1.2853
18637TIP3   OH277325   5.686   4.106   4.073 -0.1434  0.1436  0.0909
18637TIP3    H177326   5.770   4.131   4.113  0.2009  0.3518 -0.7418
18637TIP3    H277327   5.679   4.161   3.995 -0.6089 -0.5305 -0.3610
18638TIP3   OH277328   1.910   5.971  15.939  0.1593 -0.4707  0.0909
18638TIP3    H177329   1.869   6.054  15.965  2.7918  1.2091 -0.6382
18638TIP3    H277330   1.905   5.916  16.017 -0.4734  0.8880  1.0481
18639TIP3   OH277331   6.011   5.893  14.062 -0.3395 -0.3293  0.2439
18639TIP3    H177332   6.067   5.919  14.136 -0.3645  1.5005 -0.3323
18639TIP3    H277333   6.050   5.938  13.986 -1.4124 -0.6719 -0.5250
18640TIP3   OH277334   6.770   1.995  16.818 -0.2282  0.1326 -0.0578
18640TIP3    H177335   6.743   1.942  16.743  0.8157 -0.4693 -0.0313
18640TIP3    H277336   6.864   2.008  16.805  0.4102 -1.6858  2.1615
18641TIP3   OH277337   2.722   1.987   3.914 -0.3377 -0.4516 -0.3689
18641TIP3    H177338   2.648   2.019   3.965 -1.3230 -3.1413  0.0317
18641TIP3    H277339   2.796   2.038   3.946 -2.0431  2.9304 -1.3765
18642TIP3   OH277340   0.733   3.440   4.121  0.8346  0.5747 -0.1432
18642TIP3    H177341   0.641   3.457   4.104  1.2090  2.2168 -0.6763
18642TIP3    H277342   0.749   3.354   4.084 -0.2329  0.7295 -1.0009
18643TIP3   OH277343   0.829   1.665   0.321  0.4935 -0.3292  0.5357
18643TIP3    H177344   0.803   1.573   0.333 -0.0411 -0.3394 -0.6167
18643TIP3    H277345   0.913   1.660   0.276  1.1562 -0.2493  1.7097
18644TIP3   OH277346   0.024   6.002   5.077 -0.4930  0.2007  0.7733
18644TIP3    H177347  -0.049   6.010   5.139 -1.4572  0.6472 -0.3812
18644TIP3    H277348  -0.017   6.000   4.991  0.8273 -0.3047  0.1219
18645TIP3   OH277349   2.256   0.575  12.692  0.0772  0.0060  0.5258
18645TIP3    H177350   2.300   0.610  12.770 -0.1214  0.2909  0.5109
18645TIP3    H277351   2.327   0.539  12.638  0.0555 -2.1339  1.7873
18646TIP3   OH277352   5.370   6.497  15.463 -0.3913 -0.0738  0.3313
18646TIP3    H177353   5.403   6.587  15.472  2.3316 -0.7509 -1.4619
18646TIP3    H277354   5.442   6.442  15.493 -2.6374 -1.7661  3.1113
18647TIP3   OH277355   0.338   3.292  14.762  0.0553  0.2387 -0.4211
18647TIP3    H177356   0.363   3.382  14.743  0.6509  0.6486  2.0015
18647TIP3    H277357   0.243   3.292  14.760  0.0279  1.1076  0.1721
18648TIP3   OH277358   3.985   3.385  13.162 -0.1075 -0.2862  0.2150
18648TIP3    H177359   4.071   3.423  13.142 -0.8988 -0.0528 -3.4344
18648TIP3    H277360   3.929   3.460  13.182  0.2626 -0.3645  1.6592
18649TIP3   OH277361   6.705   3.855   0.663  0.4045 -0.0348 -0.2935
18649TIP3    H177362   6.799   3.867   0.657  0.4303 -0.0060  0.1897
18649TIP3    H277363   6.692   3.760   0.666  0.5554 -0.0360  1.7299
18650TIP3   OH277364   5.282   0.826  15.613  0.0525  0.5707  0.6757
18650TIP3    H177365   5.306   0.851  15.702  1.5920  1.5057  0.0257
18650TIP3    H277366   5.310   0.899  15.558  1.9160 -1.2138 -0.9306
18651TIP3   OH277367   5.230   2.653   6.027  0.1553  0.3418 -0.3390
18651TIP3    H177368   5.276   2.721   5.978  0.9185  0.5843  0.6818
18651TIP3    H277369   5.174   2.701   6.087 -0.1255  0.0548 -0.3707
18652TIP3   OH277370   2.025   3.751   0.800 -0.6242 -0.3242 -1.0236
18652TIP3    H177371   1.967   3.824   0.777 -0.1835  0.3562 -0.0442
18652TIP3    H277372   2.028   3.752   0.896  1.8057  0.2960 -1.0584
18653TIP3   OH277373   2.964   1.554   0.349 -0.4923  0.0991  0.2445
18653TIP3    H177374   2.965   1.517   0.261  0.2892 -0.2424  0.3855
18653TIP3    H277375   2.895   1.506   0.395  0.4029 -1.0930  0.3798
18654TIP3   OH277376   6.227   1.602  14.037 -0.0672 -0.0929  0.4461
18654TIP3    H177377   6.182   1.658  13.975  0.6670 -1.3565 -1.3234
18654TIP3    H277378   6.320   1.609  14.013  0.3741  0.2727  2.1593
18655TIP3   OH277379   2.745   6.472   3.510 -0.7245  0.5837 -1.1060
18655TIP3    H177380   2.811   6.449   3.445 -0.0592 -0.4941 -0.0899
18655TIP3    H277381   2.729   6.390   3.558 -0.5147  1.5150  0.6597
18656TIP3   OH277382   5.180   5.557   5.227 -0.3472  0.0982  0.4948
18656TIP3    H177383   5.177   5.582   5.319  2.0295 -2.1626  1.3081
18656TIP3    H277384   5.126   5.478   5.223  0.8761 -0.7638  0.3687
18657TIP3   OH277385   5.015   4.335  12.570  0.7006 -0.0189  0.0027
18657TIP3    H177386   4.969   4.357  12.489  1.8054  1.0796 -0.3577
18657TIP3    H277387   4.947   4.297  12.626 -0.3449  0.3186 -0.9813
18658TIP3   OH277388   0.867   2.855  12.820  0.0547 -0.0806 -0.0933
18658TIP3    H177389   0.836   2.814  12.739 -1.2440 -0.2725  0.4783
18658TIP3    H277390   0.959   2.830  12.826 -0.1979 -1.2402 -0.8037
18659TIP3   OH277391   6.699   3.359  11.625 -0.0909 -0.2197 -0.0859
18659TIP3    H177392   6.640   3.310  11.566 -0.1802 -0.3013  0.0714
18659TIP3    H277393   6.765   3.396  11.566 -0.9062  0.7666 -0.4107
18660TIP3   OH277394   1.529   0.911  11.405  0.4232  0.3471 -0.2508
18660TIP3    H177395   1.447   0.864  11.413  0.7517 -0.2793 -0.5335
18660TIP3    H277396   1.538   0.957  11.489  1.6221 -2.5639  1.3585
18661TIP3   OH277397   6.457   6.694   5.847  0.1690 -0.4688  0.5222
18661TIP3    H177398   6.417   6.621   5.895  0.9031 -3.1385 -2.5002
18661TIP3    H277399   6.404   6.702   5.768  1.5125  0.6391 -0.3183
18662TIP3   OH277400   5.021   5.686  16.840  0.3691 -0.0192 -0.0864
18662TIP3    H177401   5.105   5.731  16.843 -0.7077  2.0840  0.8095
18662TIP3    H277402   4.976   5.726  16.765  0.4912 -1.8638 -1.2177
18663TIP3   OH277403   3.185   3.049   1.071 -0.2166 -0.7645  0.5685
18663TIP3    H177404   3.101   3.073   1.110 -0.3128 -0.2349  0.0513
18663TIP3    H277405   3.229   2.998   1.138 -0.8201 -0.7689  0.9667
18664TIP3   OH277406   1.070   1.312   6.356 -0.1466  0.1978 -0.4067
18664TIP3    H177407   1.048   1.368   6.282 -1.5575 -0.1047 -0.2444
18664TIP3    H277408   0.989   1.264   6.375 -0.5368  1.7754  2.6305
18665TIP3   OH277409   2.907   5.200   4.110  0.5993 -0.6591  0.0419
18665TIP3    H177410   2.906   5.217   4.204 -2.1470 -3.3975  0.6873
18665TIP3    H277411   2.818   5.223   4.081  1.4369  0.2664 -1.9741
18666TIP3   OH277412   1.349   1.474   3.383  0.3087 -0.1430 -0.1340
18666TIP3    H177413   1.294   1.460   3.306  0.4836  0.3756 -0.3602
18666TIP3    H277414   1.426   1.419   3.367  0.7507  0.6410 -0.7605
18667TIP3   OH277415   4.788   2.358   5.147 -0.3132  0.2559  0.0627
18667TIP3    H177416   4.749   2.286   5.196 -0.1418 -0.3371 -0.6622
18667TIP3    H277417   4.765   2.436   5.198 -2.4724 -0.0573 -0.3348
18668TIP3   OH277418   5.630   1.212   2.914  0.3599 -0.2690 -0.0517
18668TIP3    H177419   5.658   1.127   2.948  0.6534 -0.0139  0.3542
18668TIP3    H277420   5.695   1.274   2.948  0.1012  0.1294 -0.2748
18669TIP3   OH277421   4.843   3.968   5.307 -0.0950  0.3403 -0.7422
18669TIP3    H177422   4.934   3.983   5.334  0.0856  0.6465 -1.5036
18669TIP3    H277423   4.800   3.934   5.386  0.4649  1.0347 -0.1213
18670TIP3   OH277424   1.709   5.311  12.357 -0.4231 -0.3553  0.2070
18670TIP3    H177425   1.641   5.267  12.407 -0.4062 -1.9039 -1.0488
18670TIP3    H277426   1.676   5.400  12.344 -0.7616 -0.1453  2.2432
18671TIP3   OH277427   5.560   1.149  12.552  0.1561  0.0146 -0.5014
18671TIP3    H177428   5.569   1.117  12.641  2.6745  1.8926  0.0192
18671TIP3    H277429   5.469   1.177  12.546  0.3562  1.5307  2.1234
18672TIP3   OH277430   1.020   2.368   4.311 -0.1629 -0.0647 -0.5816
18672TIP3    H177431   1.044   2.287   4.356  0.3482 -0.5920 -1.7391
18672TIP3    H277432   0.929   2.355   4.284 -0.8362  0.6980  1.1902
18673TIP3   OH277433   5.779   5.930   6.309 -0.2266  0.0483 -0.0879
18673TIP3    H177434   5.794   6.013   6.264 -0.6023  0.4141  0.4580
18673TIP3    H277435   5.691   5.904   6.284  0.1125 -0.5016 -0.7471
18674TIP3   OH277436   2.874   3.350  11.771  0.3988 -0.3415  0.0010
18674TIP3    H177437   2.819   3.336  11.694 -1.7191  0.5509  1.2689
18674TIP3    H277438   2.960   3.374  11.735 -0.8450  1.2820 -2.1252
18675TIP3   OH277439   2.667   0.522   4.909  0.0969  1.0468 -0.4854
18675TIP3    H177440   2.722   0.447   4.887 -0.8841  0.5517 -1.3146
18675TIP3    H277441   2.633   0.501   4.996 -0.4555  0.3543 -0.8591
18676TIP3   OH277442   0.828   1.455   2.683 -0.1170 -0.4071 -0.1625
18676TIP3    H177443   0.800   1.501   2.762 -1.0760 -0.9682 -0.1603
18676TIP3    H277444   0.923   1.464   2.683 -0.0213 -1.0860  1.5025
18677TIP3   OH277445   4.324   1.818  15.009  0.4347 -0.7071 -0.2900
18677TIP3    H177446   4.351   1.776  15.091 -0.3711 -2.1125 -0.7034
18677TIP3    H277447   4.295   1.906  15.035  1.1393 -0.7723  0.7693
18678TIP3   OH277448   1.207   4.613  11.464 -0.3121 -0.4125  0.1510
18678TIP3    H177449   1.265   4.658  11.403 -0.5268 -0.1978  0.1054
18678TIP3    H277450   1.259   4.539  11.496  0.0256 -0.1565  0.1960
18679TIP3   OH277451   2.874   2.952   4.285  0.5035  0.1636  0.8834
18679TIP3    H177452   2.884   2.857   4.290  2.2510  0.1965 -0.9256
18679TIP3    H277453   2.798   2.965   4.229  1.4138 -0.2206 -0.4947
18680TIP3   OH277454   3.294   4.121   2.126 -0.2607  0.3008 -0.2248
18680TIP3    H177455   3.241   4.172   2.065 -1.4871 -1.4172 -0.6857
18680TIP3    H277456   3.323   4.045   2.075  2.0397  0.7803  0.2454
18681TIP3   OH277457   4.506   2.000   1.817  0.0822  0.3736  0.3071
18681TIP3    H177458   4.418   2.023   1.788 -1.0184 -0.4982  2.7312
18681TIP3    H277459   4.498   1.912   1.853  2.0243  0.1517  0.3089
18682TIP3   OH277460   5.776   5.347   5.563  0.2517 -0.1615  0.0528
18682TIP3    H177461   5.821   5.356   5.647 -2.1855 -0.9073  1.5325
18682TIP3    H277462   5.713   5.420   5.562 -1.2795 -1.4375 -0.0431
18683TIP3   OH277463   1.828   0.843   4.803  0.2426 -0.0188 -0.3175
18683TIP3    H177464   1.833   0.757   4.844  0.7468  1.2158  2.4108
18683TIP3    H277465   1.753   0.836   4.743 -0.4317 -1.9918  0.6639
18684TIP3   OH277466   5.061   4.948   0.424  0.1751  0.0391  0.3582
18684TIP3    H177467   5.024   5.019   0.475  2.4454  0.3865  1.6623
18684TIP3    H277468   5.114   4.898   0.486  0.0072 -1.8218 -0.8810
18685TIP3   OH277469   4.320   4.947  14.983 -0.0732  0.2264  0.1368
18685TIP3    H177470   4.247   4.960  15.044 -2.2090  1.2262 -2.4316
18685TIP3    H277471   4.384   5.014  15.007 -1.9528  2.2453 -0.1570
18686TIP3   OH277472   3.536   5.215  14.803  0.7731  0.4657 -0.7738
18686TIP3    H177473   3.612   5.161  14.826  0.2591 -0.5198 -1.2812
18686TIP3    H277474   3.466   5.183  14.860 -0.1080 -0.9599 -2.5203
18687TIP3   OH277475   4.562   0.054   1.467 -0.2380 -0.0401  0.0783
18687TIP3    H177476   4.484   0.068   1.413 -0.3143 -1.4986 -0.2567
18687TIP3    H277477   4.528   0.013   1.547 -0.3855  3.8700  2.2777
18688TIP3   OH277478   3.490   1.676  12.534  0.0936  0.0872  0.2660
18688TIP3    H177479   3.477   1.770  12.523  0.3319 -0.0319 -1.2123
18688TIP3    H277480   3.422   1.650  12.596 -0.2235  1.1677  0.3963
18689TIP3   OH277481   0.415   3.142  16.497  0.1358 -0.1130  0.8018
18689TIP3    H177482   0.480   3.087  16.453 -0.4257  0.1307 -0.3702
18689TIP3    H277483   0.386   3.089  16.572 -1.6509 -2.2212 -1.2298
18690TIP3   OH277484   1.622   2.493  11.879 -0.3434 -0.3138 -0.0226
18690TIP3    H177485   1.606   2.536  11.963 -1.3582  0.3951 -0.5675
18690TIP3    H277486   1.711   2.459  11.887  0.8515  2.5732  0.1423
18691TIP3   OH277487   4.730   6.427   2.183  0.2430  0.0923  0.0200
18691TIP3    H177488   4.750   6.492   2.115  0.6665  0.5354  0.5646
18691TIP3    H277489   4.816   6.397   2.212  0.0969  0.6787  1.1028
18692TIP3   OH277490   3.924   1.660   4.852 -0.6181 -0.5838  0.2277
18692TIP3    H177491   3.943   1.678   4.944 -0.2564 -0.2397  0.0868
18692TIP3    H277492   3.829   1.645   4.850 -0.4716 -1.7254  0.8357
18693TIP3   OH277493   5.697   1.268   0.383 -0.4240 -0.2306 -0.3465
18693TIP3    H177494   5.688   1.217   0.303  1.0255  0.2524 -0.8515
18693TIP3    H277495   5.742   1.209   0.444 -0.5910 -0.2398 -0.2292
18694TIP3   OH277496   2.613   2.283  13.986  0.4146 -0.4895 -0.0468
18694TIP3    H177497   2.695   2.323  14.014  0.6425 -0.6642 -0.4595
18694TIP3    H277498   2.545   2.341  14.020  0.7628  0.8762 -1.5808
18695TIP3   OH277499   3.069   0.340  11.430  0.6658 -0.0631 -0.0363
18695TIP3    H177500   3.114   0.294  11.360  2.1876  1.2575  0.0277
18695TIP3    H277501   3.021   0.411  11.387 -0.2775 -0.6381  0.0410
18696TIP3   OH277502   5.842   4.728   0.216  0.0738 -0.6107  0.2368
18696TIP3    H177503   5.785   4.799   0.245  0.9768 -0.2831  1.2369
18696TIP3    H277504   5.922   4.738   0.266  0.2018 -2.3906  0.4703
18697TIP3   OH277505   3.297   3.064   1.786 -0.1388  0.2123  0.1388
18697TIP3    H177506   3.273   3.130   1.721  1.3064  0.1633 -0.4975
18697TIP3    H277507   3.248   2.986   1.760 -1.0046  0.7134  0.2355
18698TIP3   OH277508   3.421   3.848  16.004 -0.3512  0.4140 -0.4966
18698TIP3    H177509   3.456   3.902  15.933 -0.6228 -1.0020 -1.7590
18698TIP3    H277510   3.442   3.897  16.083 -1.8397  3.1167 -1.6008
18699TIP3   OH277511   1.585   2.289  11.711  0.1945  0.4769  0.1078
18699TIP3    H177512   1.580   2.368  11.764  1.3951 -1.0185  2.6567
18699TIP3    H277513   1.659   2.240  11.747 -0.0601 -1.4973 -1.8124
18700TIP3   OH277514   0.690   6.801   0.407 -0.5717 -0.3230  0.4174
18700TIP3    H177515   0.689   6.853   0.327 -0.9735 -0.4083  0.3629
18700TIP3    H277516   0.747   6.849   0.466  1.1535 -1.1522 -0.4985
18701TIP3   OH277517   4.892   4.479   1.465 -0.2882  0.2234  0.0036
18701TIP3    H177518   4.915   4.540   1.394 -0.0435 -0.3926 -0.4521
18701TIP3    H277519   4.934   4.397   1.440  0.8399  0.3068  1.4836
18702TIP3   OH277520   3.591   5.272   4.738  0.1602  0.0663  0.3008
18702TIP3    H177521   3.656   5.326   4.693  1.0371 -0.9024  0.3390
18702TIP3    H277522   3.615   5.278   4.831 -0.4370  0.5125  0.4266
18703TIP3   OH277523   2.485   3.303  14.506 -0.2733  0.3520 -0.0570
18703TIP3    H177524   2.444   3.242  14.444 -2.3451 -0.9487  2.3949
18703TIP3    H277525   2.575   3.272  14.513 -0.4653 -0.5224 -1.1540
18704TIP3   OH277526   5.138   4.019   5.373 -0.4186  0.5545  0.0154
18704TIP3    H177527   5.223   4.016   5.330  1.0243  0.3225  2.6662
18704TIP3    H277528   5.138   4.104   5.419 -1.7182  0.6554 -0.1466
18705TIP3   OH277529   4.317   0.257   1.465  0.1562 -0.6242 -0.1591
18705TIP3    H177530   4.239   0.205   1.484 -0.9686  1.0019 -0.1546
18705TIP3    H277531   4.348   0.286   1.551  0.9386 -1.4676 -0.1416
18706TIP3   OH277532   4.313   1.318   4.101 -0.0512  0.2085  0.1631
18706TIP3    H177533   4.386   1.379   4.090  0.1454 -0.0086  0.2813
18706TIP3    H277534   4.276   1.310   4.013  1.1822 -1.0909 -0.2683
18707TIP3   OH277535   2.433   4.764  11.559  0.4886 -0.1547  0.0897
18707TIP3    H177536   2.469   4.679  11.582  0.6445 -0.1405 -0.0985
18707TIP3    H277537   2.440   4.769  11.464  0.3529  0.0111  0.0856
18708TIP3   OH277538   0.724   3.614  14.577  0.9302 -0.0087 -0.2640
18708TIP3    H177539   0.701   3.535  14.529  2.4766 -0.8923  0.3896
18708TIP3    H277540   0.819   3.619  14.572  0.8966  1.5888  0.0719
18709TIP3   OH277541   0.979   1.862  16.779  0.1076  0.2821 -0.5670
18709TIP3    H177542   0.927   1.809  16.718 -0.1402 -0.8710  0.6126
18709TIP3    H277543   0.925   1.940  16.793 -0.6337 -0.2222 -0.5124
18710TIP3   OH277544   1.276   5.862  15.597 -0.1876 -0.2087 -0.3936
18710TIP3    H177545   1.339   5.879  15.526 -0.1790 -0.5342 -0.4678
18710TIP3    H277546   1.322   5.800  15.654  0.4305  1.2600  0.7612
18711TIP3   OH277547   1.936   0.407   3.218 -0.3107 -1.2715 -0.3169
18711TIP3    H177548   1.855   0.445   3.186 -1.0751 -1.9850  0.7311
18711TIP3    H277549   1.922   0.394   3.311  0.7752 -1.9856 -0.2353
18712TIP3   OH277550   6.607   4.683   4.248 -0.0410  0.4449 -0.0593
18712TIP3    H177551   6.530   4.728   4.282 -0.4887 -0.8699  0.7739
18712TIP3    H277552   6.572   4.611   4.195  0.5288 -0.8334  1.2087
18713TIP3   OH277553   0.832   2.239  13.086  0.0146 -0.1873 -0.2300
18713TIP3    H177554   0.803   2.160  13.040  0.7025  0.1067 -1.2014
18713TIP3    H277555   0.825   2.308  13.020 -0.2958  0.5136  0.5216
18714TIP3   OH277556   3.408   1.329  16.785  0.2313  0.0852 -0.2521
18714TIP3    H177557   3.495   1.302  16.814 -1.2699 -0.3283  4.8380
18714TIP3    H277558   3.350   1.261  16.820 -2.2857  0.8961 -2.5517
18715TIP3   OH277559   1.768   5.896  13.116 -0.0106  0.6928 -0.1516
18715TIP3    H177560   1.696   5.876  13.057 -0.2815  0.5528  0.2238
18715TIP3    H277561   1.736   5.969  13.170 -1.3979 -1.7349  2.6217
18716TIP3   OH277562   2.488   3.174   3.958  0.3170  0.0649  0.2657
18716TIP3    H177563   2.410   3.121   3.973 -0.8823  1.2792 -1.2840
18716TIP3    H277564   2.514   3.153   3.868  0.3910  1.3360 -0.0334
18717TIP3   OH277565   2.815   0.055  13.533  0.1757 -0.2494 -0.0401
18717TIP3    H177566   2.854   0.142  13.542 -0.8877  0.2657 -0.2691
18717TIP3    H277567   2.721   0.068  13.549 -0.0319 -1.3115 -0.2889
18718TIP3   OH277568   0.422   3.764  10.652  0.1202 -0.1126  0.1244
18718TIP3    H177569   0.361   3.827  10.614  0.8998  1.2322  0.9955
18718TIP3    H277570   0.457   3.716  10.577 -0.9690  0.0356 -0.5059
18719TIP3   OH277571   0.975   6.689   5.136 -0.0852 -0.1001  0.2612
18719TIP3    H177572   0.942   6.648   5.216 -0.2377 -0.2949  0.0980
18719TIP3    H277573   0.979   6.618   5.072  2.1829 -0.4600  0.7069
18720TIP3   OH277574   2.203   0.783  14.052 -0.2406  0.0000  0.4387
18720TIP3    H177575   2.111   0.759  14.044 -0.6310  1.6803 -0.6718
18720TIP3    H277576   2.250   0.701  14.039 -1.5656 -1.0382  1.8004
18721TIP3   OH277577   1.736   0.837  13.808 -0.5773 -0.0464  0.0128
18721TIP3    H177578   1.731   0.746  13.835 -1.8867 -0.2073 -0.7053
18721TIP3    H277579   1.788   0.836  13.728 -0.7947 -0.1913 -0.1262
18722TIP3   OH277580   6.159   1.037   3.905 -0.2949 -0.5126  0.3870
18722TIP3    H177581   6.197   1.078   3.827 -0.7495  0.0506  0.4552
18722TIP3    H277582   6.065   1.050   3.896 -0.4897 -1.8479  0.2498
18723TIP3   OH277583   3.981   3.243   3.533 -0.2030  0.3596 -0.3524
18723TIP3    H177584   3.972   3.265   3.626 -1.3728  1.3447 -0.6813
18723TIP3    H277585   3.995   3.148   3.533 -1.1491  0.1855  0.7973
18724TIP3   OH277586   3.328   5.956  14.994  0.2379 -0.0545  0.0855
18724TIP3    H177587   3.321   6.024  15.061 -0.9042  0.4451 -0.5090
18724TIP3    H277588   3.380   5.996  14.924  0.0077  0.0199 -0.0423
18725TIP3   OH277589   2.445   1.534  13.114  0.2549 -0.0700 -0.1832
18725TIP3    H177590   2.355   1.503  13.110  0.2658 -0.5437  1.8996
18725TIP3    H277591   2.439   1.629  13.107 -0.4261 -0.0893  0.0897
18726TIP3   OH277592   1.180   4.771  13.811 -0.7391 -0.5477  0.1789
18726TIP3    H177593   1.123   4.781  13.887 -0.1830 -1.3703  0.7097
18726TIP3    H277594   1.249   4.711  13.839 -0.3119 -0.5695 -0.8532
18727TIP3   OH277595   6.513   4.480  11.804  0.8682  0.0959 -0.1096
18727TIP3    H177596   6.563   4.451  11.880  1.5659  0.9232 -0.2457
18727TIP3    H277597   6.548   4.427  11.732  2.2409  1.3274 -0.3835
18728TIP3   OH277598   0.797   5.568  14.507 -0.2217 -0.1335  0.1241
18728TIP3    H177599   0.771   5.533  14.422 -1.3601  1.4216 -0.2073
18728TIP3    H277600   0.887   5.538  14.518 -0.8165 -2.3406 -0.5280
18729TIP3   OH277601   2.863   5.272   2.121  0.3406 -0.7872 -0.5003
18729TIP3    H177602   2.938   5.219   2.149  1.1217 -0.1186 -1.2662
18729TIP3    H277603   2.818   5.217   2.057  2.1340  0.0419 -2.6250
18730TIP3   OH277604   5.834   3.634  13.277  0.3855 -0.2651  0.0770
18730TIP3    H177605   5.792   3.621  13.361  1.2759 -3.6917  0.1216
18730TIP3    H277606   5.763   3.658  13.217 -0.9982 -2.0695  0.9318
18731TIP3   OH277607   1.165   3.404  16.395 -0.0327 -0.1415  0.0356
18731TIP3    H177608   1.130   3.358  16.319 -0.4390  1.3982 -0.7564
18731TIP3    H277609   1.247   3.442  16.365  2.1331 -3.0633  1.6608
18732TIP3   OH277610   3.875   4.512   5.946  0.0188 -0.8605  0.8026
18732TIP3    H177611   3.886   4.563   6.026 -0.4474 -0.1753  0.4379
18732TIP3    H277612   3.788   4.472   5.955 -0.4776  0.0349  0.2065
18733TIP3   OH277613   3.875   1.060  13.836  0.0357  0.2272  0.1531
18733TIP3    H177614   3.889   1.155  13.827 -0.1139  0.3020  0.6856
18733TIP3    H277615   3.811   1.039  13.769 -0.5615  0.6573  0.5850
18734TIP3   OH277616   5.253   3.284  11.779 -0.0615  0.5457  0.2072
18734TIP3    H177617   5.211   3.361  11.816 -1.1527 -0.5265  1.2693
18734TIP3    H277618   5.181   3.224  11.761  0.7970 -0.3442 -0.3252
18735TIP3   OH277619   6.078   0.894  11.367 -0.3503  0.2771  0.1428
18735TIP3    H177620   6.077   0.961  11.436  0.2666  1.1596 -0.6901
18735TIP3    H277621   6.060   0.941  11.286 -0.6673 -0.6857 -0.3680
18736TIP3   OH277622   3.328   0.911   0.462  0.4737 -0.7975 -0.1092
18736TIP3    H177623   3.268   0.843   0.493 -1.4273  0.7388 -0.2103
18736TIP3    H277624   3.376   0.937   0.540 -0.8335 -0.3195  0.5738
18737TIP3   OH277625   6.290   3.092  12.295  0.7725  0.8360  0.4480
18737TIP3    H177626   6.360   3.156  12.306 -0.0617  2.2783 -1.8935
18737TIP3    H277627   6.261   3.103  12.205 -1.5849 -0.6378  0.9222
18738TIP3   OH277628   4.037   1.475   5.250 -0.2255 -0.3929  0.1783
18738TIP3    H177629   4.093   1.402   5.276  0.3909 -0.6645 -1.7605
18738TIP3    H277630   4.083   1.553   5.282  1.6009 -0.5693 -1.7701
18739TIP3   OH277631   5.924   2.463   5.104 -0.3521 -0.0424 -0.6607
18739TIP3    H177632   5.867   2.536   5.078 -0.3244 -0.2240 -1.2440
18739TIP3    H277633   5.982   2.501   5.170 -1.9382 -0.1551  0.8881
18740TIP3   OH277634   1.973   5.166   3.170 -0.6082 -0.1197 -0.2064
18740TIP3    H177635   1.951   5.083   3.213  1.3252 -0.9776 -0.7324
18740TIP3    H277636   2.058   5.150   3.129 -1.8143  0.9523 -3.5121
18741TIP3   OH277637   6.178   2.392   1.286  0.1271  0.0348  0.0388
18741TIP3    H177638   6.201   2.364   1.197  1.5210  1.5316 -0.1182
18741TIP3    H277639   6.084   2.374   1.293  0.2698 -1.4501 -1.1973
18742TIP3   OH277640   0.456   2.470   6.031 -0.2238 -0.5166  0.0678
18742TIP3    H177641   0.403   2.546   6.053 -0.4659 -0.5507 -0.3843
18742TIP3    H277642   0.445   2.410   6.105 -2.5907 -1.4712 -0.9462
18743TIP3   OH277643   5.761   6.312  12.031 -0.0762  0.5308 -0.3205
18743TIP3    H177644   5.695   6.304  11.963 -1.3089 -0.4291  0.9126
18743TIP3    H277645   5.820   6.238  12.016 -2.2438 -1.7565  1.5062
18744TIP3   OH277646   5.235   6.487  10.776  0.5433 -0.2436  0.4416
18744TIP3    H177647   5.303   6.456  10.716  0.5039  0.1110  0.2070
18744TIP3    H277648   5.152   6.467  10.731  0.4180 -1.9967  1.3619
18745TIP3   OH277649   0.438   2.736   0.568 -0.6261 -0.0187 -0.0209
18745TIP3    H177650   0.348   2.749   0.599 -0.1057  0.9299  1.1624
18745TIP3    H277651   0.464   2.651   0.604 -1.5640 -1.1157 -1.7421
18746TIP3   OH277652   5.553   5.693   1.718 -0.1313  0.6941 -0.1814
18746TIP3    H177653   5.490   5.670   1.650 -1.1264 -0.2634  1.0176
18746TIP3    H277654   5.630   5.723   1.670 -0.0696 -1.7963 -1.7985
18747TIP3   OH277655   3.244   1.389   2.057 -0.1790  0.4981 -0.4007
18747TIP3    H177656   3.289   1.337   1.990 -4.3645 -1.8469 -1.7431
18747TIP3    H277657   3.283   1.360   2.140  1.2061 -0.8762 -1.4746
18748TIP3   OH277658   5.231   4.569  14.679 -0.0256  0.2249  0.0145
18748TIP3    H177659   5.299   4.508  14.709  1.5883  0.8851 -2.0515
18748TIP3    H277660   5.151   4.517  14.676  1.3635 -2.0013 -2.0821
18749TIP3   OH277661   1.835   0.030  15.048  0.6179  0.8184  0.4405
18749TIP3    H177662   1.873   0.103  15.097 -0.4612  0.3874  1.9874
18749TIP3    H277663   1.747   0.060  15.025  0.7531  0.6204 -0.3694
18750TIP3   OH277664   2.697   3.488  14.003 -0.4454 -0.2944  0.3212
18750TIP3    H177665   2.684   3.425  14.074 -0.5749  0.8408  1.3353
18750TIP3    H277666   2.792   3.502  14.000 -0.2578 -1.5583 -0.8518
18751TIP3   OH277667   2.378   2.345   5.121  0.0597  0.0427 -0.5462
18751TIP3    H177668   2.404   2.426   5.166 -0.9471  0.0585  0.0352
18751TIP3    H277669   2.450   2.285   5.137  0.8583  0.8375 -1.0522
18752TIP3   OH277670   0.163   3.222  15.960  0.0975  0.0265 -0.5674
18752TIP3    H177671   0.166   3.253  16.050  2.2181  0.8391 -0.8561
18752TIP3    H277672   0.147   3.302  15.908 -1.2280 -0.4487 -0.9345
18753TIP3   OH277673   1.528   6.323   0.450 -0.4909 -0.2618  0.5779
18753TIP3    H177674   1.512   6.308   0.357  3.9361 -1.4788 -0.2344
18753TIP3    H277675   1.580   6.404   0.453 -0.2928 -0.4153  1.9440
18754TIP3   OH277676   6.307   4.184  15.012  0.3315 -0.2533 -0.2078
18754TIP3    H177677   6.217   4.212  15.028  0.7456  0.0779  1.8544
18754TIP3    H277678   6.314   4.101  15.059  0.7778 -0.9099 -1.3932
18755TIP3   OH277679   0.433   2.322  11.953 -0.7374 -0.3079  0.3391
18755TIP3    H177680   0.520   2.297  11.922 -0.8088  1.6622 -1.6847
18755TIP3    H277681   0.372   2.274  11.896 -0.9181  0.5252 -0.1839
18756TIP3   OH277682   0.524   0.266  12.239 -0.0083  0.3290  0.3390
18756TIP3    H177683   0.590   0.248  12.172  1.0803  0.0842  1.4500
18756TIP3    H277684   0.441   0.240  12.198  0.6910 -0.3560 -0.6984
18757TIP3   OH277685   1.302   0.043  16.486  0.0602 -0.3244  0.1730
18757TIP3    H177686   1.225   0.022  16.433 -1.3604  1.7888  1.2798
18757TIP3    H277687   1.364   0.080  16.423  0.0116 -1.5609 -0.6400
18758TIP3   OH277688   6.676   5.379   4.345 -0.5070 -0.7799  0.1150
18758TIP3    H177689   6.704   5.470   4.337 -0.6490 -0.7677 -0.2453
18758TIP3    H277690   6.584   5.380   4.321 -0.4558 -1.0548 -0.0905
18759TIP3   OH277691   6.538   3.314   3.765 -0.7463  0.2780  0.4501
18759TIP3    H177692   6.496   3.247   3.819  1.5503 -0.9853  0.8033
18759TIP3    H277693   6.500   3.301   3.678 -1.1951 -0.7208  0.7784
18760TIP3   OH277694   1.030   4.692   5.345 -0.3240  0.4929 -0.1861
18760TIP3    H177695   1.100   4.634   5.314 -0.4903 -0.1724  0.6307
18760TIP3    H277696   0.970   4.633   5.392  0.0214  1.4610  1.5529
18761TIP3   OH277697   6.341   2.195   5.541 -0.5041 -0.3740 -0.3728
18761TIP3    H177698   6.281   2.126   5.513 -1.2702 -0.6812  1.8509
18761TIP3    H277699   6.285   2.271   5.556  0.0136  0.0423 -0.4924
18762TIP3   OH277700   0.148   5.985  12.728  0.0557 -0.1524  0.6469
18762TIP3    H177701   0.196   6.030  12.797  1.6763 -0.2102 -0.3866
18762TIP3    H277702   0.106   5.911  12.772 -0.1751  0.6434  1.8099
18763TIP3   OH277703   0.885   6.439   6.843 -0.5906 -0.7362 -0.2473
18763TIP3    H177704   0.895   6.355   6.888  0.5508 -0.1262  0.6994
18763TIP3    H277705   0.871   6.502   6.914 -0.6953 -0.0192 -0.8991
18764TIP3   OH277706   3.758   4.932   3.268 -0.3228 -0.3038  0.0532
18764TIP3    H177707   3.785   4.931   3.359 -0.4378  2.4067  0.2058
18764TIP3    H277708   3.820   4.991   3.225 -0.7315 -0.9252 -1.4720
18765TIP3   OH277709   0.626   2.343   3.703  0.2583 -0.4136  1.2797
18765TIP3    H177710   0.608   2.387   3.620 -0.1998 -1.0055  1.0523
18765TIP3    H277711   0.671   2.408   3.756  3.1496 -0.8661 -0.4405
18766TIP3   OH277712   2.612   1.969   0.552  0.1671 -0.1749  0.3538
18766TIP3    H177713   2.674   2.042   0.556 -1.7752  1.6376 -0.9446
18766TIP3    H277714   2.558   1.979   0.630 -1.2631  0.9513 -0.7231
18767TIP3   OH277715   0.249   2.501  12.411 -0.9976  0.1132 -0.4331
18767TIP3    H177716   0.196   2.504  12.331 -2.4644 -1.9598  0.3534
18767TIP3    H277717   0.312   2.430  12.395 -0.0374  0.9544 -0.4407
18768TIP3   OH277718   3.326   6.152  15.201 -0.8074  0.1709 -0.0644
18768TIP3    H177719   3.421   6.152  15.215 -0.6493  0.0071 -1.0344
18768TIP3    H277720   3.292   6.213  15.266 -0.1146 -0.3067  0.7671
18769TIP3   OH277721   3.093   4.136  11.191 -0.1903  0.1766 -0.1582
18769TIP3    H177722   3.083   4.059  11.247 -0.3232  1.4676  1.6933
18769TIP3    H277723   3.011   4.184  11.202  0.7822  1.7565  0.6521
18770TIP3   OH277724   3.031   0.589   2.134  0.0925  0.0418 -0.7636
18770TIP3    H177725   2.981   0.609   2.213  0.2699 -1.6887 -0.1712
18770TIP3    H277726   3.095   0.661   2.128  2.5933 -1.5604  2.8229
18771TIP3   OH277727   1.048   6.449  12.766  0.0985 -0.0555  0.7748
18771TIP3    H177728   0.995   6.435  12.844 -1.4390 -0.5778 -0.3297
18771TIP3    H277729   1.075   6.361  12.740 -0.7539 -0.0430 -0.1872
18772TIP3   OH277730   2.589   5.547  15.592  0.0303  0.0851  0.0470
18772TIP3    H177731   2.583   5.534  15.687 -0.3387 -0.0172  0.0095
18772TIP3    H277732   2.522   5.612  15.572  0.3219  0.3449 -0.1012
18773TIP3   OH277733   3.360   2.237   1.216  0.4516 -0.8885  0.0601
18773TIP3    H177734   3.392   2.222   1.305  0.8937 -1.6188 -0.2099
18773TIP3    H277735   3.397   2.323   1.191 -1.5111  0.4069  1.3630
18774TIP3   OH277736   0.555   6.704  10.975  0.4272 -0.5161 -0.2311
18774TIP3    H177737   0.574   6.683  10.884 -0.1749  0.3021 -0.5616
18774TIP3    H277738   0.503   6.784  10.970 -0.0416 -0.7420  0.8056
18775TIP3   OH277739   6.063   0.018   0.110 -0.1086 -0.4336 -0.0534
18775TIP3    H177740   6.127   0.063   0.055 -0.6654  1.1044  0.4989
18775TIP3    H277741   6.022   0.088   0.161 -0.1979 -1.7097  1.7021
18776TIP3   OH277742   4.611   0.611  11.655 -0.8237 -0.1549  0.1244
18776TIP3    H177743   4.681   0.636  11.595 -0.0352 -0.3572  0.9285
18776TIP3    H277744   4.587   0.523  11.629 -0.1305 -0.4356  0.4154
18777TIP3   OH277745   3.011   2.878   3.743  0.5787 -0.5360 -0.0992
18777TIP3    H177746   2.934   2.846   3.696 -0.0779  0.2335  0.4247
18777TIP3    H277747   3.066   2.917   3.676 -0.7678  1.3822 -0.1791
18778TIP3   OH277748   1.054   2.396   5.639 -0.7025  0.1761 -0.0213
18778TIP3    H177749   1.047   2.486   5.609 -0.1483 -0.0345 -0.8212
18778TIP3    H277750   1.106   2.401   5.719 -2.3707  0.7701  1.0846
18779TIP3   OH277751   6.651   6.794   1.212  0.5524 -0.2366 -0.1780
18779TIP3    H177752   6.720   6.762   1.153  0.1877 -0.0839 -0.6944
18779TIP3    H277753   6.626   6.879   1.175 -0.9407 -0.9362 -0.8554
18780TIP3   OH277754   0.325   1.861  11.451 -0.0073  0.4734 -0.3071
18780TIP3    H177755   0.360   1.891  11.367  1.6379 -2.2392 -0.7293
18780TIP3    H277756   0.259   1.795  11.427 -0.6628  0.7985  0.5550
18781TIP3   OH277757   2.195   0.848   2.763 -0.2128 -0.2527 -0.1678
18781TIP3    H177758   2.262   0.916   2.759 -1.5755  1.1865  0.4895
18781TIP3    H277759   2.228   0.778   2.705  0.5529  1.5726 -2.0586
18782TIP3   OH277760   5.137   5.042   3.577 -0.2683 -0.2543  0.0537
18782TIP3    H177761   5.103   5.025   3.489 -0.3648  1.6617 -0.3116
18782TIP3    H277762   5.075   4.998   3.635 -2.7933  2.1063 -0.6669
18783TIP3   OH277763   6.123   5.890  14.334  0.1243 -0.7687  0.3284
18783TIP3    H177764   6.095   5.982  14.339 -3.0218 -1.4835 -1.1282
18783TIP3    H277765   6.126   5.862  14.425  1.7744  0.8853  0.8473
18784TIP3   OH277766   3.189   5.062   5.409  0.1608  0.3724  0.5489
18784TIP3    H177767   3.205   5.148   5.370  0.3251 -0.0950 -0.4405
18784TIP3    H277768   3.258   5.006   5.374  0.6856  0.0655  2.0109
18785TIP3   OH277769   4.371   2.927   3.616 -0.5690 -0.6077 -0.2540
18785TIP3    H177770   4.443   2.966   3.566  0.2083  1.0430  1.9498
18785TIP3    H277771   4.297   2.987   3.602 -0.4493 -0.3343  0.2462
18786TIP3   OH277772   6.703   4.517  15.563  0.3563 -0.5329 -0.1528
18786TIP3    H177773   6.794   4.489  15.573  0.5733  0.4903  0.8474
18786TIP3    H277774   6.651   4.445  15.600  0.6646 -1.6587 -1.7893
18787TIP3   OH277775   1.782   2.995   0.461  0.0369  0.0619 -0.3280
18787TIP3    H177776   1.697   3.033   0.439 -0.1664 -0.7935 -1.0882
18787TIP3    H277777   1.826   2.984   0.377  1.2265  1.2053  0.1244
18788TIP3   OH277778   4.253   0.329   3.222 -0.3713 -0.4823 -0.2291
18788TIP3    H177779   4.259   0.425   3.228 -3.5172 -0.1070 -1.6883
18788TIP3    H277780   4.331   0.304   3.172 -0.8220  1.6281 -2.1423
18789TIP3   OH277781   5.452   0.696   5.278  0.6530  0.1220  0.1411
18789TIP3    H177782   5.438   0.608   5.311  2.5136  0.3038  1.5862
18789TIP3    H277783   5.393   0.704   5.203  0.0705 -2.1447  0.3043
18790TIP3   OH277784   3.472   6.184   1.231 -0.2893 -0.1495 -0.1427
18790TIP3    H177785   3.532   6.124   1.187 -2.7568 -2.0342 -1.1321
18790TIP3    H277786   3.473   6.263   1.177  2.8872  0.8226  1.0926
18791TIP3   OH277787   5.469   0.687   4.097 -0.8094 -0.1659 -0.1926
18791TIP3    H177788   5.536   0.619   4.094 -0.0340  0.6163 -0.8952
18791TIP3    H277789   5.387   0.638   4.103 -0.4953 -1.3196 -3.3718
18792TIP3   OH277790   3.788   6.680   2.813 -0.3842  0.7730 -0.6720
18792TIP3    H177791   3.712   6.739   2.813 -0.2454  0.9764 -1.8808
18792TIP3    H277792   3.859   6.734   2.847 -0.8813  0.3955  1.0865
18793TIP3   OH277793   0.629   2.718  11.716 -0.2013 -0.3513  0.2112
18793TIP3    H177794   0.591   2.657  11.653 -1.3967  0.5124  0.0486
18793TIP3    H277795   0.588   2.802  11.694 -1.5093 -0.2199  2.8291
18794TIP3   OH277796   1.050   4.366  10.390  0.0941  0.3254  0.2372
18794TIP3    H177797   0.971   4.410  10.419  0.0443 -0.5058  1.4476
18794TIP3    H277798   1.024   4.274  10.381  0.9993 -0.0292  1.0345
18795TIP3   OH277799   0.834   1.737  15.372 -1.0300 -0.2501 -0.4152
18795TIP3    H177800   0.788   1.656  15.391 -0.4032 -0.4288  0.4404
18795TIP3    H277801   0.778   1.784  15.311 -2.0433 -0.7342  0.1275
18796TIP3   OH277802   6.235   2.396   2.371  0.1040 -0.2216  0.3377
18796TIP3    H177803   6.215   2.371   2.461 -1.0538 -1.4062 -0.2118
18796TIP3    H277804   6.150   2.401   2.329  0.2572  3.8633  0.1116
18797TIP3   OH277805   2.233   2.022  14.609 -0.6286  0.0080  0.1102
18797TIP3    H177806   2.258   2.113  14.620  0.1666 -0.1102 -0.6329
18797TIP3    H277807   2.264   1.979  14.689 -1.3103  0.4300  0.6181
18798TIP3   OH277808   5.546   2.277  15.117 -0.1969 -1.3462  0.2838
18798TIP3    H177809   5.623   2.332  15.133 -0.1807 -0.0538 -3.3934
18798TIP3    H277810   5.475   2.320  15.165  0.8767 -1.3189  1.9225
18799TIP3   OH277811   0.128   3.965   3.674 -0.2557 -0.4579 -0.2278
18799TIP3    H177812   0.190   3.940   3.606 -0.0571 -0.0773 -0.1880
18799TIP3    H277813   0.181   3.975   3.754  0.1434  2.4800 -0.7280
18800TIP3   OH277814   0.613   1.795   0.461 -0.1095  0.6929 -0.1727
18800TIP3    H177815   0.536   1.756   0.420 -1.3203  0.3488  2.2110
18800TIP3    H277816   0.687   1.747   0.425 -1.2672 -1.1019 -0.2966
18801TIP3   OH277817   5.758   0.826  11.456  0.9199  0.2259  0.3579
18801TIP3    H177818   5.778   0.734  11.476  2.2682  0.2411 -0.7826
18801TIP3    H277819   5.824   0.876  11.505  1.4596  0.4708 -0.6000
18802TIP3   OH277820   4.957   1.959  16.876  0.0043  0.7815  0.0404
18802TIP3    H177821   4.862   1.960  16.891 -0.0476 -0.1702 -0.1828
18802TIP3    H277822   4.975   2.043  16.834 -1.0423  0.2014 -1.6779
18803TIP3   OH277823   1.160   5.253  12.436  0.4386  0.2327  0.2592
18803TIP3    H177824   1.234   5.252  12.375  2.4079 -0.3325  2.4711
18803TIP3    H277825   1.164   5.340  12.477 -1.9602  1.2975 -1.5358
18804TIP3   OH277826   4.264   2.610  14.481  0.4903 -0.2652  0.0362
18804TIP3    H177827   4.322   2.552  14.530 -0.3655 -0.7519  0.4925
18804TIP3    H277828   4.323   2.665  14.429  1.3792 -0.3068  0.9762
18805TIP3   OH277829   6.184   4.409   2.727 -0.0754 -0.3475 -0.2596
18805TIP3    H177830   6.175   4.382   2.636 -2.4191  0.1560 -0.2325
18805TIP3    H277831   6.102   4.454   2.747  0.9607  0.8111  1.6898
18806TIP3   OH277832   3.149   6.249   2.643  0.5050 -0.1086 -0.2314
18806TIP3    H177833   3.140   6.155   2.658  1.7269 -0.4318 -1.2851
18806TIP3    H277834   3.241   6.260   2.616  0.6506  1.5201  0.7749
18807TIP3   OH277835   2.014   2.456  12.796  0.1836  0.1286  0.9625
18807TIP3    H177836   2.048   2.371  12.821  0.5624  0.1857  0.6533
18807TIP3    H277837   2.005   2.504  12.878  0.1317 -0.1494  1.1192
18808TIP3   OH277838   4.764   5.155   2.571 -0.1663  0.2523 -0.1103
18808TIP3    H177839   4.723   5.076   2.605  0.3615 -0.7612 -1.6803
18808TIP3    H277840   4.743   5.154   2.477  0.0472  1.8590 -0.2036
18809TIP3   OH277841   0.870   3.797  13.837 -0.1087  0.3583 -0.2889
18809TIP3    H177842   0.794   3.739  13.834  0.7961 -0.8896  0.1171
18809TIP3    H277843   0.843   3.869  13.894 -0.6291 -0.6352  0.7575
18810TIP3   OH277844   1.796   5.198  15.916 -0.4247 -0.2587 -0.0930
18810TIP3    H177845   1.784   5.287  15.883  1.3595  0.0290 -0.0801
18810TIP3    H277846   1.708   5.170  15.943 -1.1730  1.1332 -0.9650
18811TIP3   OH277847   4.536   6.679  12.731 -0.2196  0.5322  0.3556
18811TIP3    H177848   4.450   6.703  12.697 -0.4809  2.7946  2.3314
18811TIP3    H277849   4.518   6.616  12.801 -0.2538  0.7800  0.5718
18812TIP3   OH277850   0.338   6.716   1.366  0.8946  0.3246 -0.1462
18812TIP3    H177851   0.405   6.757   1.312  0.5821  0.1136 -0.7051
18812TIP3    H277852   0.310   6.640   1.315  0.4729  0.2190  0.2393
18813TIP3   OH277853   0.546   5.073  12.839 -0.1043  0.7666 -0.1127
18813TIP3    H177854   0.619   5.012  12.846  0.6507  1.6984  0.2907
18813TIP3    H277855   0.478   5.023  12.792 -0.0249 -0.8288  1.3589
18814TIP3   OH277856   0.445   2.256  15.620  0.1406 -0.2336 -0.2907
18814TIP3    H177857   0.386   2.215  15.557 -0.3900 -0.3013  0.2303
18814TIP3    H277858   0.488   2.183  15.664  1.1216 -0.1744 -1.1200
18815TIP3   OH277859   2.893   1.173   2.023  0.5135  0.4594 -0.0025
18815TIP3    H177860   2.916   1.265   2.021 -1.1323  0.8998 -0.1348
18815TIP3    H277861   2.893   1.145   1.932 -1.8712  1.1451 -0.2824
18816TIP3   OH277862   2.551   2.718  14.644  0.4036  0.2130  0.1142
18816TIP3    H177863   2.552   2.649  14.578 -0.5441  0.0457  0.2655
18816TIP3    H277864   2.643   2.733  14.664  0.6213 -1.0754  0.1520
18817TIP3   OH277865   1.901   3.931  10.537  0.2666 -0.0619  0.0235
18817TIP3    H177866   1.994   3.910  10.528 -0.0257 -0.5971 -2.3882
18817TIP3    H277867   1.896   4.025  10.517  0.4152  0.2727  1.4602
18818TIP3   OH277868   0.521   1.445   5.569  0.0967  0.5132  0.3028
18818TIP3    H177869   0.521   1.489   5.484  0.5676  0.1662  0.1207
18818TIP3    H277870   0.609   1.408   5.578 -0.0760  0.1896  0.7562
18819TIP3   OH277871   0.645   1.488  12.525 -0.1154 -0.0278 -0.4233
18819TIP3    H177872   0.594   1.508  12.447 -0.2374 -2.3145 -1.0050
18819TIP3    H277873   0.623   1.557  12.587 -1.3533  0.8733 -1.8061
18820TIP3   OH277874   2.901   1.581   1.806  0.5659  0.0503 -0.5851
18820TIP3    H177875   2.876   1.509   1.748 -1.9663 -0.2168  0.6993
18820TIP3    H277876   2.935   1.538   1.885  2.9638  0.4014 -1.3362
18821TIP3   OH277877   1.254   4.392  14.789  0.1551 -0.5266  0.0930
18821TIP3    H177878   1.205   4.351  14.860 -1.4647 -3.1308 -2.3311
18821TIP3    H277879   1.194   4.459  14.755 -0.5562 -1.6668 -0.9674
18822TIP3   OH277880   5.633   3.117   0.427 -0.2849 -0.7038 -0.1774
18822TIP3    H177881   5.691   3.047   0.394 -0.1892 -0.2496 -1.0118
18822TIP3    H277882   5.607   3.165   0.348  0.4646  0.8236  0.4662
18823TIP3   OH277883   3.520   4.387  11.097  0.0163 -0.1801 -0.5643
18823TIP3    H177884   3.449   4.346  11.047  1.4863 -1.6515 -1.5600
18823TIP3    H277885   3.536   4.326  11.169 -0.0876  0.4321 -0.0168
18824TIP3   OH277886   3.171   3.841   1.502 -0.4716 -0.2646 -0.3023
18824TIP3    H177887   3.259   3.809   1.482  0.2823  0.9481  0.8411
18824TIP3    H277888   3.169   3.843   1.598 -1.7946 -0.3838 -0.3215
18825TIP3   OH277889   4.973   1.341  15.280  0.1684 -0.2914 -0.0212
18825TIP3    H177890   4.944   1.348  15.189 -0.1425  1.9904  0.1811
18825TIP3    H277891   5.054   1.291  15.276  0.8809  0.9309 -1.7603
18826TIP3   OH277892   5.195   5.352   6.253 -0.3173 -0.6446 -0.3474
18826TIP3    H177893   5.236   5.328   6.170 -0.8926 -0.3965 -0.7086
18826TIP3    H277894   5.171   5.269   6.294 -1.1492 -0.7420 -1.0073
18827TIP3   OH277895   2.154   4.391   0.384  0.3344 -0.4475  0.3472
18827TIP3    H177896   2.134   4.325   0.317 -1.3787  0.2677  0.0877
18827TIP3    H277897   2.071   4.402   0.432  1.3172 -0.4069  2.1239
18828TIP3   OH277898   6.154   5.901   4.491  0.1785 -0.5005  0.4031
18828TIP3    H177899   6.212   5.855   4.551 -0.0023 -0.6640  0.4523
18828TIP3    H277900   6.125   5.978   4.539  1.4694  0.3389 -0.1199
18829TIP3   OH277901   6.698   1.946  11.718  0.2887 -0.4492  0.0476
18829TIP3    H177902   6.717   1.929  11.625  0.0097  1.6388 -0.4657
18829TIP3    H277903   6.756   2.019  11.740 -1.2378  0.5931  0.8237
18830TIP3   OH277904   6.780   3.848   2.060 -0.0521  0.2544 -0.1895
18830TIP3    H177905   6.686   3.844   2.047 -0.2432 -0.5965  1.2809
18830TIP3    H277906   6.793   3.921   2.120  0.1409 -0.0730  0.1746
18831TIP3   OH277907   1.686   2.070   0.518  0.2050  0.6428  0.7471
18831TIP3    H177908   1.641   2.017   0.583  0.6683 -1.0756 -0.2587
18831TIP3    H277909   1.690   2.158   0.556 -0.1081 -0.1560  2.7162
18832TIP3   OH277910   3.071   1.971   5.127  0.3865  0.1813 -0.5267
18832TIP3    H177911   3.161   1.995   5.148  0.4926 -0.3086 -0.4015
18832TIP3    H277912   3.077   1.880   5.099  0.1096  0.5116 -1.7473
18833TIP3   OH277913   3.546   4.492  16.365 -0.5027  0.2691 -0.1082
18833TIP3    H177914   3.545   4.405  16.406 -0.3408 -0.2033 -1.0790
18833TIP3    H277915   3.562   4.474  16.272 -0.9622  1.3069 -0.4011
18834TIP3   OH277916   5.255   6.320  11.186  0.0082 -0.3948 -0.1689
18834TIP3    H177917   5.181   6.314  11.125 -0.3228 -0.5871  0.2420
18834TIP3    H277918   5.223   6.277  11.265  0.1297  0.5846  0.4328
18835TIP3   OH277919   3.048   4.856   1.601  0.2746  0.5919 -0.0297
18835TIP3    H177920   3.082   4.836   1.513 -0.0885 -1.0604  0.1836
18835TIP3    H277921   3.031   4.950   1.599  1.3483  0.7845 -1.3579
18836TIP3   OH277922   4.973   1.997   5.551 -0.4353 -0.8116  0.2591
18836TIP3    H177923   5.059   1.956   5.565  0.1267  0.8645  2.2677
18836TIP3    H277924   4.917   1.960   5.619 -0.2325  0.8007  1.3549
18837TIP3   OH277925   6.354   4.113  13.840 -0.5746 -0.0363  0.2272
18837TIP3    H177926   6.385   4.202  13.822 -1.3829  0.0351 -0.8892
18837TIP3    H277927   6.263   4.125  13.870 -0.3728 -0.4259  1.0273
18838TIP3   OH277928   5.768   5.663   5.935  0.1261 -0.4744  0.2133
18838TIP3    H177929   5.844   5.709   5.971 -0.0067 -1.5119  1.9028
18838TIP3    H277930   5.806   5.591   5.885  0.2565 -0.7380  0.6930
18839TIP3   OH277931   5.709   4.951   0.346 -0.0520  0.5970 -0.5425
18839TIP3    H177932   5.724   5.039   0.311 -0.1976  1.2688  1.0074
18839TIP3    H277933   5.619   4.954   0.380  0.3364  0.2105  0.5470
18840TIP3   OH277934   6.056   3.297  14.150 -0.1641  0.2533 -0.6363
18840TIP3    H177935   6.055   3.201  14.155 -0.2113  0.3115  1.6200
18840TIP3    H277936   5.964   3.321  14.142 -0.3558  0.1277  0.8746
18841TIP3   OH277937   1.588   5.738  15.203  0.3306  0.0903 -0.0916
18841TIP3    H177938   1.496   5.761  15.193  0.2991 -0.5203 -1.4528
18841TIP3    H277939   1.591   5.680  15.279 -0.5057 -0.3855 -0.4156
18842TIP3   OH277940   6.349   3.167   4.322  0.1189  0.3357  0.3500
18842TIP3    H177941   6.413   3.220   4.369  0.3718  1.0812 -0.7919
18842TIP3    H277942   6.265   3.187   4.363  0.4706  0.1556  1.1650
18843TIP3   OH277943   1.657   5.160  10.549  0.0299  0.2984 -0.1610
18843TIP3    H177944   1.591   5.189  10.486  0.5899  0.7408 -0.5569
18843TIP3    H277945   1.670   5.236  10.606 -1.0265 -0.3408  0.9910
18844TIP3   OH277946   6.575   5.990  14.899 -0.1072  0.4654 -0.0450
18844TIP3    H177947   6.560   5.896  14.912 -1.8489  0.4347 -1.6883
18844TIP3    H277948   6.584   6.026  14.987 -0.9008 -1.0392  0.6962
18845TIP3   OH277949   3.256   4.128   3.147  0.2273  0.2468  0.2868
18845TIP3    H177950   3.198   4.059   3.115 -1.5937  1.8582 -0.0541
18845TIP3    H277951   3.206   4.170   3.217  0.1880  2.8371 -1.2114
18846TIP3   OH277952   0.746   1.975   3.339 -0.3726 -0.2313  0.0384
18846TIP3    H177953   0.672   1.941   3.389  0.7979 -1.3101  1.1052
18846TIP3    H277954   0.711   1.990   3.252 -1.6150 -1.6331  0.2561
18847TIP3   OH277955   6.588   6.043  12.677 -0.2973 -0.0279 -0.2255
18847TIP3    H177956   6.544   6.060  12.760 -0.5103 -2.9400  0.3890
18847TIP3    H277957   6.678   6.023  12.702  0.0768  0.7551 -0.9137
18848TIP3   OH277958   3.558   3.156   0.183 -0.6447  0.3586  0.1443
18848TIP3    H177959   3.613   3.164   0.105 -3.1739 -0.8781 -1.9342
18848TIP3    H277960   3.619   3.136   0.254  1.4964 -2.0798 -2.1771
18849TIP3   OH277961   4.867   4.363  15.115 -0.1279  0.0571  0.1692
18849TIP3    H177962   4.824   4.420  15.177  0.0185  0.6458 -0.2632
18849TIP3    H277963   4.876   4.415  15.035  1.7061  0.0860  0.3456
18850TIP3   OH277964   2.644   0.587   1.161 -0.3104  0.1518  0.3461
18850TIP3    H177965   2.716   0.572   1.101  0.8890  2.5178  1.0684
18850TIP3    H277966   2.601   0.502   1.170  1.4642 -0.9720 -1.2691
18851TIP3   OH277967   4.814   0.952   0.354  0.5976 -0.4258 -0.1693
18851TIP3    H177968   4.798   0.929   0.445  2.4008  0.9024  0.5330
18851TIP3    H277969   4.828   0.869   0.310  1.1884 -1.0131  1.0868
18852TIP3   OH277970   4.500   5.088  16.612 -0.1065 -0.9563 -0.1471
18852TIP3    H177971   4.427   5.029  16.627 -1.4326  1.2176  3.1581
18852TIP3    H277972   4.571   5.053  16.666 -0.9395  0.3740  1.9312
18853TIP3   OH277973   5.894   3.456  17.042  0.1551 -0.0585 -0.7444
18853TIP3    H177974   5.986   3.479  17.058 -0.3178  1.3350  0.2140
18853TIP3    H277975   5.881   3.376  17.094  0.6642  0.0887 -0.3707
18854TIP3   OH277976   4.771   6.770  16.458  0.0320 -0.0389 -0.2872
18854TIP3    H177977   4.711   6.711  16.412 -1.4908  2.2298 -1.3902
18854TIP3    H277978   4.828   6.711  16.508 -1.3889 -2.4208 -1.2712
18855TIP3   OH277979   1.271   0.683  16.390 -0.1718  0.4675  0.2869
18855TIP3    H177980   1.238   0.729  16.467 -0.9914  0.5575 -0.1070
18855TIP3    H277981   1.205   0.617  16.371  0.9444 -0.8282  0.7734
18856TIP3   OH277982   3.106   5.265   5.619 -0.1214  0.1491 -0.2713
18856TIP3    H177983   3.183   5.309   5.654 -0.5015  1.8384 -1.4422
18856TIP3    H277984   3.137   5.178   5.593  0.7262 -0.2292  1.7767
18857TIP3   OH277985   2.795   4.444   1.141  0.0185 -0.4240 -0.2361
18857TIP3    H177986   2.810   4.484   1.226  1.6024  0.1163 -0.7343
18857TIP3    H277987   2.809   4.350   1.155 -0.2194 -0.3925  0.2022
18858TIP3   OH277988   6.610   5.348  13.465 -0.0328  0.3845  0.3630
18858TIP3    H177989   6.642   5.417  13.407 -1.1296  0.0540 -0.6741
18858TIP3    H277990   6.529   5.383  13.501  1.2355  1.1033  2.7415
18859TIP3   OH277991   0.711   1.203   5.943  0.5950 -0.6412 -0.3861
18859TIP3    H177992   0.659   1.274   5.905 -0.1087 -0.1190  1.4387
18859TIP3    H277993   0.799   1.215   5.908  0.8156  1.9574  0.8583
18860TIP3   OH277994   2.075   3.784  14.710  0.6404 -0.4496  0.0263
18860TIP3    H177995   2.008   3.727  14.747 -0.4967  1.1156  0.4754
18860TIP3    H277996   2.067   3.773  14.615 -0.9256  0.4039  0.0313
18861TIP3   OH277997   5.228   4.099   0.901  0.3244 -0.2722  0.3478
18861TIP3    H177998   5.225   4.194   0.910  1.6436 -0.1766 -0.0505
18861TIP3    H277999   5.262   4.084   0.813 -0.4305 -1.1282  0.1858
18862TIP3   OH278000   3.228   6.461  14.168 -0.1767  0.1676 -0.1293
18862TIP3    H178001   3.285   6.388  14.144 -0.5861 -0.5725  1.0699
18862TIP3    H278002   3.229   6.462  14.263  0.1554  2.0114 -0.1120
18863TIP3   OH278003   0.211   0.699   3.873 -0.2950 -0.3392 -0.1065
18863TIP3    H178004   0.144   0.725   3.937 -0.5805  0.5741 -0.7418
18863TIP3    H278005   0.239   0.782   3.834 -1.0773 -0.9341 -2.0720
18864TIP3   OH278006   4.256   3.039  15.949 -0.2260 -0.1736  0.1626
18864TIP3    H178007   4.173   3.075  15.981 -1.5452 -2.6856 -0.1462
18864TIP3    H278008   4.257   2.949  15.982  1.4998 -0.7755 -1.3841
18865TIP3   OH278009   3.551   0.136  13.711  0.5704 -0.0296  0.2804
18865TIP3    H178010   3.576   0.126  13.803  1.6421 -0.2548 -0.0162
18865TIP3    H278011   3.578   0.225  13.688  3.2233 -0.9758 -0.6292
18866TIP3   OH278012   2.961   1.492   0.070  0.7740 -0.0316 -0.2977
18866TIP3    H178013   3.002   1.433   0.007  0.8701  0.1633 -0.4180
18866TIP3    H278014   2.880   1.520   0.026 -0.2518 -1.5478  0.5100
18867TIP3   OH278015   2.390   2.774  12.729  0.1307  0.0579  0.8596
18867TIP3    H178016   2.353   2.724  12.801 -0.0023 -1.8075 -0.4260
18867TIP3    H278017   2.464   2.721  12.699  1.2534  1.6347  0.6822
18868TIP3   OH278018   4.430   5.115  16.336  0.4192 -1.1167 -0.7609
18868TIP3    H178019   4.471   5.125  16.422  0.3166  0.6629 -0.8821
18868TIP3    H278020   4.434   5.021  16.318  0.5387 -1.5097  1.1301
18869TIP3   OH278021   6.359   5.788  12.577 -0.4628  0.1346 -0.2748
18869TIP3    H178022   6.283   5.751  12.533  0.4761  0.3061 -2.1198
18869TIP3    H278023   6.323   5.856  12.634 -1.7455 -0.3394 -0.4991
18870TIP3   OH278024   3.927   2.621  11.897  0.3479 -0.2935  0.0878
18870TIP3    H178025   3.989   2.642  11.827  0.4453 -0.8174  0.0161
18870TIP3    H278026   3.950   2.682  11.967 -0.3475  0.8687 -0.6664
18871TIP3   OH278027   0.715   0.557   3.193 -0.2497  0.8001 -0.5219
18871TIP3    H178028   0.631   0.577   3.235 -0.4102 -0.2379 -0.2956
18871TIP3    H278029   0.700   0.570   3.100 -0.8242  0.1627 -0.5307
18872TIP3   OH278030   4.655   3.473  14.296 -0.0193 -0.4090 -0.4485
18872TIP3    H178031   4.719   3.486  14.366 -1.5072 -0.5524  1.0022
18872TIP3    H278032   4.704   3.429  14.227  1.5110 -0.2622  0.4910
18873TIP3   OH278033   2.443   6.555   4.840 -0.5160  0.3010 -0.0395
18873TIP3    H178034   2.392   6.504   4.904 -0.9909 -0.7707 -1.2350
18873TIP3    H278035   2.451   6.497   4.764  0.4502  1.3694 -0.7795
18874TIP3   OH278036   1.769   1.104  12.747  0.6122  0.1974  0.2158
18874TIP3    H178037   1.786   1.046  12.673 -1.2583  0.4196 -0.4588
18874TIP3    H278038   1.719   1.049  12.809  1.5885  0.2051  1.0402
18875TIP3   OH278039   6.080   2.853   3.876 -0.1221  0.8527  0.2370
18875TIP3    H178040   6.074   2.921   3.943 -1.7145 -0.3513  1.4010
18875TIP3    H278041   6.001   2.799   3.890 -0.3273  0.3618 -2.3977
18876TIP3   OH278042   6.606   2.623  13.765  0.2011  0.1392 -0.3182
18876TIP3    H178043   6.673   2.638  13.699  0.6393  1.5660  0.4079
18876TIP3    H278044   6.615   2.697  13.826 -1.9068  0.2926 -0.1131
18877TIP3   OH278045   6.694   5.377  14.866  0.6135  0.2326  0.2135
18877TIP3    H178046   6.776   5.425  14.855  1.4934 -0.5137  2.8190
18877TIP3    H278047   6.636   5.439  14.911  0.7856 -0.1839  1.0288
18878TIP3   OH278048   1.977   1.992  16.878  0.2027 -0.2089  0.5668
18878TIP3    H178049   1.885   1.968  16.875 -0.2429  1.3754  0.9261
18878TIP3    H278050   1.994   2.035  16.794  0.4776 -0.0259  0.7122
18879TIP3   OH278051   1.584   3.738   3.480 -0.1011 -0.1010 -0.5265
18879TIP3    H178052   1.522   3.727   3.408  0.2388  0.0022 -0.8328
18879TIP3    H278053   1.540   3.696   3.555  0.4875 -2.2403 -1.2892
18880TIP3   OH278054   6.173   4.391  16.523 -0.2476 -0.0317  0.0827
18880TIP3    H178055   6.140   4.405  16.434 -0.3225 -2.6464 -0.3777
18880TIP3    H278056   6.096   4.371  16.575 -0.0232 -0.0756  0.4005
18881TIP3   OH278057   3.618   4.304   6.525  0.5219 -0.0482  0.3518
18881TIP3    H178058   3.632   4.311   6.431  0.9482  1.4187  0.5093
18881TIP3    H278059   3.538   4.353   6.542  0.7926  0.2346  0.8362
18882TIP3   OH278060   1.622   1.215   4.078 -0.8050 -0.2246 -0.4953
18882TIP3    H178061   1.651   1.183   4.163 -0.0349  1.1106 -0.2277
18882TIP3    H278062   1.562   1.287   4.098 -1.6852 -0.7735 -1.0823
18883TIP3   OH278063   4.782   2.401   3.164 -0.1994 -0.0746  0.2923
18883TIP3    H178064   4.817   2.351   3.238  0.3433  1.4628  1.1097
18883TIP3    H278065   4.849   2.467   3.146 -0.2814 -0.4530 -1.6487
18884TIP3   OH278066   2.829   3.478   0.151  0.5974  0.1706 -0.3578
18884TIP3    H178067   2.813   3.435   0.235  1.3238  0.0971 -0.2452
18884TIP3    H278068   2.901   3.427   0.112 -0.4986 -0.5180 -1.5548
18885TIP3   OH278069   3.789   5.185  13.729 -0.4061 -0.0227 -0.3875
18885TIP3    H178070   3.825   5.097  13.735 -1.5898 -0.4530  0.8912
18885TIP3    H278071   3.858   5.242  13.762  1.5895 -0.0366 -4.0350
18886TIP3   OH278072   6.542   4.818  16.267 -0.3591 -0.0067 -1.0402
18886TIP3    H178073   6.567   4.736  16.310 -1.0916  0.1698 -0.2521
18886TIP3    H278074   6.514   4.791  16.180 -0.3422 -0.5691 -0.8815
18887TIP3   OH278075   1.000   3.870  15.831 -0.3515 -0.5692 -0.2593
18887TIP3    H178076   1.045   3.879  15.915 -0.0254 -4.2779  0.1494
18887TIP3    H278077   0.918   3.826  15.853 -0.2106 -1.6922 -1.8308
18888TIP3   OH278078   2.423   2.316  12.917  0.1819  0.5508  0.4647
18888TIP3    H178079   2.475   2.258  12.973 -0.2410  0.1650  0.4575
18888TIP3    H278080   2.469   2.315  12.833  0.3549  0.4808  0.5597
18889TIP3   OH278081   5.287   4.140  15.034 -0.2934 -0.5327  0.8144
18889TIP3    H178082   5.370   4.092  15.028 -0.9411 -1.5368 -1.8218
18889TIP3    H278083   5.225   4.075  15.067 -0.8658 -1.1708 -1.3633
18890TIP3   OH278084   4.311   5.519  16.312  0.3243 -0.0948 -0.3514
18890TIP3    H178085   4.389   5.544  16.361  0.4239  2.4185 -1.6632
18890TIP3    H278086   4.258   5.598  16.308 -1.3026 -1.1592 -1.3524
18891TIP3   OH278087   2.284   1.558  12.275  0.1806 -0.0754  0.1683
18891TIP3    H178088   2.235   1.617  12.332 -2.1547 -1.5405 -0.2039
18891TIP3    H278089   2.364   1.538  12.324 -0.8757  0.2038  2.0921
18892TIP3   OH278090   3.321   0.751   6.694  0.1579  0.0350  0.6567
18892TIP3    H178091   3.230   0.724   6.686  0.5939 -1.0458 -1.0291
18892TIP3    H278092   3.327   0.831   6.642  0.5083 -0.8280 -0.6855
18893TIP3   OH278093   3.501   3.350   3.425 -0.0226  0.4638 -0.7507
18893TIP3    H178094   3.446   3.399   3.364  0.0674  0.7614 -0.5966
18893TIP3    H278095   3.590   3.372   3.399  0.0154  0.8429 -0.3146
18894TIP3   OH278096   5.307   6.505  14.776 -0.3016  0.5110  0.4926
18894TIP3    H178097   5.298   6.599  14.793  1.6419  0.8065  0.0603
18894TIP3    H278098   5.275   6.493  14.686  1.2937  1.1339 -0.1921
18895TIP3   OH278099   2.122   1.257  13.689 -0.0802 -0.9843 -0.1460
18895TIP3    H178100   2.153   1.279  13.601 -0.1892 -0.8330 -0.1473
18895TIP3    H278101   2.048   1.199  13.675 -1.2798  0.4991 -0.2140
18896TIP3   OH278102   3.340   5.716  16.153  0.8208 -0.2698 -0.5000
18896TIP3    H178103   3.354   5.809  16.136 -0.9646  0.1682  0.1992
18896TIP3    H278104   3.265   5.693  16.098 -1.3827 -0.2397  2.2723
18897TIP3   OH278105   1.546   1.122  12.439  0.7077 -0.2002 -0.3481
18897TIP3    H178106   1.630   1.165  12.424  0.5096  0.2725 -0.1120
18897TIP3    H278107   1.480   1.187  12.415  0.3925  0.1132  1.2391
18898TIP3   OH278108   0.475   0.347  14.777  0.3141  0.1543 -0.1210
18898TIP3    H178109   0.468   0.260  14.737  0.7167  0.0791 -0.0308
18898TIP3    H278110   0.467   0.408  14.704  0.4633  0.0319 -0.2389
18899TIP3   OH278111   0.403   3.806   1.242 -0.3573  0.8052  0.3314
18899TIP3    H178112   0.496   3.825   1.226 -0.9472  2.7544 -1.2739
18899TIP3    H278113   0.377   3.867   1.311 -0.2618 -0.3407  1.3955
18900TIP3   OH278114   2.754   0.727   2.706 -0.2409  0.0522  0.0115
18900TIP3    H178115   2.670   0.709   2.666 -0.2141 -1.7134  0.6708
18900TIP3    H278116   2.805   0.646   2.694  1.2045  0.9229  0.0043
18901TIP3   OH278117   5.111   4.192  16.888 -0.6634 -0.1388  0.2042
18901TIP3    H178118   5.061   4.146  16.820 -0.5920 -0.6340  0.4826
18901TIP3    H278119   5.202   4.168  16.871 -0.7884 -1.6609  1.4949
18902TIP3   OH278120   1.946   2.181  16.389  0.2234  0.3004 -0.0641
18902TIP3    H178121   1.894   2.193  16.468  1.4239  0.0181  0.8046
18902TIP3    H278122   1.914   2.248  16.329 -0.0558  1.1678  1.0084
18903TIP3   OH278123   2.225   5.722   1.863 -0.2896  0.4746  0.2811
18903TIP3    H178124   2.302   5.717   1.919 -0.1443  0.5339  0.0859
18903TIP3    H278125   2.170   5.649   1.892 -0.4071  0.7598  0.7854
18904TIP3   OH278126   1.033   1.357   1.296 -0.4905  0.4028 -0.0349
18904TIP3    H178127   1.035   1.270   1.255  0.7141  1.2231 -1.8549
18904TIP3    H278128   0.949   1.394   1.269 -0.5004  0.2359 -0.2383
18905TIP3   OH278129   4.251   0.020   0.623 -0.3214  0.0990 -0.1056
18905TIP3    H178130   4.331  -0.027   0.646  0.2046  0.1202 -1.7595
18905TIP3    H278131   4.183  -0.021   0.676  0.3622 -1.6152 -0.4852
18906TIP3   OH278132   5.447   6.363  12.679  0.7007  0.0478 -0.3211
18906TIP3    H178133   5.413   6.411  12.754 -1.3914  1.2396 -1.9200
18906TIP3    H278134   5.452   6.272  12.710 -1.4248  0.2727  0.8704
18907TIP3   OH278135   4.339   4.510  12.449  0.0084 -0.1022 -0.1081
18907TIP3    H178136   4.247   4.505  12.474  0.0815 -0.0058  0.1986
18907TIP3    H278137   4.340   4.563  12.369 -0.0110  1.9912  1.1780
18908TIP3   OH278138   1.839   4.699   5.492  0.1223 -0.1494 -0.3011
18908TIP3    H178139   1.774   4.722   5.426  0.1928 -0.4307 -0.4712
18908TIP3    H278140   1.788   4.665   5.565  0.0967 -0.8251 -0.6205
18909TIP3   OH278141   5.774   2.138  16.218  0.1508 -0.9249 -0.0379
18909TIP3    H178142   5.844   2.112  16.158  1.6193  0.7663  0.8480
18909TIP3    H278143   5.698   2.153  16.162  1.4982  0.6810 -1.5484
18910TIP3   OH278144   0.213   0.983   4.113 -0.4264 -0.7173 -0.2357
18910TIP3    H178145   0.154   0.909   4.132  1.4549 -2.0236  0.8634
18910TIP3    H278146   0.257   0.958   4.032 -0.4157 -0.3651 -0.3408
18911TIP3   OH278147   3.542   0.075   3.605 -0.4641 -0.0384  1.1138
18911TIP3    H178148   3.479   0.146   3.591 -2.4046 -1.5572  1.6104
18911TIP3    H278149   3.589   0.101   3.684 -1.4188  0.5430  1.5190
18912TIP3   OH278150   5.778   4.732   4.334  0.6375  0.6080 -0.1175
18912TIP3    H178151   5.771   4.828   4.335 -0.2481  0.5543 -0.4748
18912TIP3    H278152   5.817   4.710   4.418 -1.7688  1.0911  1.2018
18913TIP3   OH278153   4.553   4.728   4.282  0.1319 -0.4877  0.7266
18913TIP3    H178154   4.576   4.801   4.224 -0.1671  0.1330  1.3712
18913TIP3    H278155   4.618   4.731   4.352 -0.6916  0.0232  1.4820
18914TIP3   OH278156   6.189   2.489   6.011 -0.1283  0.2609 -0.3402
18914TIP3    H178157   6.103   2.466   5.975 -0.2348 -0.9343  0.6097
18914TIP3    H278158   6.250   2.430   5.969  0.0377  0.2266 -0.0533
18915TIP3   OH278159   4.079   0.840   1.391  0.5245  0.2595  0.3263
18915TIP3    H178160   4.011   0.777   1.367 -0.0426  0.9460  0.0734
18915TIP3    H278161   4.154   0.817   1.337 -0.0849  0.5536 -0.6701
18916TIP3   OH278162   0.349   1.333  16.999 -0.1489  0.4575  0.6907
18916TIP3    H178163   0.409   1.365  17.067 -0.3582  0.6600  0.7829
18916TIP3    H278164   0.399   1.266  16.953 -0.2335 -0.1554  1.4697
18917TIP3   OH278165   1.131   4.003   3.410 -0.3633 -0.5669 -0.6311
18917TIP3    H178166   1.171   3.939   3.352  1.4905 -0.8377  0.8193
18917TIP3    H278167   1.117   4.080   3.355  1.9458 -0.5686 -1.3503
18918TIP3   OH278168   0.804   3.967  13.481  0.4537  0.1531  0.3385
18918TIP3    H178169   0.752   4.004  13.552 -3.3631 -0.4182 -1.8888
18918TIP3    H278170   0.805   3.873  13.499  0.3969  0.1222  0.1795
18919TIP3   OH278171   5.558   5.220  16.596  0.1379  0.8211 -0.3751
18919TIP3    H178172   5.646   5.210  16.560 -0.1347  1.9036 -1.3954
18919TIP3    H278173   5.502   5.233  16.520 -1.2316 -1.6326  0.0908
18920TIP3   OH278174   2.132   4.878  14.683 -0.1128  0.6157  0.2028
18920TIP3    H178175   2.127   4.827  14.602  2.6423  0.4060  0.0767
18920TIP3    H278176   2.201   4.836  14.733  2.0220  3.8528  0.3003
18921TIP3   OH278177   4.983   3.297  13.521  0.3432 -0.1862  0.1171
18921TIP3    H178178   4.922   3.350  13.471  1.8565  0.0859 -1.5501
18921TIP3    H278179   5.005   3.350  13.597  0.4151  0.7888 -0.5718
18922TIP3   OH278180   5.979   3.417   1.243 -0.1421  0.0674  0.2942
18922TIP3    H178181   6.059   3.409   1.294  0.4468  1.2689 -0.4000
18922TIP3    H278182   5.908   3.410   1.307  0.2565 -4.8563  0.5684
18923TIP3   OH278183   6.363   6.777  12.428 -0.3534 -0.1044  0.4371
18923TIP3    H178184   6.348   6.863  12.466 -0.1038  0.3635 -0.5075
18923TIP3    H278185   6.286   6.726  12.454 -0.8380  0.6022  0.4157
18924TIP3   OH278186   5.843   0.453  14.072 -0.4671  0.0776  0.0547
18924TIP3    H178187   5.862   0.546  14.066 -1.6516  0.2507 -1.7124
18924TIP3    H278188   5.786   0.445  14.148  0.3468  0.6478  0.7405
18925TIP3   OH278189   2.602   1.837  15.511 -0.9647 -0.4255  0.7194
18925TIP3    H178190   2.687   1.819  15.470 -1.3875 -1.4449  0.2558
18925TIP3    H278191   2.560   1.899  15.451 -0.0072  1.2520  1.6812
18926TIP3   OH278192   0.515   3.055  13.899 -0.3350 -0.0732 -0.2767
18926TIP3    H178193   0.447   3.062  13.966  0.6060 -0.8325  0.7954
18926TIP3    H278194   0.550   3.144  13.890 -1.3260  0.2823 -0.7040
18927TIP3   OH278195   1.213   2.054   3.742  0.2769 -0.0814  0.4051
18927TIP3    H178196   1.126   2.078   3.710  0.2136 -1.0511 -0.2090
18927TIP3    H278197   1.212   2.079   3.834 -0.3960  0.5856  0.2294
18928TIP3   OH278198   0.953   4.765   4.180 -0.0993 -0.6954 -0.0680
18928TIP3    H178199   0.980   4.756   4.088 -0.4557  1.1787 -0.4014
18928TIP3    H278200   0.886   4.698   4.191  0.1101 -1.1039 -1.1167
18929TIP3   OH278201   2.089   4.504   4.365  0.3581 -0.0018  0.0110
18929TIP3    H178202   2.073   4.598   4.359  1.7162  0.3279  0.9985
18929TIP3    H278203   2.184   4.496   4.362  0.3456 -1.1755  1.6657
18930TIP3   OH278204   6.625   0.918   4.840 -0.1040 -0.2733 -0.1534
18930TIP3    H178205   6.716   0.937   4.863 -0.3117 -0.0393  0.4856
18930TIP3    H278206   6.613   0.958   4.753  0.0923  0.6318  0.2301
18931TIP3   OH278207   4.590   1.360  14.212  0.4235  0.3834  0.0540
18931TIP3    H178208   4.567   1.411  14.135 -0.5894  0.3177  0.2926
18931TIP3    H278209   4.563   1.415  14.286 -0.0398 -0.1917  0.3228
18932TIP3   OH278210   1.589   1.555   5.149  0.5051  0.3719  0.0552
18932TIP3    H178211   1.501   1.528   5.172  0.9161 -1.7708 -0.6556
18932TIP3    H278212   1.578   1.609   5.071 -0.1298 -0.8088 -0.6986
18933TIP3   OH278213   4.653   4.488   3.076 -0.6952  0.0029  0.0296
18933TIP3    H178214   4.715   4.558   3.056  1.9634 -0.9562  3.7353
18933TIP3    H278215   4.700   4.407   3.055 -0.7075 -0.7446  2.5367
18934TIP3   OH278216   1.362   2.107   4.702 -0.1528 -0.1078 -0.3428
18934TIP3    H178217   1.370   2.144   4.791 -0.4422  2.8434 -1.4150
18934TIP3    H278218   1.276   2.066   4.701 -0.4269  0.4086  0.5577
18935TIP3   OH278219   1.020   3.814  16.792 -0.3061  0.1259  0.2541
18935TIP3    H178220   1.030   3.821  16.697 -0.5896 -0.5993  0.1647
18935TIP3    H278221   0.926   3.820  16.806 -0.5625 -2.7638  0.2000
18936TIP3   OH278222   3.287   5.019  11.219  0.3773 -0.0557  0.4113
18936TIP3    H178223   3.267   5.092  11.277 -0.5129  0.8882 -1.0045
18936TIP3    H278224   3.378   5.034  11.193  0.5383 -0.0587  0.9815
18937TIP3   OH278225   4.137   1.263  12.430 -0.3008  0.1049  0.2073
18937TIP3    H178226   4.095   1.224  12.507 -1.4198 -0.0566 -0.4592
18937TIP3    H278227   4.224   1.288  12.461 -0.9966  0.7729  1.7418
18938TIP3   OH278228   3.467   4.539   5.504  0.8512  0.4112  0.6666
18938TIP3    H178229   3.373   4.548   5.513  0.6482 -0.8734  0.0556
18938TIP3    H278230   3.502   4.626   5.524 -0.5310  1.1666 -0.0635
18939TIP3   OH278231   4.493   6.194  11.112  0.1665  0.1631  0.4063
18939TIP3    H178232   4.577   6.211  11.070  0.6065  0.1729  1.2777
18939TIP3    H278233   4.511   6.199  11.205 -0.6066 -0.7846  0.6169
18940TIP3   OH278234   0.853   2.701  13.274 -0.3555 -0.6547  0.1257
18940TIP3    H178235   0.935   2.718  13.320 -0.5185 -2.5573  1.2243
18940TIP3    H278236   0.880   2.661  13.191 -0.1438  0.3519 -0.3059
18941TIP3   OH278237   0.254   1.525  15.941  0.0891  0.3533 -0.1725
18941TIP3    H178238   0.238   1.496  15.851 -0.5276  1.1975 -0.3504
18941TIP3    H278239   0.175   1.573  15.965 -0.2978 -0.9346  1.2851
18942TIP3   OH278240   0.061   1.623   3.171  0.0789  0.3664 -0.4109
18942TIP3    H178241   0.040   1.589   3.258  0.0219 -2.1239 -1.3302
18942TIP3    H278242   0.117   1.556   3.132  1.0135  1.9532 -1.9144
18943TIP3   OH278243   3.430   6.509   2.826  0.2091  1.0511 -0.3830
18943TIP3    H178244   3.369   6.524   2.898  1.6344 -1.1067  1.4517
18943TIP3    H278245   3.480   6.591   2.820  0.1272  1.2551  1.1936
18944TIP3   OH278246   2.326   1.007   4.343  0.4035 -0.0540 -0.6359
18944TIP3    H178247   2.332   0.914   4.364 -0.3703  0.1121  0.3962
18944TIP3    H278248   2.289   1.047   4.422  1.7916  1.3011 -0.6328
18945TIP3   OH278249   4.558   5.989  11.500 -0.6097  0.0518  0.2367
18945TIP3    H178250   4.570   6.083  11.486  2.5296 -0.5319 -2.1017
18945TIP3    H278251   4.543   5.954  11.412  0.5617 -1.8788  0.7506
18946TIP3   OH278252   3.456   0.132   0.038  0.4183 -0.0738  0.4854
18946TIP3    H178253   3.465   0.130  -0.058 -0.6767  0.8095  0.3489
18946TIP3    H278254   3.462   0.225   0.060 -0.9695 -0.1115  1.1003
18947TIP3   OH278255   6.488   1.607  12.053 -0.2414  0.4518 -0.0015
18947TIP3    H178256   6.531   1.692  12.061  1.5468 -0.4740  1.0550
18947TIP3    H278257   6.420   1.607  12.120  0.8512  0.4741  1.1503
18948TIP3   OH278258   0.693   3.806   2.911 -0.0118 -0.1139  0.1665
18948TIP3    H178259   0.670   3.760   2.830 -0.8894  1.1507 -0.3317
18948TIP3    H278260   0.610   3.814   2.958  0.3404 -0.0615  0.7869
18949TIP3   OH278261   4.832   3.157   5.045  0.2868 -0.4223  0.1971
18949TIP3    H178262   4.794   3.103   4.975 -0.0543 -0.8924  0.7318
18949TIP3    H278263   4.856   3.239   5.002  0.2866 -0.7867 -0.5151
18950TIP3   OH278264   3.388   0.091  12.606  0.1121 -0.0094  0.3426
18950TIP3    H178265   3.402   0.014  12.662  0.0787 -2.4000 -2.6721
18950TIP3    H278266   3.295   0.088  12.584  0.3785  0.0925 -0.8480
18951TIP3   OH278267   6.153   3.508  13.532 -0.1581  0.2239  0.0434
18951TIP3    H178268   6.135   3.555  13.614 -0.3576  0.0501  0.1000
18951TIP3    H278269   6.152   3.576  13.465 -1.0697  0.2219  0.0374
18952TIP3   OH278270   0.453   5.621   2.136 -0.3811 -0.0334 -0.1871
18952TIP3    H178271   0.544   5.629   2.164 -0.5329 -1.3914  0.7942
18952TIP3    H278272   0.423   5.711   2.124  0.7136  0.4707  0.7126
18953TIP3   OH278273   1.304   5.343   5.467 -0.0195  0.6152 -1.2282
18953TIP3    H178274   1.233   5.370   5.525 -0.1141 -2.6535  0.4082
18953TIP3    H278275   1.264   5.279   5.407  1.3372 -0.8704 -0.6308
18954TIP3   OH278276   4.366   2.105  15.412 -0.3765  0.2424  0.1002
18954TIP3    H178277   4.290   2.163  15.424 -2.1381 -2.1959  1.7452
18954TIP3    H278278   4.371   2.055  15.494  1.5039 -1.4024 -0.9389
18955TIP3   OH278279   3.177   5.469  11.268  0.6449  0.0784  0.1192
18955TIP3    H178280   3.121   5.527  11.218 -0.0323 -0.6921 -0.0304
18955TIP3    H278281   3.217   5.411  11.203  0.8957  0.0156  0.3228
18956TIP3   OH278282   0.687   4.178  14.249  0.2744 -0.1265 -0.5048
18956TIP3    H178283   0.703   4.213  14.161  1.8419  0.2445 -0.1124
18956TIP3    H278284   0.771   4.142  14.276  0.2106  0.9858  1.3647
18957TIP3   OH278285   1.114   2.913  14.904 -0.6988  0.1037  0.1226
18957TIP3    H178286   1.033   2.861  14.906 -0.8228  0.2775 -0.2350
18957TIP3    H278287   1.110   2.968  14.982  0.9373 -2.6511  2.3663
18958TIP3   OH278288   5.186   0.880   4.911  0.5213 -0.0147  0.1378
18958TIP3    H178289   5.148   0.831   4.837 -1.1792  0.5832  0.5608
18958TIP3    H278290   5.266   0.918   4.876  0.6979 -1.2393 -0.8585
18959TIP3   OH278291   5.387   2.612  13.493 -0.4277 -0.0218  0.2887
18959TIP3    H178292   5.475   2.651  13.499 -1.3624  2.1321  0.8926
18959TIP3    H278293   5.362   2.596  13.584 -0.4079 -1.2619  0.0820
18960TIP3   OH278294   1.289   4.673  15.811 -0.2200  0.3248  0.1197
18960TIP3    H178295   1.254   4.680  15.722  0.7735 -0.5273 -0.3511
18960TIP3    H278296   1.231   4.611  15.855 -0.4836  0.4523 -0.0452
18961TIP3   OH278297   3.503   0.878   2.136 -0.2914 -0.6455  0.4873
18961TIP3    H178298   3.596   0.888   2.115 -0.3494 -0.5007  0.3044
18961TIP3    H278299   3.459   0.944   2.083 -0.5330 -0.9533  0.2978
18962TIP3   OH278300   4.310   1.688  15.246  0.0454 -0.7642  0.1905
18962TIP3    H178301   4.217   1.669  15.258  0.5304 -2.2023  2.0369
18962TIP3    H278302   4.339   1.723  15.330  1.6546 -2.5856  0.4793
18963TIP3   OH278303   0.550   2.745   3.001  0.3157  0.9753 -0.1471
18963TIP3    H178304   0.506   2.735   2.916 -0.0624  0.4805  0.0972
18963TIP3    H278305   0.643   2.752   2.980  0.2787  0.2582 -0.5710
18964TIP3   OH278306   6.329   1.445  13.356  0.0989 -0.1607 -0.2186
18964TIP3    H178307   6.259   1.456  13.292  0.8036 -0.0386 -0.9728
18964TIP3    H278308   6.293   1.482  13.437 -0.0394  1.5714 -1.0369
18965TIP3   OH278309   6.170   4.743  17.145  0.3733 -0.1278  0.0666
18965TIP3    H178310   6.204   4.735  17.056  0.7011  1.1935  0.0431
18965TIP3    H278311   6.100   4.808  17.137 -1.4355 -1.9462  0.3235
18966TIP3   OH278312   3.662   6.019  12.208 -0.4022  0.1128 -0.1761
18966TIP3    H178313   3.631   6.102  12.172 -1.8581  0.9098  2.6044
18966TIP3    H278314   3.607   5.952  12.167  1.8628  0.1510 -3.7182
18967TIP3   OH278315   6.615   2.000   3.172  0.1226  0.0511 -0.0299
18967TIP3    H178316   6.561   1.960   3.240  0.5050  1.4676  1.1458
18967TIP3    H278317   6.698   1.951   3.176 -0.8608 -1.9365 -1.6489
18968TIP3   OH278318   4.392   6.584  13.620  0.3162 -0.2723 -0.4797
18968TIP3    H178319   4.398   6.623  13.707  1.1823  0.1740 -0.7318
18968TIP3    H278320   4.451   6.636  13.566  1.0370 -1.5464 -0.9687
18969TIP3   OH278321   2.178   2.718  16.096  0.4117  0.0615 -0.0072
18969TIP3    H178322   2.129   2.782  16.149  0.5575  1.0715 -1.0491
18969TIP3    H278323   2.222   2.771  16.030 -1.0142 -1.2573 -2.1409
18970TIP3   OH278324   2.003   1.420  14.660 -0.4154  0.1252  0.0857
18970TIP3    H178325   2.053   1.351  14.616 -0.0920  0.3493  0.0986
18970TIP3    H278326   2.068   1.485  14.685 -0.5840 -0.0232  0.9510
18971TIP3   OH278327   6.144   3.606   0.412 -0.3698  0.2468 -0.0240
18971TIP3    H178328   6.239   3.617   0.409 -0.4539  0.9160 -0.4777
18971TIP3    H278329   6.124   3.597   0.505  0.3705 -2.2531 -0.0263
18972TIP3   OH278330   4.964   5.731  11.133  0.0901 -0.3368  0.2735
18972TIP3    H178331   4.905   5.787  11.184  0.6936  0.7932 -0.2152
18972TIP3    H278332   4.925   5.644  11.138  0.8265 -0.6552  3.8434
18973TIP3   OH278333   2.508   6.177  15.666 -0.7427 -0.9872 -0.1674
18973TIP3    H178334   2.482   6.184  15.574  0.1631 -1.1537 -0.4467
18973TIP3    H278335   2.536   6.086  15.676  0.5467 -0.6030 -0.1187
18974TIP3   OH278336   6.447   6.718  15.534 -0.3874  0.3892  0.3933
18974TIP3    H178337   6.388   6.790  15.514 -0.5630 -0.1943 -1.4080
18974TIP3    H278338   6.534   6.751  15.511 -0.4321  0.1652 -0.1322
18975TIP3   OH278339   4.271   1.790  16.734 -0.3933  0.2259  0.9233
18975TIP3    H178340   4.277   1.882  16.758 -1.8809  0.3368  1.0041
18975TIP3    H278341   4.334   1.746  16.790  1.7602  1.3907 -0.4603
18976TIP3   OH278342   0.027   0.013   5.086 -0.5163 -0.7877  0.4989
18976TIP3    H178343   0.047  -0.050   5.155  0.8487 -0.6517  0.2469
18976TIP3    H278344   0.016   0.096   5.133  0.3962 -0.6973  0.5683
18977TIP3   OH278345   4.005   5.719  11.558  0.1018 -1.5798 -0.2085
18977TIP3    H178346   4.049   5.639  11.586 -0.3191 -1.4122  1.0021
18977TIP3    H278347   3.950   5.743  11.633  1.0950  0.4858 -0.0954
18978TIP3   OH278348   2.034   5.521   2.004 -0.5434  0.4430 -0.0342
18978TIP3    H178349   2.008   5.519   2.096 -0.8398 -0.8467 -0.1317
18978TIP3    H278350   1.965   5.473   1.958  0.6138 -0.6696 -0.6625
18979TIP3   OH278351   1.951   4.428  16.111  0.1686  0.7906 -0.1437
18979TIP3    H178352   1.869   4.380  16.119  0.4104  0.3107 -0.5136
18979TIP3    H278353   1.933   4.513  16.153  0.3217 -0.2985  2.3134
18980TIP3   OH278354   2.052   5.172  13.613 -0.5626  0.1420  0.1501
18980TIP3    H178355   2.078   5.112  13.543  0.3407  0.5686  0.1076
18980TIP3    H278356   2.123   5.165  13.678  0.0763  1.8901 -0.3079
18981TIP3   OH278357   1.763   2.657   4.349  0.3074  0.1581 -0.0189
18981TIP3    H178358   1.820   2.649   4.272  2.3626 -0.1245  1.4523
18981TIP3    H278359   1.701   2.584   4.340 -0.4208  0.9407 -2.0678
18982TIP3   OH278360   4.391   4.870   4.450  0.1404 -0.3472 -0.1486
18982TIP3    H178361   4.318   4.814   4.473  0.4736 -0.8397 -0.2768
18982TIP3    H278362   4.429   4.830   4.372 -0.1495  0.5403 -0.7616
18983TIP3   OH278363   2.423   3.137   5.928  0.0976 -0.3307  0.4658
18983TIP3    H178364   2.379   3.203   5.981 -0.3698 -0.2117 -0.0637
18983TIP3    H278365   2.480   3.186   5.870 -1.3374 -0.2676 -0.9491
18984TIP3   OH278366   3.314   4.685  10.861 -0.2166 -0.0111  0.4804
18984TIP3    H178367   3.405   4.670  10.884  0.0001 -0.4259 -0.5899
18984TIP3    H278368   3.268   4.689  10.945  0.7283 -0.1318  1.0125
18985TIP3   OH278369   6.501   1.510   1.397  0.3754  0.1865 -0.3417
18985TIP3    H178370   6.467   1.573   1.461 -0.3425 -0.1412 -0.3956
18985TIP3    H278371   6.424   1.476   1.353  0.4612 -2.7085  1.4853
18986TIP3   OH278372   5.622   5.663  14.033 -0.2501  0.3393 -0.5315
18986TIP3    H178373   5.601   5.594  13.970  1.1675  0.4332 -1.1447
18986TIP3    H278374   5.538   5.684  14.074 -0.5813 -2.4914  0.4574
18987TIP3   OH278375   5.040   1.899  10.864 -0.3174  0.2894 -0.1023
18987TIP3    H178376   4.998   1.957  10.800  0.1828 -1.0628 -1.7376
18987TIP3    H278377   5.134   1.911  10.849 -0.1990 -1.6108 -1.1801
18988TIP3   OH278378   1.699   5.894   1.786 -0.0318  0.0545 -0.4907
18988TIP3    H178379   1.661   5.962   1.841 -0.0720 -0.3760  0.0204
18988TIP3    H278380   1.767   5.939   1.735  0.9474  0.2017  0.8813
18989TIP3   OH278381   3.188   6.029  15.636  0.1376 -0.2235  0.2069
18989TIP3    H178382   3.144   6.102  15.591 -0.7273 -1.1662 -0.5492
18989TIP3    H278383   3.253   5.999  15.573  0.2579 -0.3228  0.3805
18990TIP3   OH278384   0.451   3.741  16.649 -0.2316 -0.0125 -0.0942
18990TIP3    H178385   0.406   3.803  16.706  2.9047  2.4655  0.0093
18990TIP3    H278386   0.429   3.769  16.560  0.6520  0.9215 -0.0417
18991TIP3   OH278387   0.037   5.728  15.448  0.2522  0.3179 -0.4685
18991TIP3    H178388   0.027   5.823  15.452 -0.4966  0.3294 -1.9059
18991TIP3    H278389  -0.024   5.700  15.380  1.7214 -0.9893 -1.3354
18992TIP3   OH278390   4.892   1.124   3.135  0.2681  0.0007  0.5791
18992TIP3    H178391   4.847   1.056   3.084  0.7579 -0.0101  0.1474
18992TIP3    H278392   4.824   1.163   3.189 -0.6528  1.1704 -1.3133
18993TIP3   OH278393   4.591   6.017   5.147  0.9217 -0.2381  0.0704
18993TIP3    H178394   4.676   6.060   5.147  0.1752  1.3589 -1.5229
18993TIP3    H278395   4.532   6.080   5.189  0.1194 -0.3943 -0.8026
18994TIP3   OH278396   4.568   0.279   0.839 -0.3376  0.4003 -0.0674
18994TIP3    H178397   4.592   0.220   0.911  0.6486  1.2701  0.3513
18994TIP3    H278398   4.473   0.287   0.845 -0.3044  0.1688  0.9220
18995TIP3   OH278399   4.008   1.017   0.438  0.4956  0.5553 -0.4165
18995TIP3    H178400   3.942   0.957   0.472  0.4722  1.2511  0.8309
18995TIP3    H278401   4.012   0.998   0.344 -0.1906 -0.7146 -0.2099
18996TIP3   OH278402   0.961   4.195  15.999  0.4357  0.0098  0.1619
18996TIP3    H178403   0.954   4.105  16.029 -0.9993 -0.0581 -0.2748
18996TIP3    H278404   0.957   4.248  16.079  0.4671 -0.2972  0.3651
18997TIP3   OH278405   4.034   1.672  10.550 -0.1888  0.1395 -0.5266
18997TIP3    H178406   3.939   1.682  10.557 -0.2319 -0.7591  0.2952
18997TIP3    H278407   4.063   1.755  10.514 -1.0601  1.2944  1.2648
18998TIP3   OH278408   3.481   2.473  12.500 -0.0936  0.4383  0.4459
18998TIP3    H178409   3.503   2.382  12.480 -1.6526  0.2600 -0.7260
18998TIP3    H278410   3.532   2.494  12.578  2.3470 -0.5640 -0.7645
18999TIP3   OH278411   0.290   6.516   4.413 -0.1160  0.1458  0.6216
18999TIP3    H178412   0.376   6.558   4.414  0.2550 -0.5331  2.6064
18999TIP3    H278413   0.279   6.485   4.323  1.2192  1.1953  0.0621
19000TIP3   OH278414   1.660   5.852  12.443  0.2815  0.6194 -0.2456
19000TIP3    H178415   1.664   5.788  12.513  1.0288  2.1750  1.1987
19000TIP3    H278416   1.653   5.800  12.363 -2.2674 -1.1968  1.0170
19001TIP3   OH278417   2.932   2.483   3.037 -0.3388  0.5793 -0.1968
19001TIP3    H178418   3.016   2.477   3.082 -0.8539 -0.6081  0.6511
19001TIP3    H278419   2.920   2.398   2.997 -1.3788  0.5473  0.1484
19002TIP3   OH278420   3.297   3.057  13.209  0.4328  0.0270  0.4215
19002TIP3    H178421   3.348   3.122  13.160  1.4297  0.2521  1.6902
19002TIP3    H278422   3.243   3.110  13.268 -2.3212 -0.1459 -1.7687
19003TIP3   OH278423   2.551   0.003  14.439  0.6695  0.6945  0.0322
19003TIP3    H178424   2.535  -0.034  14.526 -1.9318  1.2445 -0.1384
19003TIP3    H278425   2.554   0.097  14.453 -5.2164  1.3963 -0.8852
19004TIP3   OH278426   0.046   1.270  12.387  1.0573  0.0100  0.3709
19004TIP3    H178427   0.063   1.186  12.431  0.2178  0.0329  0.7751
19004TIP3    H278428   0.057   1.336  12.456 -0.2174  0.0518  0.5702
19005TIP3   OH278429   0.438   1.848   5.228  0.3817 -0.4665 -0.2031
19005TIP3    H178430   0.386   1.901   5.290  1.6278  0.4372  0.1035
19005TIP3    H278431   0.471   1.911   5.165 -0.2196 -1.2777 -1.3602
19006TIP3   OH278432   6.740   5.240  11.081  0.2210 -0.1670  0.0815
19006TIP3    H178433   6.773   5.217  11.168  1.1777 -0.7581 -0.4174
19006TIP3    H278434   6.819   5.254  11.028 -0.3415  0.0673 -0.7178
19007TIP3   OH278435   4.625   5.078   5.938  0.6445 -0.0994 -0.1455
19007TIP3    H178436   4.543   5.071   5.988  0.9852 -0.2444  0.3984
19007TIP3    H278437   4.601   5.130   5.861  0.1942  0.4259  0.3391
19008TIP3   OH278438   5.162   0.672  15.001  0.7202 -0.3463 -0.6513
19008TIP3    H178439   5.216   0.750  14.984  0.4402 -0.1843 -0.8063
19008TIP3    H278440   5.130   0.646  14.914 -0.6378  0.4262 -0.4065
19009TIP3   OH278441   5.326   4.988   1.458  0.1299 -0.2270  0.3256
19009TIP3    H178442   5.317   5.082   1.472 -1.0800 -0.1169 -0.9160
19009TIP3    H278443   5.329   4.950   1.546 -0.2387  0.8945  0.8379
19010TIP3   OH278444   0.994   3.051   3.748  0.6660  0.1452 -0.1138
19010TIP3    H178445   1.051   3.121   3.780 -0.1482  0.7541  0.0377
19010TIP3    H278446   0.964   3.081   3.663 -1.1893  0.8948  0.7519
19011TIP3   OH278447   1.034   1.220  13.351  0.6095 -0.2072  0.5088
19011TIP3    H178448   1.059   1.143  13.401  0.7486  1.0443  2.4486
19011TIP3    H278449   1.077   1.293  13.396  0.9091  0.9784 -1.5586
19012TIP3   OH278450   0.324   5.284   1.878 -0.1824  0.6981 -0.5401
19012TIP3    H178451   0.392   5.222   1.906 -1.1430 -0.2818 -0.3372
19012TIP3    H278452   0.371   5.345   1.820  0.6593 -0.6097 -1.2894
19013TIP3   OH278453   1.968   1.296   2.319 -0.2335  0.3512  0.6964
19013TIP3    H178454   2.031   1.233   2.283  0.0825  1.3390 -0.5338
19013TIP3    H278455   2.012   1.381   2.311 -1.6655  1.0537 -0.0693
19014TIP3   OH278456   4.630   3.549   6.445  0.1808  0.0029 -0.4133
19014TIP3    H178457   4.673   3.622   6.400  1.5195 -0.6402 -0.2021
19014TIP3    H278458   4.688   3.527   6.517  0.1642 -1.7153 -0.8683
19015TIP3   OH278459   5.914   2.493  12.788 -0.1060  0.4393  0.1903
19015TIP3    H178460   5.947   2.542  12.712 -1.2415  0.6935 -0.1542
19015TIP3    H278461   5.856   2.554  12.833  0.3169  0.1824  1.0950
19016TIP3   OH278462   4.360   3.202  11.582  0.5480  0.0302 -0.3599
19016TIP3    H178463   4.386   3.220  11.492 -3.4425 -1.0093 -1.9667
19016TIP3    H278464   4.338   3.109  11.583  0.4870  0.0163  1.7055
19017TIP3   OH278465   0.437   2.649  13.705 -0.0964 -0.1877 -0.4059
19017TIP3    H178466   0.477   2.713  13.647 -1.4671  0.1662 -1.0040
19017TIP3    H278467   0.365   2.612  13.654 -0.2732 -1.1104  0.4696
19018TIP3   OH278468   1.264   1.971  15.891  0.2402  0.3992  0.2884
19018TIP3    H178469   1.282   2.007  15.804  0.7455  0.1991  0.3082
19018TIP3    H278470   1.168   1.967  15.895  0.2090 -0.5692 -0.6748
19019TIP3   OH278471   1.533   2.369  13.612  0.0937  0.2181  0.3978
19019TIP3    H178472   1.507   2.400  13.698 -1.9736  0.3138 -0.2155
19019TIP3    H278473   1.463   2.310  13.585  0.0635  1.1052 -1.6951
19020TIP3   OH278474   4.538   3.458  10.987  0.6523 -0.5341 -0.3934
19020TIP3    H178475   4.470   3.411  11.034  1.5374 -1.2851  0.1723
19020TIP3    H278476   4.498   3.482  10.903 -0.1283 -1.4304 -0.2900
19021TIP3   OH278477   6.098   4.859   2.609 -0.1885  0.6933  0.0464
19021TIP3    H178478   6.177   4.873   2.557 -0.1285  1.2873  0.2874
19021TIP3    H278479   6.125   4.798   2.678 -0.7971 -1.8585 -1.8278
19022TIP3   OH278480   3.853   5.358  10.868 -0.1248 -0.3776  0.3341
19022TIP3    H178481   3.850   5.279  10.814 -3.1383 -0.6285  0.7227
19022TIP3    H278482   3.827   5.429  10.809 -0.0175 -0.0879  0.6270
19023TIP3   OH278483   0.040   1.343  13.318  0.1723  0.1920  0.6306
19023TIP3    H178484  -0.011   1.422  13.303  0.1306  0.5351  2.3672
19023TIP3    H278485  -0.021   1.271  13.299 -0.1790  0.5806  0.2757
19024TIP3   OH278486   1.222   6.064   0.253 -0.0259  0.1709  0.4231
19024TIP3    H178487   1.127   6.074   0.246  0.0622  0.3702 -0.8519
19024TIP3    H278488   1.237   5.970   0.245 -0.0972  0.1736  0.2503
19025TIP3   OH278489   6.775   2.352  11.387  0.2122 -0.1569  0.0926
19025TIP3    H178490   6.719   2.309  11.452  2.1727 -1.4147  1.0326
19025TIP3    H278491   6.779   2.290  11.314  1.0476 -0.4873  0.4035
19026TIP3   OH278492   0.220   2.987   0.451 -0.5855 -0.3681  0.1773
19026TIP3    H178493   0.174   3.053   0.503 -0.7622 -1.0081  0.8593
19026TIP3    H278494   0.251   2.923   0.516 -0.3783 -0.9262 -0.4629
19027TIP3   OH278495   2.293   5.798  13.472 -0.0874  0.7468 -0.1667
19027TIP3    H178496   2.311   5.856  13.398  0.9613  0.6591 -0.0053
19027TIP3    H278497   2.219   5.745  13.444  1.9803 -1.2417 -2.3521
19028TIP3   OH278498   2.189   0.674   1.893 -0.6294 -0.1321 -0.4826
19028TIP3    H178499   2.222   0.723   1.968  2.5777  0.7436 -2.3033
19028TIP3    H278500   2.149   0.740   1.836 -0.5050 -0.3367 -0.8139
19029TIP3   OH278501   1.109   3.355   4.067 -0.0877 -0.2037  0.4625
19029TIP3    H178502   1.089   3.446   4.045 -1.0600 -0.7941 -1.3729
19029TIP3    H278503   1.151   3.320   3.988  1.3614 -1.0584  1.5598
19030TIP3   OH278504   2.644   5.379   0.337  0.0377 -0.8307 -0.3280
19030TIP3    H178505   2.656   5.471   0.312  1.0358 -0.7059  0.5332
19030TIP3    H278506   2.562   5.353   0.296 -0.9589  0.8447  0.5368
19031TIP3   OH278507   3.282   1.412  13.716 -0.5573 -0.1583  0.0854
19031TIP3    H178508   3.377   1.423  13.709 -0.5582 -0.8906 -1.2896
19031TIP3    H278509   3.252   1.405  13.626 -1.9438  0.1352  0.5011
19032TIP3   OH278510   0.080   1.622  16.517  0.5395 -0.5728  0.4592
19032TIP3    H178511   0.012   1.582  16.463  1.3324 -0.0250 -1.0116
19032TIP3    H278512   0.155   1.562  16.510  0.7862 -0.2872  0.6145
19033TIP3   OH278513   4.464   2.963  13.220 -0.2561 -0.6597 -0.3103
19033TIP3    H178514   4.429   2.873  13.222  1.1015 -1.2038  1.1990
19033TIP3    H278515   4.537   2.961  13.281 -1.2518  1.9112  1.1109
19034TIP3   OH278516   5.005   4.190  14.090 -0.0627  0.5908 -0.4914
19034TIP3    H178517   4.997   4.140  14.171  0.0662 -0.8148 -1.3217
19034TIP3    H278518   5.084   4.242  14.101 -0.1053  0.4954  0.3207
19035TIP3   OH278519   3.425   6.139   5.331 -0.4810 -0.1109  0.4002
19035TIP3    H178520   3.330   6.150   5.323 -0.3839  0.4415 -0.0138
19035TIP3    H278521   3.435   6.077   5.403 -1.2255 -1.5860 -0.7114
19036TIP3   OH278522   0.133   2.276  12.147  0.0952 -0.0285 -0.1662
19036TIP3    H178523   0.199   2.251  12.212  0.7154  1.2086 -0.2889
19036TIP3    H278524   0.069   2.327  12.196 -1.7249 -2.5507  0.3011
19037TIP3   OH278525   6.435   0.369   0.632  0.1088 -0.4541  0.0703
19037TIP3    H178526   6.490   0.356   0.555  1.8895  0.9483  1.0443
19037TIP3    H278527   6.417   0.463   0.634 -0.1034 -0.4995  1.2417
19038TIP3   OH278528   2.625   3.648   5.623  0.1568  0.8671 -0.3167
19038TIP3    H178529   2.702   3.655   5.680  0.0009 -2.2551  0.4509
19038TIP3    H278530   2.552   3.633   5.683 -0.2795 -0.7445 -1.1878
19039TIP3   OH278531   5.678   6.057  10.517  0.5916  0.2125 -0.5769
19039TIP3    H178532   5.632   6.009  10.586 -0.6022  3.0628  0.7538
19039TIP3    H278533   5.765   6.074  10.553  0.0422  1.5098  0.1761
19040TIP3   OH278534   5.947   2.497   1.557  0.1698 -0.3616 -0.7055
19040TIP3    H178535   5.947   2.591   1.537 -0.0489  0.1910  1.5964
19040TIP3    H278536   5.904   2.491   1.642  2.1147 -2.3292  0.2247
19041TIP3   OH278537   4.363   2.937  15.473  0.0378 -0.3577  0.5334
19041TIP3    H178538   4.425   2.993  15.519  1.2850 -1.4642  0.2549
19041TIP3    H278539   4.291   2.926  15.534  0.4869  0.2817  1.1972
19042TIP3   OH278540   0.836   5.173  12.759 -0.7539 -0.4892 -0.3597
19042TIP3    H178541   0.822   5.080  12.779 -0.7461 -0.5031 -0.4168
19042TIP3    H278542   0.785   5.188  12.680  1.1204 -1.0419 -1.7428
19043TIP3   OH278543   1.109   4.832  16.610 -0.2783 -0.3638 -0.4564
19043TIP3    H178544   1.091   4.738  16.611 -0.4168 -0.3395  0.5420
19043TIP3    H278545   1.074   4.864  16.693  1.5866  0.2205  0.1695
19044TIP3   OH278546   6.616   6.396  12.813 -0.5210  0.9544 -0.0490
19044TIP3    H178547   6.676   6.399  12.888 -1.0796 -1.8351  0.6250
19044TIP3    H278548   6.669   6.427  12.740  1.1249  0.5076  0.8842
19045TIP3   OH278549   0.088   4.856  15.481  0.5489 -0.1453  0.1794
19045TIP3    H178550   0.040   4.905  15.547  1.0606 -0.0050  0.4588
19045TIP3    H278551   0.027   4.790  15.450 -0.5046  1.3147 -0.9554
19046TIP3   OH278552   3.042   3.061  15.118  0.2339 -0.5746 -0.4377
19046TIP3    H178553   3.060   2.976  15.158 -0.8648 -1.4268 -1.6478
19046TIP3    H278554   3.123   3.085  15.075  1.9213  0.9957  3.1682
19047TIP3   OH278555   4.802   4.047  12.480 -0.2040  0.1940  0.1344
19047TIP3    H178556   4.720   4.008  12.448 -0.1864 -0.1107  0.4514
19047TIP3    H278557   4.853   3.972  12.509 -0.1100  0.4513  0.6276
19048TIP3   OH278558   3.706   1.101   2.942 -0.1186  0.4147 -0.6443
19048TIP3    H178559   3.735   1.010   2.935  0.4838  0.7525 -3.1710
19048TIP3    H278560   3.712   1.120   3.036  3.1514 -1.0679 -0.4312
19049TIP3   OH278561   5.421   6.556   4.808  0.2257  0.5192  0.4419
19049TIP3    H178562   5.498   6.612   4.800 -0.1756  1.0208  0.0363
19049TIP3    H278563   5.381   6.558   4.721  0.8664 -1.3624  0.0539
19050TIP3   OH278564   0.798   4.955  17.010 -0.0422  0.6469 -0.0799
19050TIP3    H178565   0.821   5.011  17.084 -0.5221  2.1183 -0.9980
19050TIP3    H278566   0.866   4.974  16.945 -1.3703  1.8061 -1.1901
19051TIP3   OH278567   2.540   2.666  16.525 -0.0686 -0.2083  0.4470
19051TIP3    H178568   2.486   2.589  16.541  0.7552 -1.0453 -0.5952
19051TIP3    H278569   2.558   2.701  16.612 -0.1063 -1.4538  0.9900
19052TIP3   OH278570   2.055   0.196  10.752 -0.1353  0.4813 -0.5452
19052TIP3    H178571   1.978   0.252  10.744 -1.0371 -0.4023  1.4340
19052TIP3    H278572   2.020   0.106  10.751  0.9448  0.0412 -0.3066
19053TIP3   OH278573   0.937   1.266  13.087  0.5255  0.0612  0.2252
19053TIP3    H178574   0.954   1.193  13.028  0.0801  0.8330 -0.8895
19053TIP3    H278575   0.999   1.254  13.159  2.0807 -0.1242 -1.0957
19054TIP3   OH278576   5.445   4.046   4.502 -0.5834 -0.0652  0.8057
19054TIP3    H178577   5.418   4.095   4.424 -0.2797 -1.2683 -0.0876
19054TIP3    H278578   5.409   4.096   4.575  0.8318  2.2351  0.0502
19055TIP3   OH278579   3.188   3.155   4.283 -0.0314 -0.1307  0.1516
19055TIP3    H178580   3.125   3.121   4.346  0.0930 -0.5512  0.0566
19055TIP3    H278581   3.157   3.124   4.198 -0.7789  1.3121 -0.1270
19056TIP3   OH278582   6.515   3.128  14.321  0.0478 -0.0802 -0.1805
19056TIP3    H178583   6.549   3.043  14.295  0.5673  0.4559 -1.3307
19056TIP3    H278584   6.436   3.140  14.269  2.0664  1.7823 -3.0614
19057TIP3   OH278585   2.632   3.240  16.777 -0.4337  0.1900  0.2550
19057TIP3    H178586   2.582   3.288  16.711  0.5789  0.7616 -0.1194
19057TIP3    H278587   2.616   3.287  16.858 -0.4305  0.4179  0.1229
19058TIP3   OH278588   2.212   3.972  10.262 -0.2375  0.0960 -0.2209
19058TIP3    H178589   2.223   3.951  10.354  0.6073 -0.2245 -0.3816
19058TIP3    H278590   2.172   3.894  10.223  0.5026 -0.2307 -0.3391
19059TIP3   OH278591   1.085   5.485  12.563  1.1941 -0.2619  0.6910
19059TIP3    H178592   1.003   5.495  12.515  2.5459  0.7434 -1.5727
19059TIP3    H278593   1.105   5.572  12.597  2.4797  0.1139 -0.8901
19060TIP3   OH278594   5.348   0.222   1.463 -0.0331 -0.4006 -0.4403
19060TIP3    H178595   5.401   0.223   1.543  0.8941 -0.4948 -1.0365
19060TIP3    H278596   5.272   0.168   1.485  0.4642 -0.8450  0.2149
19061TIP3   OH278597   2.952   1.062  13.651  0.1877 -0.1947  0.0330
19061TIP3    H178598   2.980   1.121  13.581 -0.9074 -0.9851 -1.1381
19061TIP3    H278599   2.857   1.071  13.652  0.1975 -0.1117  1.5378
19062TIP3   OH278600   1.709   1.376   3.487 -1.0619  0.0533  0.5247
19062TIP3    H178601   1.716   1.461   3.531  0.3392 -1.0239  2.5663
19062TIP3    H278602   1.635   1.333   3.530 -2.1269  0.3865 -0.8885
19063TIP3   OH278603   4.782   6.006   5.898  0.2097  0.1620  0.1630
19063TIP3    H178604   4.808   6.052   5.978 -1.2290 -0.9269  1.2912
19063TIP3    H278605   4.743   5.924   5.928 -1.1428  0.0952 -1.6090
19064TIP3   OH278606   1.893   3.769   5.202  0.5448 -0.3796  0.2513
19064TIP3    H178607   1.946   3.848   5.209 -0.4479  0.1816  2.1177
19064TIP3    H278608   1.930   3.710   5.268  0.8482 -1.2518 -0.6618
19065TIP3   OH278609   1.971   3.045   2.353 -0.1214 -0.8894 -0.1841
19065TIP3    H178610   1.937   3.131   2.380  0.8240 -0.2721 -0.8982
19065TIP3    H278611   1.903   3.011   2.295  0.1752  0.0661 -1.1197
19066TIP3   OH278612   1.439   4.486   5.337 -0.0105 -0.1646  0.2328
19066TIP3    H178613   1.387   4.413   5.371 -0.2805  0.4033  1.0616
19066TIP3    H278614   1.499   4.508   5.408 -1.4811  1.9005  0.9089
19067TIP3   OH278615   0.263   0.451   3.985 -0.1115  0.5404  0.2118
19067TIP3    H178616   0.254   0.367   3.939  1.7752  0.9232 -0.9496
19067TIP3    H278617   0.239   0.517   3.921 -2.6597  0.9271  1.4459
19068TIP3   OH278618   0.346   1.368  12.692 -0.4579  0.3877 -0.0165
19068TIP3    H178619   0.361   1.462  12.690 -1.6386  0.6544  1.5004
19068TIP3    H278620   0.385   1.339  12.775  0.5729 -0.6254 -0.8049
19069TIP3   OH278621   0.260   4.969   6.559  0.1927 -0.4333 -0.0085
19069TIP3    H178622   0.302   5.000   6.639 -1.2901 -1.8866  1.4325
19069TIP3    H278623   0.318   4.996   6.488  1.3691  1.2433  1.5132
19070TIP3   OH278624   4.649   4.945  13.290  0.1636  0.3214 -0.8740
19070TIP3    H178625   4.719   4.906  13.238  0.3667  0.2226 -0.5297
19070TIP3    H278626   4.580   4.880  13.291  0.3474  0.1251 -0.6296
19071TIP3   OH278627   2.347   3.665  15.031  0.0177  0.0141 -0.4817
19071TIP3    H178628   2.383   3.718  15.102  0.1772  0.3735 -0.8218
19071TIP3    H278629   2.311   3.729  14.970 -0.3240 -0.3006 -0.6157
19072TIP3   OH278630   1.945   1.230   2.593  0.0280 -0.7852  0.3972
19072TIP3    H178631   1.956   1.324   2.585 -2.1713 -0.2783  2.4139
19072TIP3    H278632   1.954   1.197   2.503 -1.1915  1.6101 -0.6882
19073TIP3   OH278633   6.670   5.047  16.318  0.1974 -0.4606  0.3952
19073TIP3    H178634   6.763   5.021  16.318  0.4633 -0.0049 -3.2911
19073TIP3    H278635   6.624   4.969  16.287 -0.2293  0.2582 -0.8357
19074TIP3   OH278636   6.318   2.913  14.405  0.2640  0.5950  0.4027
19074TIP3    H178637   6.287   2.998  14.374  0.7456  0.1736 -1.3531
19074TIP3    H278638   6.245   2.878  14.456 -1.2884  0.6389 -1.6517
19075TIP3   OH278639   2.459   5.268  11.677  0.3630  0.4113  0.2790
19075TIP3    H178640   2.410   5.203  11.628  1.0150  0.3779 -0.3416
19075TIP3    H278641   2.449   5.242  11.768 -0.0329 -0.1033  0.0924
19076TIP3   OH278642   0.451   3.697   4.922  0.4903 -0.5299 -0.3778
19076TIP3    H178643   0.416   3.679   5.009 -1.3563 -1.7353 -1.3070
19076TIP3    H278644   0.441   3.792   4.911  0.6035 -0.3919  0.6545
19077TIP3   OH278645   4.490   1.498  13.042  0.7359 -0.0304  0.3930
19077TIP3    H178646   4.528   1.580  13.071  1.6312  0.7021 -2.4590
19077TIP3    H278647   4.407   1.524  13.001 -0.1999 -0.9133  1.6569
19078TIP3   OH278648   2.744   4.440   2.743  0.2894 -0.0201 -0.4565
19078TIP3    H178649   2.654   4.455   2.712 -0.5473 -1.9115  0.8824
19078TIP3    H278650   2.756   4.507   2.810 -0.0728  0.3221 -0.7231
19079TIP3   OH278651   6.124   5.742   2.851 -0.0564  0.4582  0.7534
19079TIP3    H178652   6.114   5.834   2.874 -1.2290 -0.0208  2.2906
19079TIP3    H278653   6.061   5.696   2.906  1.5764 -1.4382  1.1661
19080TIP3   OH278654   6.563   4.167  11.231  0.0480 -0.1855 -0.0853
19080TIP3    H178655   6.557   4.142  11.323 -0.3203  0.6994  0.1383
19080TIP3    H278656   6.638   4.117  11.197  0.2670 -0.4122  0.7166
19081TIP3   OH278657   4.853   4.548  14.916  0.0200  0.3069  0.6106
19081TIP3    H178658   4.771   4.580  14.953 -0.1760 -0.1471  0.5809
19081TIP3    H278659   4.921   4.600  14.959 -0.0897 -1.0916  2.6336
19082TIP3   OH278660   5.607   4.421  14.158  0.0107  1.1688  0.6028
19082TIP3    H178661   5.576   4.470  14.234 -4.5689  0.0377 -0.1788
19082TIP3    H278662   5.629   4.334  14.192  0.9844  1.5615  0.9991
19083TIP3   OH278663   4.021   2.538   3.339 -0.4539 -0.8515  0.1357
19083TIP3    H178664   4.048   2.528   3.248 -0.6284 -1.6126  0.1662
19083TIP3    H278665   3.926   2.548   3.334 -0.7532 -3.2054  0.3867
19084TIP3   OH278666   5.484   0.382  16.785 -0.3786 -0.2951  0.7274
19084TIP3    H178667   5.539   0.456  16.759 -1.2468  0.3502  0.7041
19084TIP3    H278668   5.546   0.310  16.798  0.2673 -0.2589 -1.6162
19085TIP3   OH278669   5.009   6.699   3.815 -0.3091 -0.2540  0.0437
19085TIP3    H178670   4.920   6.719   3.785  0.4031  0.0667 -2.0036
19085TIP3    H278671   5.010   6.729   3.906 -2.2725 -0.2484  0.1197
19086TIP3   OH278672   1.230   5.257  14.940  0.2146 -0.0792 -0.0703
19086TIP3    H178673   1.223   5.339  14.990  2.6486  0.1367  0.0270
19086TIP3    H278674   1.215   5.283  14.849 -0.8014  0.1352  0.1495
19087TIP3   OH278675   5.803   2.066  14.251  0.1653  0.0347  0.0490
19087TIP3    H178676   5.883   2.113  14.274 -1.1154  1.3313  2.1526
19087TIP3    H278677   5.750   2.068  14.331 -2.2984 -0.0947 -1.4869
19088TIP3   OH278678   0.984   2.922  15.175 -0.0153 -0.1846  0.1049
19088TIP3    H178679   0.957   2.831  15.187 -1.4686  0.5297  3.6168
19088TIP3    H278680   1.076   2.924  15.200 -0.4814 -0.4598  2.0141
19089TIP3   OH278681   4.686   2.053   3.198  0.3533  0.0723 -0.0819
19089TIP3    H178682   4.687   1.962   3.168  0.1063  0.1481 -0.3201
19089TIP3    H278683   4.696   2.105   3.118  0.3711  0.2576  0.0395
19090TIP3   OH278684   1.052   3.287  12.088  0.3542  0.0136 -0.0920
19090TIP3    H178685   1.119   3.227  12.056  0.2927 -0.0901 -0.0279
19090TIP3    H278686   0.997   3.233  12.145  2.4909  0.8912  3.0968
19091TIP3   OH278687   2.425   3.340  15.935 -0.2206  1.1326  0.1545
19091TIP3    H178688   2.379   3.375  16.011  2.2263  0.8831  1.8373
19091TIP3    H278689   2.445   3.417  15.882  0.8155  1.7248  1.3664
19092TIP3   OH278690   2.113   3.143  16.228  0.6762 -0.3379 -0.2791
19092TIP3    H178691   2.083   3.157  16.318  1.3244  0.0421 -0.1169
19092TIP3    H278692   2.206   3.122  16.237  0.7522 -0.2618 -0.8658
19093TIP3   OH278693   4.903   5.721   0.518 -0.1336  0.1488  0.1060
19093TIP3    H178694   4.914   5.701   0.426 -0.7430 -0.1638  0.0948
19093TIP3    H278695   4.953   5.802   0.531  0.6661 -0.2656 -0.2962
19094TIP3   OH278696   4.354   2.313   5.563 -0.3216  1.0808  0.4980
19094TIP3    H178697   4.389   2.252   5.497  2.1613  0.6806  2.0644
19094TIP3    H278698   4.295   2.370   5.513  1.1753  0.5962 -2.0125
19095TIP3   OH278699   5.690   6.532  14.363  0.2587 -0.4704  0.5382
19095TIP3    H178700   5.629   6.603  14.344 -1.2916 -0.8889  3.3447
19095TIP3    H278701   5.658   6.459  14.311 -0.4181 -0.1154  0.4383
19096TIP3   OH278702   3.319   2.757   2.736  0.4279  0.1450  0.2295
19096TIP3    H178703   3.271   2.691   2.685  0.4435 -0.1569  0.6012
19096TIP3    H278704   3.407   2.756   2.700  0.5143 -0.2705  0.4562
19097TIP3   OH278705   5.638   3.887   1.733  0.1701 -0.0908 -0.0341
19097TIP3    H178706   5.621   3.978   1.758 -0.1460  0.4067 -1.8684
19097TIP3    H278707   5.732   3.883   1.720  0.5228 -0.6917  2.3041
19098TIP3   OH278708   1.566   2.461   3.514  0.2319 -0.7831  0.2102
19098TIP3    H178709   1.618   2.389   3.478  0.4407 -0.2835 -0.5329
19098TIP3    H278710   1.499   2.419   3.568 -0.6599 -1.6336 -1.4775
19099TIP3   OH278711   3.161   1.794   4.817 -0.6806  0.0222 -0.0084
19099TIP3    H178712   3.135   1.732   4.885 -1.2838  2.1769  1.8527
19099TIP3    H278713   3.092   1.787   4.751 -0.8009 -1.1789  0.2274
19100TIP3   OH278714   4.781   2.837   0.104  0.1914 -0.0985 -0.4073
19100TIP3    H178715   4.821   2.754   0.131  2.3567  1.1040  0.3836
19100TIP3    H278716   4.826   2.859   0.022  0.2062  0.6484 -0.2065
19101TIP3   OH278717   5.834   5.562   0.793  0.1549  0.3155 -0.2509
19101TIP3    H178718   5.888   5.562   0.714 -0.3785 -2.1013 -0.6746
19101TIP3    H278719   5.896   5.558   0.865  0.5958  1.0317 -0.5758
19102TIP3   OH278720   1.057   4.613  14.747 -0.0861  0.1364  0.7250
19102TIP3    H178721   0.999   4.579  14.678  0.2287 -1.4941  1.2385
19102TIP3    H278722   1.008   4.600  14.828  0.3096  0.3225  0.9966
19103TIP3   OH278723   6.465   4.402  14.792  0.1131 -0.0517 -0.2252
19103TIP3    H178724   6.445   4.353  14.712  0.2356 -1.0979  0.3659
19103TIP3    H278725   6.534   4.463  14.765 -0.4031  0.1777 -1.0974
19104TIP3   OH278726   0.576   5.743  11.158  0.1971 -0.0647  0.3817
19104TIP3    H178727   0.501   5.727  11.100 -1.8777  0.1496  2.8315
19104TIP3    H278728   0.563   5.684  11.231  1.6333  1.0287  1.5889
19105TIP3   OH278729   2.410   0.660  15.182  0.2876  0.2715  0.0535
19105TIP3    H178730   2.504   0.678  15.176  0.8042 -2.0498  0.3231
19105TIP3    H278731   2.387   0.628  15.095 -0.0653  0.0894  0.2144
19106TIP3   OH278732   1.473   4.697  10.000 -0.3049 -0.5262  0.0268
19106TIP3    H178733   1.495   4.644   9.924  1.6950  0.6087 -0.2569
19106TIP3    H278734   1.442   4.780   9.963 -3.0529 -1.2383  0.4694
19107TIP3   OH278735   2.284   1.089   3.869 -0.1823  0.2238  0.0310
19107TIP3    H178736   2.232   1.015   3.838 -0.2256  0.5467 -0.6904
19107TIP3    H278737   2.321   1.059   3.953 -0.9837 -0.2494  0.2301
19108TIP3   OH278738   0.759   1.424  11.845  0.2439 -0.0686 -0.3156
19108TIP3    H178739   0.730   1.381  11.925  0.3283 -1.3540 -0.9497
19108TIP3    H278740   0.854   1.426  11.851  0.3140 -1.1312 -0.8392
19109TIP3   OH278741   4.366   4.142  16.187  0.4907  0.1459  0.1918
19109TIP3    H178742   4.389   4.157  16.279  0.7686  1.2007 -0.0317
19109TIP3    H278743   4.425   4.201  16.139 -1.0851  1.1849 -0.5397
19110TIP3   OH278744   4.439   1.380   2.635 -0.2825  0.6763  0.3958
19110TIP3    H178745   4.344   1.386   2.626 -0.0870  2.0548 -1.0970
19110TIP3    H278746   4.459   1.291   2.606 -1.1530  0.1931  1.2172
19111TIP3   OH278747   0.918   5.116  11.075  0.0983 -0.0539 -0.0042
19111TIP3    H178748   0.828   5.083  11.078  0.6692 -1.6667  0.4857
19111TIP3    H278749   0.912   5.204  11.111 -1.2326 -0.2768  0.4017
19112TIP3   OH278750   2.202   5.503  11.968  0.8502 -0.9656 -0.2872
19112TIP3    H178751   2.281   5.552  11.946  0.7044 -0.1033  1.0723
19112TIP3    H278752   2.210   5.422  11.917  1.5370  0.0383 -1.8479
19113TIP3   OH278753   5.844   5.588  12.372 -0.2483  0.2328 -0.4602
19113TIP3    H178754   5.834   5.611  12.465 -1.5664  0.6849 -0.6968
19113TIP3    H278755   5.768   5.533  12.353  0.3016 -0.2987 -1.1469
19114TIP3   OH278756   1.269   2.595   0.365  0.2198 -0.3333  0.2834
19114TIP3    H178757   1.285   2.505   0.393 -0.1209 -0.7573 -0.8143
19114TIP3    H278758   1.304   2.649   0.436  0.3483 -1.3257  0.9981
19115TIP3   OH278759   1.000   1.792   5.327  0.9424 -0.8129 -0.2841
19115TIP3    H178760   1.003   1.818   5.419 -1.8395  0.3586 -0.4136
19115TIP3    H278761   1.065   1.847   5.284  0.2955  0.7257  0.6110
19116TIP3   OH278762   0.177   2.065   3.871 -0.0203 -0.5112  0.1826
19116TIP3    H178763   0.214   2.153   3.878 -2.3204  0.7955 -2.1559
19116TIP3    H278764   0.246   2.013   3.831  0.7046  0.7858 -0.3109
19117TIP3   OH278765   2.469   5.682  17.135  0.2459 -0.9225 -0.2534
19117TIP3    H178766   2.445   5.758  17.188  1.3346 -1.0587  0.4726
19117TIP3    H278767   2.386   5.649  17.102 -0.3448 -0.0690  0.3175
19118TIP3   OH278768   6.678   0.435  16.913 -0.3488  0.2714 -0.2751
19118TIP3    H178769   6.691   0.511  16.857  1.0634  0.3710  0.1646
19118TIP3    H278770   6.655   0.472  16.999  1.0113  0.2370  0.1152
19119TIP3   OH278771   2.301   2.543   0.793 -0.1903 -0.5119 -0.0251
19119TIP3    H178772   2.206   2.558   0.798 -0.2113 -1.0108  1.5045
19119TIP3    H278773   2.310   2.448   0.800  0.4550 -0.4164  0.5287
19120TIP3   OH278774   6.763   1.623   6.268 -0.0031  0.1764 -0.6574
19120TIP3    H178775   6.672   1.595   6.265  0.2157 -0.7816  0.8078
19120TIP3    H278776   6.814   1.545   6.245  0.5330 -0.1188  1.3636
19121TIP3   OH278777   0.476   4.233  11.979 -0.4172  0.0332  0.5673
19121TIP3    H178778   0.387   4.216  11.949  0.5375 -3.4349 -0.8809
19121TIP3    H278779   0.506   4.307  11.925 -1.7984 -0.0010 -0.2947
19122TIP3   OH278780   0.579   0.577   6.197  0.3573 -0.2689  0.0772
19122TIP3    H178781   0.532   0.517   6.139  1.3407  0.6631 -1.7943
19122TIP3    H278782   0.510   0.624   6.244 -0.4892 -0.9256 -0.4691
19123TIP3   OH278783   4.997   6.778  15.999  0.2824 -0.2404 -0.2431
19123TIP3    H178784   5.050   6.701  16.022  1.0060  0.3823  0.1932
19123TIP3    H278785   4.969   6.761  15.908 -0.2338 -1.3841  0.1067
19124TIP3   OH278786   3.431   5.818   2.840  0.2151  0.1957 -0.3331
19124TIP3    H178787   3.476   5.742   2.877 -0.5786 -0.0082  0.2422
19124TIP3    H278788   3.439   5.807   2.745  1.0573 -0.0180 -0.2464
19125TIP3   OH278789   1.363   3.476   3.522 -0.0322 -0.3622  0.6274
19125TIP3    H178790   1.345   3.525   3.603 -2.2169 -2.5532  1.6012
19125TIP3    H278791   1.368   3.543   3.454 -0.3372  1.3949  2.2381
19126TIP3   OH278792   1.640   0.642   3.826  0.1253 -0.4384 -0.2203
19126TIP3    H178793   1.605   0.714   3.774  2.0674 -0.1731 -1.2806
19126TIP3    H278794   1.624   0.667   3.917  0.1500  1.0059 -0.5936
19127TIP3   OH278795   6.129   3.867   3.570  0.2846  0.2932 -0.4984
19127TIP3    H178796   6.154   3.820   3.650  1.1422  0.5170 -0.6254
19127TIP3    H278797   6.156   3.958   3.586  0.6470  0.2997 -1.1204
19128TIP3   OH278798   2.518   1.121   1.974 -0.1613 -0.6254  1.1152
19128TIP3    H178799   2.612   1.100   1.976  0.2615  1.0850  1.3200
19128TIP3    H278800   2.503   1.167   2.057 -1.4512 -1.8706  1.5887
19129TIP3   OH278801   1.713   2.938  11.828 -0.6068  0.6783 -0.0778
19129TIP3    H178802   1.740   2.903  11.913  0.0720  1.0500 -0.1318
19129TIP3    H278803   1.778   3.006  11.809 -2.2184  2.4109  0.3170
19130TIP3   OH278804   5.052   2.985   3.630 -0.0805  0.4863 -0.1607
19130TIP3    H178805   5.014   2.900   3.650 -0.3065  0.5813 -0.1842
19130TIP3    H278806   5.135   2.986   3.678 -0.4646  0.5809  0.5233
19131TIP3   OH278807   2.523   2.939   1.778  0.2411 -0.3983 -0.3901
19131TIP3    H178808   2.452   2.944   1.843  1.6944 -0.1152  1.2602
19131TIP3    H278809   2.512   2.854   1.737 -2.2316  0.4145 -1.6565
19132TIP3   OH278810   1.870   4.617   1.122 -0.4772 -0.0949 -0.3666
19132TIP3    H178811   1.799   4.616   1.057 -0.6050 -0.9742 -0.2151
19132TIP3    H278812   1.829   4.649   1.202 -1.5129 -3.4386  0.5988
19133TIP3   OH278813   4.480   6.337   0.406 -0.2447 -0.3368  0.0837
19133TIP3    H178814   4.472   6.395   0.330 -0.9010 -0.4115  0.0887
19133TIP3    H278815   4.574   6.322   0.415 -0.0926  0.4607 -0.1122
19134TIP3   OH278816   4.923   5.884   2.520 -0.4168  0.4744 -0.4425
19134TIP3    H178817   4.934   5.927   2.435 -0.3253  0.9027 -0.2201
19134TIP3    H278818   4.892   5.954   2.578 -1.8056 -0.1035 -0.4399
19135TIP3   OH278819   4.994   3.800  11.869  0.0851  0.2788 -0.2100
19135TIP3    H178820   4.930   3.858  11.827 -0.3338  0.4370  0.6207
19135TIP3    H278821   4.948   3.764  11.945  0.7392 -0.1953 -0.0273
19136TIP3   OH278822   6.368   6.395   5.784  0.1345 -0.3577  0.0170
19136TIP3    H178823   6.324   6.403   5.869 -2.6175 -0.8677 -1.2525
19136TIP3    H278824   6.406   6.307   5.784 -1.9513 -1.3155 -0.1310
19137TIP3   OH278825   5.971   5.062   4.620  0.2761 -0.3422  0.2191
19137TIP3    H178826   6.042   5.038   4.678  0.0254  1.0742  1.1580
19137TIP3    H278827   5.922   4.981   4.606  1.4823 -1.1093  0.3621
19138TIP3   OH278828   6.515   3.759  12.837 -0.5148  0.1623  0.0615
19138TIP3    H178829   6.474   3.844  12.819  1.5465  0.6509 -3.1458
19138TIP3    H278830   6.609   3.778  12.837 -0.0144 -2.0751 -0.6137
19139TIP3   OH278831   3.867   4.031   0.377  0.4816 -0.2536 -0.1735
19139TIP3    H178832   3.806   4.101   0.355  1.0514  0.5262  0.6732
19139TIP3    H278833   3.952   4.074   0.385  0.7129 -0.8860  1.1537
19140TIP3   OH278834   6.253   2.231  13.918 -0.4013  0.4125  0.1983
19140TIP3    H178835   6.228   2.267  13.833 -1.6289 -1.9212 -0.5029
19140TIP3    H278836   6.170   2.225  13.967 -0.7031 -3.1853 -0.4731
19141TIP3   OH278837   6.748   2.424   5.727  0.2490  0.2012 -0.1052
19141TIP3    H178838   6.792   2.371   5.794  2.0221 -1.6941 -2.5912
19141TIP3    H278839   6.718   2.360   5.662 -2.0261  1.9118 -0.8428
19142TIP3   OH278840   3.197   1.514  14.892  0.1918 -0.3322 -0.5723
19142TIP3    H178841   3.116   1.550  14.856  0.0383 -1.1446 -1.0737
19142TIP3    H278842   3.267   1.561  14.847  0.0012  0.0494 -0.4734
19143TIP3   OH278843   6.501   4.503   5.118 -0.2921  0.2671 -0.9171
19143TIP3    H178844   6.497   4.557   5.039  2.2762 -1.9530 -2.7542
19143TIP3    H278845   6.585   4.526   5.158 -0.2004 -0.7465 -0.4901
19144TIP3   OH278846   3.653   6.268  17.119  0.2624  0.5258  0.1654
19144TIP3    H178847   3.708   6.273  17.041  0.5061 -0.2416  0.2833
19144TIP3    H278848   3.598   6.191  17.104  2.1645 -1.2707  1.9254
19145TIP3   OH278849   2.839   1.829  15.792 -0.0573 -0.1398  0.0794
19145TIP3    H178850   2.874   1.889  15.857  0.0680 -1.2534  1.0738
19145TIP3    H278851   2.750   1.810  15.822  0.1426 -0.9753  0.1702
19146TIP3   OH278852   2.214   3.857  12.309 -0.0594  0.0144 -0.3971
19146TIP3    H178853   2.183   3.947  12.299 -1.1622 -0.3715 -0.6078
19146TIP3    H278854   2.236   3.829  12.220  0.5188  0.1488 -0.3002
19147TIP3   OH278855   1.404   6.537  15.938  0.1049 -0.2249 -0.9875
19147TIP3    H178856   1.311   6.524  15.918  0.0212 -1.5402  0.0269
19147TIP3    H278857   1.433   6.451  15.970  0.6493  1.0899  2.4976
19148TIP3   OH278858   2.607   4.191   4.996 -0.6325 -0.3592 -0.4759
19148TIP3    H178859   2.553   4.242   4.935  0.0629  0.8534 -0.1172
19148TIP3    H278860   2.622   4.108   4.951 -1.5017 -0.1205 -1.2358
19149TIP3   OH278861   5.341   0.470   1.314  0.3204  0.2422 -0.3624
19149TIP3    H178862   5.391   0.528   1.372  0.0786 -0.3393  0.4340
19149TIP3    H278863   5.328   0.390   1.365  0.9262 -0.6576 -1.5526
19150TIP3   OH278864   0.429   3.777  12.493 -0.3383 -0.8193  0.3121
19150TIP3    H178865   0.376   3.850  12.462 -1.4924 -2.2290 -1.2331
19150TIP3    H278866   0.488   3.815  12.558 -1.6552  1.2508  0.3701
19151TIP3   OH278867   1.180   5.027  13.459  0.0676 -0.1222  0.9786
19151TIP3    H178868   1.085   5.020  13.450 -0.0205  1.5075  0.3119
19151TIP3    H278869   1.211   5.046  13.370  1.1227 -1.5336  1.0243
19152TIP3   OH278870   1.048   3.591  13.103 -0.6995 -0.4583  0.7570
19152TIP3    H178871   0.988   3.538  13.051 -0.1757 -1.0380  0.7353
19152TIP3    H278872   1.044   3.553  13.191 -0.4763 -0.4104  0.7901
19153TIP3   OH278873   1.839   5.831   3.822  0.1088 -0.3187 -0.0280
19153TIP3    H178874   1.802   5.900   3.877  0.8190  0.2008 -0.1859
19153TIP3    H278875   1.874   5.878   3.746  0.8444 -0.8225 -0.0046
19154TIP3   OH278876   4.280   5.319   1.390  0.6318  0.0405 -0.1960
19154TIP3    H178877   4.334   5.286   1.318 -1.0485  0.4267 -1.7070
19154TIP3    H278878   4.192   5.325   1.353 -0.0586  1.4471  1.5338
19155TIP3   OH278879   6.649   3.549   3.288 -0.0707 -0.0734  0.2313
19155TIP3    H178880   6.567   3.559   3.335 -0.3348  0.1226 -0.2756
19155TIP3    H278881   6.661   3.631   3.240 -0.4998 -0.7969 -1.1453
19156TIP3   OH278882   5.602   6.698   5.654 -0.1309 -0.0014 -0.8483
19156TIP3    H178883   5.513   6.702   5.690 -0.2850 -1.2699 -1.0478
19156TIP3    H278884   5.603   6.766   5.586 -0.1024  1.8416  0.8796
19157TIP3   OH278885   5.551   1.693   4.657 -0.3857 -0.2077  0.0551
19157TIP3    H178886   5.635   1.658   4.687  0.7282  1.2180 -1.2391
19157TIP3    H278887   5.517   1.740   4.733  0.1771 -0.4439  0.4663
19158TIP3   OH278888   4.201   4.572   1.595  0.0392  0.2077  0.2693
19158TIP3    H178889   4.215   4.665   1.579  0.0152  0.1604 -0.0288
19158TIP3    H278890   4.148   4.543   1.521 -0.1276  0.0018  0.4673
19159TIP3   OH278891   0.908   5.035  15.180  0.0434  0.4075 -0.1653
19159TIP3    H178892   0.877   5.041  15.270  1.2303  1.6295  0.1927
19159TIP3    H278893   0.866   5.109  15.135  0.2345  0.3923 -0.3703
19160TIP3   OH278894   1.083   3.824  11.766 -0.8302 -0.2510 -0.2903
19160TIP3    H178895   1.136   3.745  11.770 -0.1496  0.2207  0.2740
19160TIP3    H278896   1.077   3.854  11.857 -1.2354  0.2439 -0.4728
19161TIP3   OH278897   1.644   3.509   5.631  0.4765 -0.4220  0.1174
19161TIP3    H178898   1.559   3.543   5.603  0.7248 -0.3363 -0.5470
19161TIP3    H278899   1.623   3.438   5.692 -0.0650 -0.1189  0.2870
19162TIP3   OH278900   6.172   1.236   0.582 -0.1228 -0.1396 -0.4443
19162TIP3    H178901   6.113   1.255   0.510 -0.8555  0.7368  0.3608
19162TIP3    H278902   6.162   1.310   0.642 -0.9538 -1.7166  1.4631
19163TIP3   OH278903   5.681   4.740   5.377 -0.0790 -0.0093  0.9696
19163TIP3    H178904   5.603   4.794   5.386 -1.1994 -1.7330  2.3284
19163TIP3    H278905   5.648   4.650   5.380  1.7108 -0.8109 -1.0375
19164TIP3   OH278906   6.657   0.456   5.326  0.3246  0.0750  0.4451
19164TIP3    H178907   6.652   0.513   5.249 -0.6349 -0.6796 -0.0743
19164TIP3    H278908   6.646   0.516   5.400  0.7512  0.7449 -0.0176
19165TIP3   OH278909   4.873   0.949  12.428  0.0273 -0.0598  0.5172
19165TIP3    H178910   4.792   0.934  12.379 -0.5090 -1.3053  1.7199
19165TIP3    H278911   4.855   0.914  12.515  1.9995 -0.7119  0.7028
19166TIP3   OH278912   6.658   2.579   4.155  0.0157  0.4722  0.3059
19166TIP3    H178913   6.654   2.640   4.081  1.3813  0.3870  0.1413
19166TIP3    H278914   6.650   2.492   4.116 -1.8213  0.4934  0.5309
19167TIP3   OH278915   3.028   5.540  15.741 -0.5893 -0.6568  0.2423
19167TIP3    H178916   3.071   5.582  15.667  0.0044 -0.0650  0.9094
19167TIP3    H278917   2.939   5.523  15.711 -0.2330 -0.8366 -0.7590
19168TIP3   OH278918   4.305   5.170  12.702 -0.2457  0.0099  0.9606
19168TIP3    H178919   4.267   5.083  12.688 -1.2640  0.2919  1.8414
19168TIP3    H278920   4.395   5.152  12.729 -0.5425 -0.7800  1.4594
19169TIP3   OH278921   3.396   6.684   0.605 -0.6440  0.1831 -0.0746
19169TIP3    H178922   3.415   6.605   0.656  0.0370 -0.6635 -1.5713
19169TIP3    H278923   3.319   6.662   0.553  0.3422 -0.0263 -1.5082
19170TIP3   OH278924   4.092   0.522  14.461 -1.0060 -0.0983 -0.4259
19170TIP3    H178925   4.181   0.495  14.436 -1.6324 -2.5606 -0.1947
19170TIP3    H278926   4.070   0.593  14.400  1.5848  1.5624  0.3781
19171TIP3   OH278927   6.762   2.367  13.627 -0.0820 -0.5885 -0.4641
19171TIP3    H178928   6.856   2.350  13.617  0.0742  0.1618 -0.3917
19171TIP3    H278929   6.722   2.327  13.550  0.3936 -0.2645 -0.8921
19172TIP3   OH278930   0.014   1.638  13.686 -0.6435 -0.1225  0.8970
19172TIP3    H178931  -0.029   1.559  13.652  1.1600 -0.7403 -0.0510
19172TIP3    H278932   0.046   1.683  13.608 -0.7670  1.0391  1.4986
19173TIP3   OH278933   1.878   3.684  15.348 -0.2736  0.5424  0.3443
19173TIP3    H178934   1.940   3.699  15.420 -1.9129  1.0887  1.7043
19173TIP3    H278935   1.852   3.592  15.357 -1.1089  0.8319  0.9974
19174TIP3   OH278936   3.440   3.077   2.081  0.3621 -0.0372 -0.4861
19174TIP3    H178937   3.534   3.066   2.089  0.7183  1.5683 -2.0588
19174TIP3    H278938   3.428   3.144   2.014 -1.9205 -0.7179 -0.8633
19175TIP3   OH278939   0.795   4.047   3.278 -0.5060  0.5733 -0.3050
19175TIP3    H178940   0.814   4.058   3.185 -1.0750  0.5299 -0.4339
19175TIP3    H278941   0.824   4.128   3.319 -1.5001  1.1717 -0.7321
19176TIP3   OH278942   4.230   3.374  14.927 -0.5246 -0.1229 -1.0734
19176TIP3    H178943   4.267   3.452  14.884  0.9274 -0.0912  0.1449
19176TIP3    H278944   4.141   3.400  14.952 -0.2616  0.9473 -1.2079
19177TIP3   OH278945   5.943   1.329  15.691  0.2056 -0.4879  0.1788
19177TIP3    H178946   6.000   1.400  15.721 -0.8741  1.2878 -1.7075
19177TIP3    H278947   5.982   1.250  15.728  2.2008  0.9345  1.3251
19178TIP3   OH278948   3.204   3.200   5.972 -0.0675 -0.0699 -0.8768
19178TIP3    H178949   3.154   3.243   6.040 -0.4570  0.5210 -1.5215
19178TIP3    H278950   3.140   3.176   5.905  0.1662 -1.4998 -0.6274
19179TIP3   OH278951   0.594   4.367   2.448 -0.4102 -0.5447  0.4763
19179TIP3    H178952   0.635   4.295   2.400  3.9082  1.8229  0.1549
19179TIP3    H278953   0.606   4.344   2.541 -1.9133 -1.5919  0.4480
19180TIP3   OH278954   3.439   2.362  11.842  0.1668  0.3687  0.1514
19180TIP3    H178955   3.346   2.357  11.823 -0.0861 -0.4048  1.4203
19180TIP3    H278956   3.445   2.348  11.937  1.6272 -0.6009 -0.0435
19181TIP3   OH278957   6.408   0.672  12.958 -0.1170  0.2196 -0.6780
19181TIP3    H178958   6.489   0.640  12.919 -0.5601  0.7541 -2.1131
19181TIP3    H278959   6.388   0.752  12.910 -0.3726  1.2912  1.0976
19182TIP3   OH278960   3.540   2.183   4.425  0.7519 -0.0454 -0.3310
19182TIP3    H178961   3.544   2.120   4.496 -0.6354  1.2334  0.9547
19182TIP3    H278962   3.446   2.194   4.407  1.0506  0.1481 -1.9084
19183TIP3   OH278963   0.335   5.950   5.476  0.2978 -0.3318 -0.3568
19183TIP3    H178964   0.320   5.905   5.559 -1.5998 -0.7569 -0.8793
19183TIP3    H278965   0.427   5.933   5.455  0.2389 -2.0257  0.6083
19184TIP3   OH278966   0.025   2.665   4.704 -0.0651 -0.4728  0.7383
19184TIP3    H178967   0.096   2.601   4.701  0.4425  0.0516  1.1934
19184TIP3    H278968   0.017   2.687   4.797  0.1896  0.5811  0.5230
19185TIP3   OH278969   6.009   2.276  14.034 -0.0203  0.2664 -0.1040
19185TIP3    H178970   5.948   2.232  13.975 -0.8576 -0.0090  0.9149
19185TIP3    H278971   5.952   2.317  14.099  0.8751  0.2737  0.6918
19186TIP3   OH278972   3.694   0.353  17.075  0.0344  0.5301 -0.0045
19186TIP3    H178973   3.670   0.388  17.161  0.9238 -2.5206  1.6764
19186TIP3    H278974   3.667   0.261  17.079  0.5364  0.1658 -2.8481
19187TIP3   OH278975   6.036   3.707   5.338  0.3810  0.9353  0.2689
19187TIP3    H178976   5.949   3.687   5.306 -0.6728  0.7566  2.9491
19187TIP3    H278977   6.095   3.670   5.273 -1.5434 -0.6978 -0.6478
19188TIP3   OH278978   3.470   2.833  13.250  0.1234 -0.2907 -0.0506
19188TIP3    H178979   3.560   2.855  13.227  0.0803  1.0944  1.0270
19188TIP3    H278980   3.416   2.898  13.206 -0.3724 -1.1103 -0.6912
19189TIP3   OH278981   2.993   0.616  15.385  0.2103 -1.1891 -0.3267
19189TIP3    H178982   2.992   0.671  15.306  2.4865 -0.4297  0.0995
19189TIP3    H278983   2.990   0.678  15.457 -0.4416 -1.8129  0.1903
19190TIP3   OH278984   3.337   6.184   3.303 -0.4181  0.5928  0.4108
19190TIP3    H178985   3.289   6.267   3.307 -0.5226  0.5195  0.7401
19190TIP3    H278986   3.426   6.206   3.332 -0.4014  0.6216  0.3382
19191TIP3   OH278987   5.938   0.680   4.543  0.3844  0.7005 -0.5803
19191TIP3    H178988   5.887   0.756   4.516  0.8351  1.2704  0.1242
19191TIP3    H278989   5.896   0.650   4.624 -2.4972 -2.5038 -2.9653
19192TIP3   OH278990   0.499   1.091  10.462  0.1986  0.3319  0.2719
19192TIP3    H178991   0.457   1.028  10.404 -1.0186  1.2823  0.0760
19192TIP3    H278992   0.484   1.057  10.550 -0.0748  0.1137  0.1421
19193TIP3   OH278993   5.479   2.447  14.824  0.1761  0.1757  0.3985
19193TIP3    H178994   5.449   2.536  14.845  0.8455  0.4376  0.2664
19193TIP3    H278995   5.544   2.427  14.892  2.7432  1.2215 -1.6089
19194TIP3   OH278996   2.159   3.048  15.717 -0.3269  0.5811  0.1052
19194TIP3    H178997   2.180   3.137  15.689  1.4322  0.3870  0.6528
19194TIP3    H278998   2.131   3.004  15.638  0.9846  1.0281 -0.6412
19195TIP3   OH278999   1.935   0.440  14.380 -0.8878  0.4062 -0.4252
19195TIP3    H179000   2.004   0.374  14.371 -1.6625 -0.1872 -2.5449
19195TIP3    H279001   1.981   0.519  14.409  0.3929 -0.4461 -0.0599
19196TIP3   OH279002   4.854   5.271   6.180 -0.1025 -0.6572 -0.4750
19196TIP3    H179003   4.848   5.246   6.088 -0.7948  0.3854 -0.7315
19196TIP3    H279004   4.763   5.273   6.210  0.1141 -0.8748  0.2096
19197TIP3   OH279005   6.411   6.142  12.494 -0.3906 -0.1979  0.2274
19197TIP3    H179006   6.434   6.096  12.413  0.9398  1.0494 -0.1432
19197TIP3    H279007   6.472   6.107  12.559 -0.9513 -0.6473  0.5191
19198TIP3   OH279008   4.453   1.792   2.534 -0.1243 -0.0597  0.1357
19198TIP3    H179009   4.506   1.757   2.462  0.7735 -0.8807  1.1566
19198TIP3    H279010   4.464   1.728   2.604 -1.1627  0.6135  0.9309
19199TIP3   OH279011   3.156   0.536   2.630 -0.0668  0.2540  0.4130
19199TIP3    H179012   3.109   0.458   2.600 -0.5770  0.5818  0.3355
19199TIP3    H279013   3.124   0.550   2.719  1.2595 -0.5743  1.0513
19200TIP3   OH279014   4.741   5.875  15.030 -0.8315  0.4039 -0.2530
19200TIP3    H179015   4.780   5.914  15.108  0.1763  0.5088 -0.8013
19200TIP3    H279016   4.697   5.796  15.063  0.2637  0.0046  0.3096
19201TIP3   OH279017   5.129   3.615   2.256  0.4058  0.2050  0.5556
19201TIP3    H179018   5.036   3.630   2.237  0.2525 -0.2007  0.9700
19201TIP3    H279019   5.163   3.573   2.177  0.6370  1.8649 -0.2754
19202TIP3   OH279020   1.229   5.671  14.828 -0.1630 -0.0559  0.4281
19202TIP3    H179021   1.319   5.701  14.827 -0.2926  0.3413  0.1420
19202TIP3    H279022   1.184   5.732  14.887  0.3496 -2.1003  3.1207
19203TIP3   OH279023   2.662   1.336  12.938 -0.9684  0.4817 -0.3653
19203TIP3    H179024   2.617   1.270  12.885 -0.7768 -0.9265  1.1494
19203TIP3    H279025   2.593   1.398  12.962 -1.4502  0.0624 -0.6379
19204TIP3   OH279026   5.164   0.867  14.548 -0.4513  0.0023  0.1117
19204TIP3    H179027   5.217   0.897  14.622 -1.3273  1.6681  0.1035
19204TIP3    H279028   5.194   0.778  14.532  1.4801  0.4587  0.8975
19205TIP3   OH279029   6.524   1.223   3.230  0.1421 -0.4382 -0.1775
19205TIP3    H179030   6.468   1.166   3.177  0.1171 -1.0705  0.5021
19205TIP3    H279031   6.613   1.203   3.200  0.2009 -1.4703  0.6142
19206TIP3   OH279032   6.310   0.751  13.800  0.5674  0.5032 -0.3496
19206TIP3    H179033   6.328   0.701  13.720 -0.2353  0.5641 -0.5862
19206TIP3    H279034   6.387   0.806  13.812  0.8782  0.1910 -0.8490
19207TIP3   OH279035   4.818   1.691   2.649 -0.3983  0.5510 -0.3657
19207TIP3    H179036   4.887   1.668   2.711 -0.8371  2.2393  0.8276
19207TIP3    H279037   4.865   1.715   2.569  0.2299 -0.7614 -0.4133
19208TIP3   OH279038   4.533   3.988   3.415 -0.0130  0.7843  0.3154
19208TIP3    H179039   4.492   3.902   3.413  0.2786  0.6340 -1.7863
19208TIP3    H279040   4.488   4.035   3.485 -1.5736 -0.4167  0.1692
19209TIP3   OH279041   3.861   6.248   2.845  0.1345 -0.4722  0.1882
19209TIP3    H179042   3.817   6.227   2.763  0.2471  0.5061 -0.1260
19209TIP3    H279043   3.805   6.312   2.888 -0.7570 -2.1580  1.6584
19210TIP3   OH279044   2.628   4.178  13.962  0.0497 -0.5015  0.7006
19210TIP3    H179045   2.584   4.100  13.995 -0.9213  0.2450  1.2276
19210TIP3    H279046   2.680   4.210  14.036  0.7576 -0.8602  0.3661
19211TIP3   OH279047   3.833   5.944   2.422 -0.0480 -0.3068  0.2908
19211TIP3    H179048   3.899   5.917   2.358 -1.1653 -0.7500 -0.7180
19211TIP3    H279049   3.751   5.907   2.389 -0.5434 -1.2517  2.4259
19212TIP3   OH279050   4.974   2.432   2.074 -0.1656  0.0753  0.0226
19212TIP3    H179051   4.899   2.396   2.122  0.8057  1.1918  2.5882
19212TIP3    H279052   5.040   2.447   2.142  1.1118  2.3665 -1.6047
19213TIP3   OH279053   5.774   3.120   1.091 -0.4421 -0.3440 -0.1508
19213TIP3    H179054   5.708   3.092   1.154  1.4196 -0.3821  1.8913
19213TIP3    H279055   5.857   3.116   1.139  0.9481  0.6442 -2.3021
19214TIP3   OH279056   0.136   4.454   3.581  0.0278  0.2503  0.3098
19214TIP3    H179057   0.184   4.372   3.576 -0.3283  0.0662 -0.1743
19214TIP3    H279058   0.060   4.435   3.635 -0.8505 -0.1549 -1.0191
19215TIP3   OH279059   2.099   2.272  15.706  0.2462  0.3306  0.2635
19215TIP3    H179060   2.077   2.254  15.797 -0.1077  0.6285  0.2415
19215TIP3    H279061   2.083   2.366  15.696  0.9901  0.4427  0.0894
19216TIP3   OH279062   5.142   2.007   1.293  0.5456 -0.1340  0.4261
19216TIP3    H179063   5.141   2.022   1.198  0.0641  0.0352  0.4556
19216TIP3    H279064   5.231   1.976   1.311  1.2393  1.5994  0.1959
19217TIP3   OH279065   0.773   0.917   0.405  0.1910  0.6771 -0.4532
19217TIP3    H179066   0.770   1.012   0.398  0.3596  0.7137 -0.0348
19217TIP3    H279067   0.696   0.887   0.357 -0.3337  1.0580  0.1419
19218TIP3   OH279068   2.950   2.349   5.368 -0.2288 -0.5562  0.0195
19218TIP3    H179069   2.987   2.378   5.285  1.9412 -0.4933  0.9395
19218TIP3    H279070   3.026   2.325   5.421 -1.4407  0.4935  2.4005
19219TIP3   OH279071   6.574   5.594   4.077  0.4827 -0.9191  0.2774
19219TIP3    H179072   6.614   5.507   4.082  1.4988 -0.4314  1.0416
19219TIP3    H279073   6.610   5.632   3.997 -0.3727 -1.3855 -0.3401
19220TIP3   OH279074   6.063   5.802   5.386 -0.3388 -0.0558  0.1112
19220TIP3    H179075   6.000   5.803   5.458  0.0388 -1.6775  0.5172
19220TIP3    H279076   6.015   5.764   5.312 -0.5401  1.0091 -0.3170
19221TIP3   OH279077   5.025   6.410   2.266 -0.8275 -0.2328  0.3567
19221TIP3    H179078   5.059   6.322   2.279 -2.1613 -1.1240 -1.6273
19221TIP3    H279079   5.074   6.443   2.190 -2.9138 -0.8375 -1.3694
19222TIP3   OH279080   2.874   2.727   2.498  0.0381  0.6879  0.1254
19222TIP3    H179081   2.913   2.810   2.525 -0.8843  1.2270 -0.1452
19222TIP3    H279082   2.782   2.735   2.523 -0.1593 -0.0740 -0.3224
19223TIP3   OH279083   4.422   2.079   5.445 -0.2658  1.2207 -0.2955
19223TIP3    H179084   4.516   2.077   5.430 -0.3532  1.2897 -0.8755
19223TIP3    H279085   4.410   2.039   5.531  0.2059  0.3406 -0.6304
19224TIP3   OH279086   4.423   0.037   4.884  0.4595  0.6770 -0.0737
19224TIP3    H179087   4.517   0.038   4.900  0.0359 -0.9037  3.4233
19224TIP3    H279088   4.385   0.085   4.958 -1.5745 -1.3935  0.3501
19225TIP3   OH279089   1.182   6.049  14.040 -0.6709  0.5319 -0.5059
19225TIP3    H179090   1.138   5.969  14.012  0.1667  0.4187 -1.5524
19225TIP3    H279091   1.111   6.106  14.070 -1.3537 -0.2717 -0.5636
19226TIP3   OH279092   3.545   3.783  13.587  0.0206  0.2905 -0.2699
19226TIP3    H179093   3.510   3.868  13.560 -1.7208 -0.4049 -0.3196
19226TIP3    H279094   3.507   3.721  13.524  0.0837 -0.7034  0.6553
19227TIP3   OH279095   1.749   2.513   5.401 -0.1793  0.2527 -0.5369
19227TIP3    H179096   1.770   2.458   5.326 -0.3251  2.0267 -1.9522
19227TIP3    H279097   1.834   2.536   5.439 -0.1165 -0.8485  0.0177
19228TIP3   OH279098   1.431   0.175   3.001  0.7715  0.2312  0.8506
19228TIP3    H179099   1.498   0.133   3.055  0.6101  0.5640  1.3171
19228TIP3    H279100   1.430   0.124   2.920  0.1811 -1.0199  1.6210
19229TIP3   OH279101   6.437   2.699  14.266 -1.2750 -0.5082  0.0230
19229TIP3    H179102   6.400   2.680  14.179 -0.6494  1.4123 -0.7111
19229TIP3    H279103   6.375   2.760  14.305 -0.1183  0.8644 -0.2447
19230TIP3   OH279104   6.080   6.329  15.588 -0.1040 -0.0223  0.6811
19230TIP3    H179105   6.167   6.366  15.602  0.0429 -0.0670 -0.0707
19230TIP3    H279106   6.079   6.304  15.495 -1.5970  1.7903  0.1570
19231TIP3   OH279107   2.535   6.190  17.134  0.8454  0.0509  0.1095
19231TIP3    H179108   2.629   6.208  17.126  0.2716  2.9737 -1.6544
19231TIP3    H279109   2.511   6.152  17.049  0.6113 -1.9739  1.0361
19232TIP3   OH279110   2.286   2.534   2.734  0.0111 -0.8608 -0.0962
19232TIP3    H179111   2.242   2.521   2.650  0.4451 -1.1778 -0.2783
19232TIP3    H279112   2.297   2.445   2.769  0.4042 -0.7748 -0.0018
19233TIP3   OH279113   0.322   5.415   4.188  0.2582 -0.5185  0.3089
19233TIP3    H179114   0.289   5.504   4.202  0.0593 -0.1156 -2.3095
19233TIP3    H279115   0.418   5.425   4.189  0.3443  0.5024 -3.3990
19234TIP3   OH279116   4.062   2.390  14.631 -0.0030 -0.8349 -0.0422
19234TIP3    H179117   4.134   2.402  14.693  0.1514 -0.8821 -0.2127
19234TIP3    H279118   3.983   2.394  14.685  0.0983 -0.2002  0.0679
19235TIP3   OH279119   2.888   5.725   2.881  0.7356  0.5794 -0.4068
19235TIP3    H179120   2.796   5.748   2.870  0.5928  0.1259 -0.2069
19235TIP3    H279121   2.887   5.632   2.903  1.3709 -0.1479 -3.0709
19236TIP3   OH279122   0.264   1.188   2.601 -0.2465 -0.3114  0.2910
19236TIP3    H179123   0.181   1.219   2.638 -1.5550 -1.7000 -1.3190
19236TIP3    H279124   0.289   1.255   2.537  0.1659  0.3547  1.1313
19237TIP3   OH279125   3.114   5.186   0.274 -0.4132 -0.2860  0.2817
19237TIP3    H179126   3.022   5.180   0.300 -1.1857 -1.1551 -2.3574
19237TIP3    H279127   3.137   5.278   0.288 -1.4869 -0.1769  1.5234
19238TIP3   OH279128   5.472   0.320  14.071  0.2985  0.6442  0.0069
19238TIP3    H179129   5.501   0.412  14.067 -2.4894  1.6905  1.3865
19238TIP3    H279130   5.432   0.305  13.985 -0.3522  1.1571  0.2107
19239TIP3   OH279131   3.236   1.467   4.309 -0.1948  0.3462  0.0578
19239TIP3    H179132   3.236   1.375   4.281  0.1759  0.5910 -0.7833
19239TIP3    H279133   3.165   1.473   4.372  0.5301 -0.7825  1.0241
19240TIP3   OH279134   1.082   3.745   2.704 -0.4697  0.5391  0.2498
19240TIP3    H179135   1.090   3.694   2.624  0.4641  2.3393 -0.8741
19240TIP3    H279136   1.056   3.832   2.673  2.7955  2.1127  1.5769
19241TIP3   OH279137   6.142   1.422  15.439 -0.0835 -0.4433  0.5775
19241TIP3    H179138   6.104   1.335  15.425 -0.7575 -0.1533  0.5770
19241TIP3    H279139   6.157   1.426  15.534 -2.3722  0.3543  0.9693
19242TIP3   OH279140   1.913   4.486  11.704 -0.1303 -0.4818  0.4781
19242TIP3    H179141   1.871   4.430  11.639 -1.4523  0.8747  0.1158
19242TIP3    H279142   1.994   4.514  11.662 -1.2268  0.8361 -0.8900
19243TIP3   OH279143   2.361   4.129   1.443 -0.9529  0.1766  0.9217
19243TIP3    H179144   2.447   4.091   1.462 -0.3750  0.5221 -0.8271
19243TIP3    H279145   2.311   4.057   1.403 -0.2275  0.8696 -1.3759
19244TIP3   OH279146   5.219   0.608  14.455  0.6053 -0.8314  0.2062
19244TIP3    H179147   5.175   0.573  14.378  0.5661 -0.0766 -0.1314
19244TIP3    H279148   5.258   0.532  14.498 -0.5954 -1.4396  0.2385
19245TIP3   OH279149   1.925   0.219   1.420 -0.7176 -0.3230 -0.0778
19245TIP3    H179150   1.999   0.253   1.470 -1.1344  0.4859  0.0014
19245TIP3    H279151   1.859   0.287   1.426 -0.9227 -0.3821 -1.4219
19246TIP3   OH279152   0.759   3.440   5.105 -0.6968 -0.0326  0.3826
19246TIP3    H179153   0.713   3.524   5.102 -0.3782  0.1486  0.5275
19246TIP3    H279154   0.798   3.431   5.018 -1.8253 -0.6605 -0.0872
19247TIP3   OH279155   0.001   4.378   0.410 -0.2881 -0.1887  0.0314
19247TIP3    H179156  -0.001   4.293   0.453  0.6277 -0.0371  0.4033
19247TIP3    H279157  -0.029   4.362   0.321 -1.1833 -0.6982  0.4163
19248TIP3   OH279158   0.687   5.439   6.573 -0.3831  0.0148 -0.1572
19248TIP3    H179159   0.629   5.513   6.553 -0.6991 -0.0096  0.6349
19248TIP3    H279160   0.715   5.454   6.663  2.3053  1.0048 -1.0370
19249TIP3   OH279161   4.626   5.988  12.205 -0.1084  0.1980 -0.2947
19249TIP3    H179162   4.606   5.940  12.285 -1.8516  0.5686 -0.4690
19249TIP3    H279163   4.665   5.924  12.147  0.1686 -0.3275  0.4542
19250TIP3   OH279164   2.596   0.426   0.504  0.1850 -0.0767  0.4425
19250TIP3    H179165   2.570   0.474   0.425 -0.6049 -0.3439  0.5354
19250TIP3    H279166   2.568   0.336   0.489  0.3880 -0.2169  0.8650
19251TIP3   OH279167   3.302   1.960   3.775  0.0797  0.3274  0.1841
19251TIP3    H179168   3.250   1.928   3.849  1.9087  1.1651  1.9205
19251TIP3    H279169   3.313   2.053   3.792  0.4920  0.5567 -1.2190
19252TIP3   OH279170   1.197   0.375  14.302  0.0800  0.0174 -0.3623
19252TIP3    H179171   1.105   0.400  14.292  0.8167  3.6569  0.8163
19252TIP3    H279172   1.246   0.441  14.253  2.1362 -2.0566 -1.2989
19253TIP3   OH279173   0.673   3.401  12.482  0.5605 -0.4435  0.0500
19253TIP3    H179174   0.663   3.357  12.566  0.7275  0.2426  0.4390
19253TIP3    H279175   0.767   3.405  12.467  0.5201 -0.8308 -0.3150
19254TIP3   OH279176   2.008   0.393   5.824 -0.2153 -0.2340  0.6522
19254TIP3    H179177   1.946   0.445   5.876  0.5114  0.8636  0.4564
19254TIP3    H279178   1.979   0.404   5.734  0.3466  0.4122  0.5452
19255TIP3   OH279179   0.037   3.344  13.658  0.0599 -0.2435 -0.5179
19255TIP3    H179180   0.014   3.264  13.611 -0.5817 -1.4403  1.6829
19255TIP3    H279181  -0.047   3.384  13.679  0.3490  2.5922 -3.9040
19256TIP3   OH279182   0.867   1.448   3.397 -0.1363 -0.2319  0.0450
19256TIP3    H179183   0.774   1.427   3.406 -0.2338 -1.0908 -2.4344
19256TIP3    H279184   0.901   1.385   3.334  1.5606  1.6558 -1.0607
19257TIP3   OH279185   2.162   2.841   0.404  0.2901 -0.0926  0.4694
19257TIP3    H179186   2.191   2.914   0.350  2.1731 -0.1250  1.3534
19257TIP3    H279187   2.172   2.872   0.494  0.9316 -1.3385  0.8541
19258TIP3   OH279188   5.824   2.672  13.879 -0.3409  0.4402  0.2389
19258TIP3    H179189   5.839   2.694  13.971  0.6659  1.2433 -0.0931
19258TIP3    H279190   5.884   2.599  13.861 -1.9247 -1.0305  0.6981
19259TIP3   OH279191   6.104   6.061   5.436  0.1877 -1.1019 -0.4801
19259TIP3    H179192   6.084   5.979   5.389 -1.6070 -0.5230 -0.8241
19259TIP3    H279193   6.133   6.121   5.368 -1.7471 -0.4759 -0.8351
19260TIP3   OH279194   4.902   6.525   2.458  0.7475 -0.7272  0.2542
19260TIP3    H179195   4.980   6.566   2.495 -0.2166 -1.1613  3.0116
19260TIP3    H279196   4.933   6.479   2.380  3.2482 -0.9396  1.2977
19261TIP3   OH279197   0.064   0.438   0.298  0.4563  0.0401 -0.6753
19261TIP3    H179198   0.125   0.394   0.357 -0.8465 -3.0594 -1.4630
19261TIP3    H279199   0.095   0.417   0.210 -0.6453  0.0034 -1.0797
19262TIP3   OH279200   1.350   4.502   3.817 -0.7566  0.2621 -0.0577
19262TIP3    H179201   1.327   4.410   3.827  0.6944 -0.0357  0.7728
19262TIP3    H279202   1.336   4.520   3.724  2.1628 -1.7700 -1.0212
19263TIP3   OH279203   4.816   3.417   5.650  0.5496 -0.2814 -0.6756
19263TIP3    H179204   4.877   3.491   5.642  0.4265 -0.1287 -0.2143
19263TIP3    H279205   4.840   3.375   5.733  0.6021 -0.7479 -0.9198
19264TIP3   OH279206   1.806   4.078   1.423  0.4620 -0.6885  0.9024
19264TIP3    H179207   1.829   4.085   1.516 -0.7544 -0.5673  1.2149
19264TIP3    H279208   1.890   4.068   1.378  0.9832 -2.5340  2.1686
19265TIP3   OH279209   3.357   4.059  10.563  0.2839 -0.4915  0.6138
19265TIP3    H179210   3.419   4.123  10.528 -0.5895 -0.7147 -1.5075
19265TIP3    H279211   3.272   4.091  10.533 -0.5089 -0.8752  2.3871
19266TIP3   OH279212   0.627   3.819  14.074  0.2634 -0.1237 -0.0180
19266TIP3    H179213   0.640   3.913  14.068 -1.5603  0.2911  1.4248
19266TIP3    H279214   0.692   3.790  14.138  0.3160  0.2807  0.1143
19267TIP3   OH279215   6.075   4.749   3.314 -0.4354 -0.5455 -0.1093
19267TIP3    H179216   6.034   4.665   3.332 -0.9341 -0.3060 -0.1070
19267TIP3    H279217   6.045   4.806   3.384 -0.6160 -0.1999 -0.4620
19268TIP3   OH279218   2.728   2.047  14.842  0.5952  0.6061 -0.4270
19268TIP3    H179219   2.763   1.964  14.811 -1.5758 -0.5377 -0.0308
19268TIP3    H279220   2.796   2.081  14.900  1.0954 -1.4961  0.3338
19269TIP3   OH279221   1.640   5.258   6.604 -0.6499 -0.3617  0.1194
19269TIP3    H179222   1.641   5.242   6.510 -0.4005 -0.2025  0.0942
19269TIP3    H279223   1.639   5.354   6.612 -3.1047 -0.3427  0.2633
19270TIP3   OH279224   0.142   3.433  12.889  0.3642 -0.0336 -0.0316
19270TIP3    H179225   0.055   3.396  12.900 -0.4286  1.9765  1.1185
19270TIP3    H279226   0.140   3.514  12.941  3.4043 -0.6581  1.2556
19271TIP3   OH279227   4.802   4.370   5.969 -0.1697  0.5627  0.3661
19271TIP3    H179228   4.748   4.344   6.045 -1.8710  0.1308 -0.9244
19271TIP3    H279229   4.750   4.438   5.926  1.0606  1.2249 -0.1198
19272TIP3   OH279230   2.376   0.300   5.462 -0.1552  0.0852  0.2611
19272TIP3    H179231   2.306   0.353   5.499  0.9648  1.5496  0.3797
19272TIP3    H279232   2.349   0.284   5.371  0.6710  3.1990 -0.6398
19273TIP3   OH279233   1.537   5.376  16.889 -0.4394 -0.1528 -0.0986
19273TIP3    H179234   1.527   5.282  16.879  1.7073 -0.3054 -1.5093
19273TIP3    H279235   1.622   5.387  16.933  1.1325  1.0641 -3.1133
19274TIP3   OH279236   2.885   6.579  14.988  0.6691  0.2233  0.1594
19274TIP3    H179237   2.946   6.533  14.931  0.8176  2.7951 -1.9666
19274TIP3    H279238   2.939   6.645  15.032 -0.0354  0.4381  0.7307
19275TIP3   OH279239   6.607   0.117   4.639  0.0604 -0.3084  0.2485
19275TIP3    H179240   6.626   0.172   4.715 -0.7217 -0.7227  0.7533
19275TIP3    H279241   6.575   0.035   4.676 -2.0796  0.1240 -0.5402
19276TIP3   OH279242   2.625   4.377   4.138  0.1774  0.4293 -0.1375
19276TIP3    H179243   2.684   4.396   4.065  0.0147  0.8011 -0.1695
19276TIP3    H279244   2.546   4.428   4.120 -0.9302 -1.4967 -1.1001
19277TIP3   OH279245   0.915   0.747   1.598  0.4802  0.2953 -0.2390
19277TIP3    H179246   0.823   0.741   1.572  0.3833 -0.7731  0.2901
19277TIP3    H279247   0.923   0.833   1.638 -0.2216  0.5139 -0.5552
19278TIP3   OH279248   0.445   1.719   1.277  0.0628 -0.0963  0.4271
19278TIP3    H179249   0.448   1.675   1.362 -0.3068  0.1392  0.5674
19278TIP3    H279250   0.430   1.649   1.214  1.1135 -0.3738  0.4642
19279TIP3   OH279251   4.391   1.357  11.349 -0.3485  0.1443 -0.6216
19279TIP3    H179252   4.332   1.432  11.338 -0.7029  0.2198  1.4447
19279TIP3    H279253   4.350   1.304  11.417  0.7127 -1.1321 -0.9310
19280TIP3   OH279254   0.931   3.896  11.503  0.6996  0.6394  0.7209
19280TIP3    H179255   0.994   3.917  11.572  0.2875  0.6663  1.0921
19280TIP3    H279256   0.871   3.971  11.502  0.5835  0.5457  0.4656
19281TIP3   OH279257   4.184   6.633  11.427  0.1274  0.4081  0.0571
19281TIP3    H179258   4.152   6.551  11.465 -1.9023  1.1842  0.1049
19281TIP3    H279259   4.204   6.688  11.502  2.2264 -0.2462  0.0452
19282TIP3   OH279260   6.378   0.643   2.257 -0.0835  0.2642 -0.2429
19282TIP3    H179261   6.289   0.616   2.232  0.0853 -0.7990  0.2603
19282TIP3    H279262   6.430   0.628   2.178  0.2441 -2.1184  0.3523
19283TIP3   OH279263   1.385   3.594   5.547 -0.1621  0.1479  0.0385
19283TIP3    H179264   1.325   3.521   5.564 -1.1477  0.6089 -1.3147
19283TIP3    H279265   1.335   3.654   5.491 -0.0204  2.7264  2.4532
19284TIP3   OH279266   6.459   1.626   5.216 -0.3232  0.0550 -0.0468
19284TIP3    H179267   6.381   1.600   5.265  0.9221 -0.8294  1.5325
19284TIP3    H279268   6.479   1.714   5.249 -0.2398 -0.0040  0.0581
19285TIP3   OH279269   6.696   1.723  12.348  0.1884 -0.5885 -0.4017
19285TIP3    H179270   6.716   1.727  12.254  0.5427  0.9379 -0.2895
19285TIP3    H279271   6.782   1.730  12.391 -0.0124 -0.8369  0.0492
19286TIP3   OH279272   2.294   3.000   1.461 -0.7514 -0.2404  0.0111
19286TIP3    H179273   2.315   3.093   1.475  0.8645 -0.5651 -0.1289
19286TIP3    H279274   2.316   2.984   1.370 -0.8593 -0.8109  0.0833
19287TIP3   OH279275   4.473   0.826   5.565  0.2515 -1.0202  0.3726
19287TIP3    H179276   4.492   0.849   5.474  0.9105 -1.2784  0.4438
19287TIP3    H279277   4.410   0.893   5.594  2.3067  0.8890  0.6741
19288TIP3   OH279278   3.206   1.312   3.941  0.3838  0.7854  0.0792
19288TIP3    H179279   3.120   1.345   3.916 -0.1529 -0.8565 -0.3350
19288TIP3    H279280   3.195   1.217   3.949  1.8486  0.6662  1.2800
19289TIP3   OH279281   3.266   1.047   4.071 -0.0966 -0.4067  0.3049
19289TIP3    H179282   3.341   1.077   4.123  1.0724  0.9771 -2.0498
19289TIP3    H279283   3.193   1.046   4.134  1.8698 -2.1112  2.7500
19290TIP3   OH279284   1.789   5.674   0.630 -0.0703  0.2543 -0.4808
19290TIP3    H179285   1.827   5.658   0.543 -0.5389  1.4046 -0.9075
19290TIP3    H279286   1.857   5.645   0.691 -0.2967 -1.9564 -1.1860
19291TIP3   OH279287   5.025   4.533  13.902  0.4126 -0.4608  0.0079
19291TIP3    H179288   5.018   4.524  13.997 -2.5527 -0.4479 -0.1253
19291TIP3    H279289   5.067   4.618  13.889  3.5822 -1.6917  1.2152
19292TIP3   OH279290   1.241   4.711  16.173  0.1560 -0.6138  0.2952
19292TIP3    H179291   1.156   4.755  16.176  0.4738 -0.0035  0.5729
19292TIP3    H279292   1.303   4.781  16.151  0.4778 -1.2228 -0.8185
19293TIP3   OH279293   2.877   3.636  14.469  0.2022  0.2110 -0.0375
19293TIP3    H179294   2.816   3.606  14.536 -1.5758  0.0976 -1.6301
19293TIP3    H279295   2.930   3.703  14.513 -0.6773 -0.0760  1.5369
19294TIP3   OH279296   5.704   3.698   3.829  0.0240 -0.4096 -0.3044
19294TIP3    H179297   5.635   3.762   3.814 -0.1602 -0.1143  1.6188
19294TIP3    H279298   5.785   3.748   3.824 -0.0238 -0.3373 -0.3664
19295TIP3   OH279299   5.694   1.072  12.353  0.1800 -0.0875  0.1764
19295TIP3    H179300   5.699   1.143  12.289 -2.1332 -0.5250 -0.5691
19295TIP3    H279301   5.641   1.107  12.424 -0.4386 -0.8559  0.0994
19296TIP3   OH279302   4.547   3.339   2.963 -0.6384 -0.2431 -0.0082
19296TIP3    H179303   4.542   3.428   2.927 -0.4583  0.7123  2.1357
19296TIP3    H279304   4.491   3.287   2.907  0.3136  0.9046 -2.1671
19297TIP3   OH279305   3.236   2.912   4.823  0.4226 -0.2615 -0.3481
19297TIP3    H179306   3.312   2.963   4.851 -1.0814  2.1088 -0.3056
19297TIP3    H279307   3.178   2.976   4.782 -1.7194 -1.9067 -0.0505
19298TIP3   OH279308   2.875   5.364  13.636  0.1848  0.3758 -0.1742
19298TIP3    H179309   2.950   5.392  13.689 -0.1548  1.6952 -0.3623
19298TIP3    H279310   2.818   5.440  13.632 -0.8133 -0.3687 -0.6854
19299TIP3   OH279311   2.278   6.261   0.968  0.1346 -0.4134  0.2841
19299TIP3    H179312   2.194   6.286   0.930  0.6403  1.5342  0.3746
19299TIP3    H279313   2.278   6.301   1.055  1.2027 -0.2702  0.2323
19300TIP3   OH279314   2.969   3.266   2.576 -0.4550  0.0853  0.2956
19300TIP3    H179315   2.959   3.361   2.570  1.6390  0.5187  2.3581
19300TIP3    H279316   2.957   3.246   2.669  2.1184 -1.1649  0.4578
19301TIP3   OH279317   3.150   1.743   3.425 -0.4497 -0.0045 -0.2680
19301TIP3    H179318   3.180   1.801   3.355  0.6964  2.0120  1.7716
19301TIP3    H279319   3.223   1.741   3.487 -2.1535 -0.0679  1.8400
19302TIP3   OH279320   5.191   4.952  14.338  0.4772  0.5326  0.6965
19302TIP3    H179321   5.215   4.950  14.245  0.4031  0.5026  0.6782
19302TIP3    H279322   5.113   5.008  14.341  0.0323 -0.0760  0.6381
19303TIP3   OH279323   0.329   6.672  12.557  0.2135 -0.7379 -0.4442
19303TIP3    H179324   0.341   6.614  12.632  0.7725 -1.8170 -1.3254
19303TIP3    H279325   0.240   6.654  12.526 -0.7614  1.1196  1.0626
19304TIP3   OH279326   4.993   4.790   4.581 -0.1809 -0.0660  0.0525
19304TIP3    H179327   5.072   4.769   4.631  0.1443 -1.1630 -0.8778
19304TIP3    H279328   5.026   4.810   4.493 -0.9761 -1.0068 -0.4743
19305TIP3   OH279329   0.613   5.081  13.121  0.3436 -0.3766  0.4123
19305TIP3    H179330   0.565   5.070  13.039  1.4250 -2.6681 -0.0011
19305TIP3    H279331   0.570   5.154  13.165 -0.9132  0.2472 -1.7251
19306TIP3   OH279332   4.266   6.230   0.282 -0.2099  0.5690 -0.0671
19306TIP3    H179333   4.276   6.136   0.300  0.2440 -0.0586 -3.0257
19306TIP3    H279334   4.344   6.270   0.320 -0.1346 -0.3302  0.7674
19307TIP3   OH279335   5.133   3.123  14.092 -0.3263  0.0936  0.0623
19307TIP3    H179336   5.197   3.179  14.134  0.0309 -1.3168  1.5219
19307TIP3    H279337   5.163   3.034  14.110 -1.9434 -0.5980 -0.4150
19308TIP3   OH279338   5.068   0.464   2.819  0.6735 -0.0820  0.9887
19308TIP3    H179339   5.005   0.525   2.857 -0.0525 -0.9534  1.2059
19308TIP3    H279340   5.027   0.434   2.738  0.3812 -1.3391  1.5790
19309TIP3   OH279341   5.465   2.905  12.574  0.2954  0.2168 -0.4169
19309TIP3    H179342   5.528   2.836  12.598  1.2306  0.6841 -1.4415
19309TIP3    H279343   5.389   2.888  12.630  0.7922 -1.1914 -0.1128
19310TIP3   OH279344   3.117   2.343  13.290  0.1750  0.0094  0.3879
19310TIP3    H179345   3.085   2.311  13.374 -0.2429  0.8394  0.5565
19310TIP3    H279346   3.042   2.334  13.230  0.3454 -0.2044  0.2064
19311TIP3   OH279347   0.228   1.611  16.259 -0.2762  0.0596  0.6644
19311TIP3    H179348   0.314   1.652  16.259  0.3367 -1.1847  1.2653
19311TIP3    H279349   0.245   1.517  16.252 -1.6374 -0.1437 -0.6278
19312TIP3   OH279350   4.129   0.733   2.319  0.1242  0.3953 -0.7110
19312TIP3    H179351   4.161   0.677   2.389  0.3618 -0.2019 -1.2868
19312TIP3    H279352   4.039   0.755   2.345  0.3199  0.4477 -0.0640
19313TIP3   OH279353   0.538   0.245  12.614  0.2327  0.5792  0.1030
19313TIP3    H179354   0.608   0.218  12.674  1.7633  0.5214 -1.5988
19313TIP3    H279355   0.491   0.313  12.660 -0.7262 -1.6387  2.6331
19314TIP3   OH279356   6.555   0.004   2.093  0.2098 -0.4599 -0.2498
19314TIP3    H179357   6.486   0.067   2.117 -0.1212 -0.9380  0.0745
19314TIP3    H279358   6.544  -0.068   2.155 -0.6062 -1.6981 -1.7452
19315TIP3   OH279359   4.754   4.356  14.556  0.7387  0.9313  0.8547
19315TIP3    H179360   4.844   4.383  14.573  0.9942 -0.0700  1.1311
19315TIP3    H279361   4.729   4.306  14.634  0.9341 -1.2599 -0.4121
19316TIP3   OH279362   0.777   3.364  14.892 -0.1364  0.2553 -0.0628
19316TIP3    H179363   0.689   3.361  14.931  0.2088 -0.4839  0.7174
19316TIP3    H279364   0.803   3.455  14.898 -1.1173  0.6140 -0.9435
19317TIP3   OH279365   4.373   3.538  14.393  0.1617  0.0260  0.0407
19317TIP3    H179366   4.466   3.520  14.379  0.0469 -0.6513  0.1190
19317TIP3    H279367   4.331   3.452  14.390 -0.3935  0.2723  0.5320
19318TIP3   OH279368   0.373   5.168  16.027 -0.4064  0.6130  0.6636
19318TIP3    H179369   0.411   5.096  16.077  0.1620  0.2596 -0.2476
19318TIP3    H279370   0.443   5.233  16.021  0.1687 -0.1039 -1.1492
19319TIP3   OH279371   5.728   1.368  12.550 -0.3707  0.2328  0.1206
19319TIP3    H179372   5.706   1.435  12.615 -0.4792  2.1579 -1.7582
19319TIP3    H279373   5.656   1.305  12.555 -0.6659  0.6376  1.4527
19320TIP3   OH279374   1.339   1.759   1.035 -0.5901  0.1032  0.4928
19320TIP3    H179375   1.271   1.698   1.063  0.5957 -0.5620  2.0878
19320TIP3    H279376   1.378   1.790   1.117  0.9148  0.5914 -0.3679
19321TIP3   OH279377   1.071   4.924  15.662 -0.0720  0.0422  0.0003
19321TIP3    H179378   1.034   4.858  15.722  0.2407  1.1040  1.4198
19321TIP3    H279379   1.081   5.002  15.717  1.5867  0.6313 -1.0940
19322TIP3   OH279380   1.015   6.028   2.634 -0.0613 -0.5524 -0.0326
19322TIP3    H179381   1.054   5.945   2.663 -1.1773 -1.0892 -0.0345
19322TIP3    H279382   1.078   6.064   2.572  1.1996 -0.6020  1.1639
19323TIP3   OH279383   1.372   6.411   1.769 -0.0050 -0.1405  0.0405
19323TIP3    H179384   1.417   6.388   1.851 -0.1739 -0.9305 -0.0808
19323TIP3    H279385   1.326   6.332   1.745  0.3507 -0.0311 -1.0322
19324TIP3   OH279386   5.398   6.402   3.000  0.5282 -0.0603  0.1714
19324TIP3    H179387   5.407   6.388   3.094  0.9522 -1.8114 -0.0827
19324TIP3    H279388   5.304   6.414   2.986  0.4456  0.0318  0.7937
19325TIP3   OH279389   2.910   2.245   1.779 -0.0834  0.2832  0.1278
19325TIP3    H179390   2.992   2.200   1.761 -0.7354 -1.2249  0.7811
19325TIP3    H279391   2.914   2.267   1.871 -0.8255 -0.7478  0.4296
19326TIP3   OH279392   2.022   0.835   1.739  0.2717  0.3429  0.5343
19326TIP3    H179393   2.043   0.780   1.664  0.4883  1.9383 -0.6275
19326TIP3    H279394   1.932   0.812   1.762 -0.8579  1.7935 -2.0747
19327TIP3   OH279395   4.586   2.332   3.887  0.2442  0.5080 -0.0786
19327TIP3    H179396   4.528   2.403   3.916 -2.4003 -1.1439 -0.9468
19327TIP3    H279397   4.594   2.345   3.792  2.3559  1.3809  0.1753
19328TIP3   OH279398   5.265   5.832  12.215 -0.4078 -0.1300  0.2267
19328TIP3    H179399   5.359   5.844  12.228 -0.2649 -1.0058  0.0453
19328TIP3    H279400   5.228   5.920  12.228  0.4206  0.2106  0.3635
19329TIP3   OH279401   0.804   4.470  15.635 -0.4529 -0.0582  0.1382
19329TIP3    H179402   0.790   4.388  15.682  0.4589 -0.2016  0.1721
19329TIP3    H279403   0.791   4.447  15.543 -0.7634 -0.1073  0.1925
19330TIP3   OH279404   2.875   1.837   0.734  0.0840  0.0126  0.1009
19330TIP3    H179405   2.843   1.847   0.645  1.5368  1.1522 -0.3217
19330TIP3    H279406   2.928   1.757   0.732  2.1054  1.2983 -0.7173
19331TIP3   OH279407   5.514   0.975  15.081  0.1430  0.0494  0.3550
19331TIP3    H179408   5.547   0.908  15.141  2.4138  0.2522 -0.5703
19331TIP3    H279409   5.585   1.039  15.075 -0.8316  1.0610 -0.9950
19332TIP3   OH279410   1.852   6.647   5.203  0.2630  0.3164 -0.1780
19332TIP3    H179411   1.895   6.726   5.237  0.9313  0.2169 -0.7665
19332TIP3    H279412   1.912   6.576   5.225 -0.6680 -0.1451  0.9851
19333TIP3   OH279413   5.570   5.386   0.610 -0.6092 -0.0077  0.2849
19333TIP3    H179414   5.639   5.437   0.568  0.5372 -0.0541  2.0389
19333TIP3    H279415   5.595   5.383   0.702 -1.4989 -2.4084  0.4976
19334TIP3   OH279416   4.122   5.693  13.801 -0.2349  0.1335  0.3552
19334TIP3    H179417   4.205   5.714  13.845  0.1793  1.3894 -0.9471
19334TIP3    H279418   4.077   5.635  13.862  0.7471  1.0033  1.9867
19335TIP3   OH279419   0.443   1.165   3.629 -0.3110 -0.2199  0.8552
19335TIP3    H179420   0.480   1.100   3.570 -1.1257 -0.2018  0.3149
19335TIP3    H279421   0.519   1.203   3.673  0.3112 -0.1935 -0.2093
19336TIP3   OH279422   4.147   4.411  11.516 -0.1223  0.2030 -0.5675
19336TIP3    H179423   4.064   4.451  11.544 -0.1916 -0.0056 -0.4745
19336TIP3    H279424   4.214   4.472  11.548 -0.1836 -0.1773  0.3153
19337TIP3   OH279425   6.303   5.332  14.759  0.1217  0.7443  0.0076
19337TIP3    H179426   6.273   5.289  14.678  1.6743 -0.9114  0.2570
19337TIP3    H279427   6.264   5.281  14.829 -1.5055  2.3846  0.3901
19338TIP3   OH279428   1.500   0.198  12.459 -0.8040  0.0528  0.0300
19338TIP3    H179429   1.416   0.158  12.481 -0.6856 -1.5834 -2.1490
19338TIP3    H279430   1.488   0.232  12.370  0.4799  0.8795  0.1443
19339TIP3   OH279431   6.331   2.993  11.500  0.8360  0.0612  0.2455
19339TIP3    H179432   6.290   2.908  11.513  0.6649  0.3750  2.0963
19339TIP3    H279433   6.359   3.020  11.588  0.3044  2.1962 -0.1665
19340TIP3   OH279434   3.478   1.791  16.687  0.0268  0.2182  0.0874
19340TIP3    H179435   3.463   1.816  16.778  0.0080  1.0939 -0.1513
19340TIP3    H279436   3.534   1.714  16.692  0.5220  0.6159  0.8252
19341TIP3   OH279437   1.277   2.706  13.907 -0.3713  0.3584  0.0150
19341TIP3    H179438   1.185   2.693  13.883 -0.0757  0.2423 -1.0771
19341TIP3    H279439   1.273   2.760  13.987 -1.3552  1.3738 -0.6847
19342TIP3   OH279440   5.752   2.258   5.177  0.3406 -0.2794 -0.6216
19342TIP3    H179441   5.762   2.222   5.265  1.9978  1.0883 -0.1959
19342TIP3    H279442   5.816   2.329   5.173 -1.4450  1.3380 -2.0814
19343TIP3   OH279443   3.647   4.773   5.621  0.3901 -0.1940  0.6116
19343TIP3    H179444   3.721   4.737   5.571  0.2658 -2.2053  1.7371
19343TIP3    H279445   3.674   4.764   5.712 -0.4573  0.9059  0.9797
19344TIP3   OH279446   1.116   6.762   5.760 -0.0604 -0.0357  0.3795
19344TIP3    H179447   1.126   6.690   5.698 -1.5543 -1.2855  1.5033
19344TIP3    H279448   1.033   6.803   5.735 -0.0798  0.1884  0.8065
19345TIP3   OH279449   0.638   0.286   0.689  0.1329 -0.1898  0.0087
19345TIP3    H179450   0.659   0.321   0.775  1.2357  0.8068 -0.6390
19345TIP3    H279451   0.563   0.338   0.659 -1.3867 -1.6650  1.0172
19346TIP3   OH279452   1.043   4.726   3.898 -0.0855 -0.2044  0.3388
19346TIP3    H179453   1.077   4.746   3.811  0.3141  1.4705  0.8456
19346TIP3    H279454   1.114   4.680   3.941 -0.0695 -0.5195 -0.0156
19347TIP3   OH279455   3.215   1.208   2.581  0.5538 -0.1089  0.3258
19347TIP3    H179456   3.221   1.297   2.546 -0.6164  0.1595  0.7871
19347TIP3    H279457   3.122   1.194   2.597  0.7592 -1.2934  0.5935
19348TIP3   OH279458   3.216   2.573   0.341 -0.2354  0.0693  0.0144
19348TIP3    H179459   3.224   2.574   0.245 -1.0413 -1.0108 -0.0860
19348TIP3    H279460   3.122   2.573   0.357 -0.1096 -0.3372  0.7913
19349TIP3   OH279461   3.059   2.197  15.806 -0.1072  0.1305  0.2341
19349TIP3    H179462   3.024   2.109  15.817 -0.1856  0.1933  0.5135
19349TIP3    H279463   3.123   2.206  15.877 -1.2525  0.8622  1.2205
19350TIP3   OH279464   4.634   4.435  13.088  0.0900 -0.4581  0.0005
19350TIP3    H179465   4.700   4.491  13.130  0.6663 -0.2758 -1.1006
19350TIP3    H279466   4.555   4.490  13.085  0.8452  0.6277 -1.7223
19351TIP3   OH279467   6.025   2.067  15.437  0.4498 -0.8493 -0.0442
19351TIP3    H179468   6.079   1.999  15.396  2.5500  0.8003 -0.2149
19351TIP3    H279469   6.086   2.139  15.453 -1.7107  1.0993 -0.0714
19352TIP3   OH279470   1.091   0.798  16.949 -0.1239 -0.1551 -0.2085
19352TIP3    H179471   1.149   0.874  16.958 -0.6290  0.8084 -3.5345
19352TIP3    H279472   1.101   0.750  17.031  1.6808  2.4819  1.2729
19353TIP3   OH279473   5.458   5.420   5.081  0.2148  0.0052 -0.0636
19353TIP3    H179474   5.441   5.481   5.153  0.5060 -1.1086  0.9809
19353TIP3    H279475   5.447   5.333   5.120 -0.2156 -0.6258 -1.5270
19354TIP3   OH279476   2.026   3.797  12.731 -0.1440  0.0550  0.1322
19354TIP3    H179477   1.980   3.750  12.661 -0.2482  0.0243  0.2201
19354TIP3    H279478   1.962   3.800  12.803  0.3312 -0.8327  0.6108
19355TIP3   OH279479   4.255   4.316  12.161  0.4591  0.4032 -0.1799
19355TIP3    H179480   4.312   4.393  12.163 -0.4688  1.1279 -0.7681
19355TIP3    H279481   4.230   4.307  12.069 -1.4055  0.9045  0.2436
19356TIP3   OH279482   4.202   4.439   3.607 -0.3467  0.4874 -0.3344
19356TIP3    H179483   4.153   4.390   3.673 -2.1957  2.0810 -0.4709
19356TIP3    H279484   4.136   4.479   3.551  1.1578  0.1369 -2.4991
19357TIP3   OH279485   3.301   5.257   1.053  0.0816 -0.3695  0.1185
19357TIP3    H179486   3.287   5.350   1.071  2.1146  0.0376 -0.1931
19357TIP3    H279487   3.380   5.234   1.101  0.4994 -1.5299 -1.0455
19358TIP3   OH279488   1.925   2.957   6.376  0.0922  0.1990 -0.0381
19358TIP3    H179489   1.895   3.013   6.305  0.3283 -0.2629 -0.5138
19358TIP3    H279490   1.915   3.010   6.455 -1.1136  0.3727 -0.2896
19359TIP3   OH279491   2.496   6.110  15.397  0.4237 -0.1430  0.1191
19359TIP3    H179492   2.438   6.035  15.385  0.1729 -0.0159  0.5258
19359TIP3    H279493   2.523   6.134  15.308  0.0519 -0.3540 -0.0530
19360TIP3   OH279494   4.177   2.905   0.843  0.7067 -0.0471  0.1242
19360TIP3    H179495   4.198   2.954   0.923 -0.7399 -0.5658  0.8602
19360TIP3    H279496   4.245   2.838   0.838  1.6780  0.9168  0.0744
19361TIP3   OH279497   1.265   5.671   1.120 -0.1838 -0.5447  0.9623
19361TIP3    H179498   1.222   5.596   1.161 -0.3217 -1.3748 -0.6244
19361TIP3    H279499   1.340   5.634   1.074 -0.9386  0.0445 -0.8746
19362TIP3   OH279500   1.981   5.537  13.131  0.2776 -0.5457  0.1623
19362TIP3    H179501   1.897   5.494  13.147  0.0946 -0.6661 -1.0476
19362TIP3    H279502   1.967   5.627  13.162 -1.2587  0.2492 -2.4437
19363TIP3   OH279503   6.684   0.167  15.761  0.3883 -0.4727 -0.2045
19363TIP3    H179504   6.607   0.118  15.733 -0.7612  0.3127  1.3916
19363TIP3    H279505   6.758   0.115  15.731 -0.7692 -2.6380  0.4583
19364TIP3   OH279506   2.301   1.326   1.407 -0.3278 -0.3684 -0.0033
19364TIP3    H179507   2.259   1.404   1.445 -1.1458 -0.3762 -0.8584
19364TIP3    H279508   2.326   1.354   1.319  1.5966 -0.3329  0.5161
19365TIP3   OH279509   6.351   5.405  16.459  0.4135  0.5208  0.1814
19365TIP3    H179510   6.410   5.427  16.531  2.6752 -0.0480 -1.3976
19365TIP3    H279511   6.371   5.314  16.438 -1.3756  0.1628 -0.1488
19366TIP3   OH279512   1.770   4.711   4.360 -0.1860  0.3579 -0.0510
19366TIP3    H179513   1.793   4.661   4.281  0.7566 -0.4666  0.7159
19366TIP3    H279514   1.855   4.739   4.395 -0.3493 -1.5317  2.0956
19367TIP3   OH279515   5.321   2.318   5.842 -0.3777  0.5260 -0.5444
19367TIP3    H179516   5.318   2.340   5.749  0.8923  0.0735 -0.7177
19367TIP3    H279517   5.403   2.269   5.852  0.9170  2.8909  1.3165
19368TIP3   OH279518   2.671   6.262   5.461 -0.3445  0.2082  0.9638
19368TIP3    H179519   2.588   6.225   5.429 -1.4025  2.3831  0.9487
19368TIP3    H279520   2.651   6.294   5.549  0.4668  0.7789  0.9515
19369TIP3   OH279521   3.195   0.297  14.544  0.6231 -0.1830  0.3158
19369TIP3    H179522   3.281   0.321  14.580  0.5374  1.5834 -0.5341
19369TIP3    H279523   3.174   0.214  14.586  2.8135 -0.7362  0.4343
19370TIP3   OH279524   0.907   1.556  12.536 -0.9751 -0.6582 -0.1869
19370TIP3    H179525   0.961   1.503  12.594 -1.0024  0.6324  1.0618
19370TIP3    H279526   0.826   1.505  12.525 -0.2563 -1.7454 -0.5861
19371TIP3   OH279527   0.859   0.473  14.582  0.0205  0.5479  0.1428
19371TIP3    H179528   0.818   0.509  14.503  2.0142  1.8283 -0.4065
19371TIP3    H279529   0.829   0.529  14.653 -1.7649 -0.5923  0.3318
19372TIP3   OH279530   1.811   2.145  11.843  0.2994 -0.5434 -0.2137
19372TIP3    H179531   1.856   2.085  11.902  0.2873 -0.9403 -0.6030
19372TIP3    H279532   1.789   2.092  11.767  1.1066  0.1700 -0.9714
19373TIP3   OH279533   1.681   0.176   0.871 -0.2807 -0.3853  0.2597
19373TIP3    H179534   1.612   0.238   0.847  0.2772 -0.4048 -1.5376
19373TIP3    H279535   1.751   0.230   0.907 -0.4454 -0.1479  0.2219
19374TIP3   OH279536   4.973   2.405  16.998  0.1369 -0.2476  0.3257
19374TIP3    H179537   4.946   2.358  17.077 -1.6709 -2.1003 -1.2635
19374TIP3    H279538   4.930   2.490  17.005  0.7284 -0.0457  1.7251
19375TIP3   OH279539   3.993   4.575   3.412  0.7782  0.2849  0.3320
19375TIP3    H179540   3.944   4.515   3.468  0.9968  0.5043  0.7628
19375TIP3    H279541   3.954   4.565   3.325 -0.3568  0.8129  0.7612
19376TIP3   OH279542   4.056   3.159  16.109  0.3288 -0.1418 -0.1472
19376TIP3    H179543   4.057   3.129  16.200  3.4499  0.6866  0.2074
19376TIP3    H279544   4.068   3.254  16.115 -2.4103  0.3762 -1.4234
19377TIP3   OH279545   5.926   4.999  15.776 -0.4658 -0.3836 -0.1635
19377TIP3    H179546   5.894   4.945  15.849 -0.5437 -1.6854 -1.1295
19377TIP3    H279547   5.973   4.938  15.719 -3.1627 -0.1459 -2.8978
19378TIP3   OH279548   2.794   3.548   4.492 -0.4935 -0.0956 -0.0747
19378TIP3    H179549   2.733   3.481   4.524  0.0052 -0.5935 -0.1393
19378TIP3    H279550   2.815   3.520   4.402  0.2753 -0.2657  0.1480
19379TIP3   OH279551   0.066   5.219   1.427 -0.3541 -0.1702 -0.3255
19379TIP3    H179552   0.103   5.166   1.497 -2.0488 -1.9046 -0.6725
19379TIP3    H279553   0.105   5.184   1.347  2.6178  2.6555 -0.3470
19380TIP3   OH279554   4.645   6.170  16.832  0.0119 -0.3882  0.3871
19380TIP3    H179555   4.723   6.220  16.808  0.4333 -1.4530 -0.6003
19380TIP3    H279556   4.606   6.218  16.904  1.0846  0.6631  0.2918
19381TIP3   OH279557   4.772   4.527   6.323  0.1334 -0.2610  0.1695
19381TIP3    H179558   4.854   4.484   6.349 -0.1725 -0.3218  1.0570
19381TIP3    H279559   4.728   4.547   6.405 -0.0348  1.1920 -0.2465
19382TIP3   OH279560   0.222   1.290  13.022  0.1517 -0.4132  0.4179
19382TIP3    H179561   0.302   1.280  12.969  0.6200 -1.2713  1.2496
19382TIP3    H279562   0.205   1.202  13.055  0.8297  0.3526  3.0347
19383TIP3   OH279563   1.228   0.071  12.491 -0.1664  0.0828 -0.2818
19383TIP3    H179564   1.185  -0.011  12.511 -0.2286 -0.5346 -2.6084
19383TIP3    H279565   1.246   0.066  12.397  2.3659  1.5283  0.0267
19384TIP3   OH279566   1.168   2.131   3.410  0.2415 -0.2776  0.2709
19384TIP3    H179567   1.249   2.168   3.374  1.7239 -1.1613  2.4783
19384TIP3    H279568   1.187   2.038   3.422 -0.5165 -0.2369  2.1948
19385TIP3   OH279569   2.909   2.144  13.708  0.2451  0.1773  0.1635
19385TIP3    H179570   2.971   2.189  13.651 -0.5695  0.4221 -0.5449
19385TIP3    H279571   2.845   2.212  13.733 -0.8722 -0.5074 -0.7412
19386TIP3   OH279572   3.250   1.006  12.579 -0.1484 -0.0183 -0.4422
19386TIP3    H179573   3.324   1.065  12.591  0.7167 -1.0530 -0.5110
19386TIP3    H279574   3.277   0.926  12.624 -1.4326 -0.2483 -0.0602
19387TIP3   OH279575   4.045   0.691   5.494  0.2355  0.3465 -0.4204
19387TIP3    H179576   4.089   0.618   5.451  1.9838  1.6564 -0.9392
19387TIP3    H279577   4.027   0.754   5.424 -0.7724  0.6606  0.0992
19388TIP3   OH279578   6.710   1.118  10.629 -0.2821  0.0125 -0.0188
19388TIP3    H179579   6.761   1.037  10.633 -2.3183 -1.3330  0.6465
19388TIP3    H279580   6.757   1.173  10.567  2.0248 -1.0371  0.6822
19389TIP3   OH279581   4.069   2.880  13.707 -0.1874  0.0029 -0.2235
19389TIP3    H179582   4.134   2.895  13.775  0.6347  2.3772 -1.4129
19389TIP3    H279583   3.985   2.894  13.750  0.2790  0.6362  0.4946
19390TIP3   OH279584   3.336   1.864  14.830 -0.4143 -0.1353  0.0113
19390TIP3    H179585   3.370   1.777  14.810  2.7030  0.5673  1.6994
19390TIP3    H279586   3.405   1.924  14.801 -0.5969  1.4850  2.6556
19391TIP3   OH279587   2.274   4.782  16.663  0.4954 -0.1785 -0.1467
19391TIP3    H179588   2.342   4.792  16.596  2.2846 -0.0462  1.5988
19391TIP3    H279589   2.230   4.700  16.640 -1.0507  1.3657 -3.2051
19392TIP3   OH279590   3.790   1.315   1.416  0.3449 -0.1770 -0.5479
19392TIP3    H179591   3.823   1.265   1.490 -0.1910 -1.7270 -1.3125
19392TIP3    H279592   3.807   1.260   1.340 -2.3336 -0.2768 -1.1661
19393TIP3   OH279593   0.513   5.357   0.706 -0.0272 -0.9067 -0.5203
19393TIP3    H179594   0.436   5.409   0.731  0.1848 -0.1230 -1.4436
19393TIP3    H279595   0.508   5.280   0.762 -0.0988  0.2980  1.2229
19394TIP3   OH279596   5.708   2.412  11.527  0.0101 -0.0572 -0.5551
19394TIP3    H179597   5.735   2.500  11.500 -1.9000  1.6110  2.3948
19394TIP3    H279598   5.782   2.378  11.577 -0.4105  1.3187  1.0787
19395TIP3   OH279599   0.011   1.471   3.397 -0.4684  0.0662 -0.2898
19395TIP3    H179600  -0.075   1.430   3.397 -0.1858 -0.5548 -1.0725
19395TIP3    H279601   0.073   1.399   3.381  0.1106  0.6358 -0.7048
19396TIP3   OH279602   1.032   2.426  15.894 -0.7398  0.8461 -0.3944
19396TIP3    H179603   1.047   2.521  15.899 -1.1509  0.9135 -0.4061
19396TIP3    H279604   1.003   2.412  15.804 -1.0523  0.7623 -0.2805
19397TIP3   OH279605   0.753   2.544   0.926 -0.3734 -0.0963  0.1640
19397TIP3    H179606   0.737   2.562   0.833 -1.0352  0.1006  0.3094
19397TIP3    H279607   0.695   2.470   0.946 -1.9321  1.2617  0.9429
19398TIP3   OH279608   1.621   3.233   1.863 -0.3652  0.7873 -0.0949
19398TIP3    H179609   1.696   3.241   1.804  0.0887 -1.1052  0.1470
19398TIP3    H279610   1.658   3.247   1.950 -0.5105  0.9976 -0.0685
19399TIP3   OH279611   2.455   4.006   2.006 -0.0083 -0.2178  0.2389
19399TIP3    H179612   2.404   3.959   1.940 -0.7545 -0.1719  0.7747
19399TIP3    H279613   2.544   4.008   1.971 -0.4309 -0.0504 -0.8380
19400TIP3   OH279614   3.528   4.794  12.495 -0.2130 -1.4078 -0.3289
19400TIP3    H179615   3.581   4.868  12.523 -0.3488 -2.0282  1.7097
19400TIP3    H279616   3.459   4.832  12.442 -0.5669  0.0107  1.0856
19401TIP3   OH279617   3.125   0.550   4.979 -0.2006  0.1394  0.0032
19401TIP3    H179618   3.081   0.593   5.053 -2.1710  0.2065 -1.1360
19401TIP3    H279619   3.136   0.459   5.008 -0.0864  0.3778  0.7316
19402TIP3   OH279620   0.442   6.570  14.166  0.2219 -0.2550  0.0035
19402TIP3    H179621   0.364   6.612  14.201 -0.4468 -0.4261 -1.2357
19402TIP3    H279622   0.492   6.642  14.128 -0.0224 -0.3356 -0.4693
19403TIP3   OH279623   6.128   1.295   3.017  0.3064  0.1467  0.0429
19403TIP3    H179624   6.041   1.285   2.979  0.3584  2.0325 -0.6707
19403TIP3    H279625   6.134   1.388   3.040  2.0242 -0.0056  0.3369
19404TIP3   OH279626   4.018   2.066   0.740  0.6250  0.1096  0.3823
19404TIP3    H179627   3.949   2.125   0.711  2.3406  1.0609 -2.2420
19404TIP3    H279628   4.098   2.118   0.733  2.1351 -2.2295 -1.3365
19405TIP3   OH279629   4.535   0.089  15.581 -0.2775 -0.1550 -0.0412
19405TIP3    H179630   4.617   0.049  15.610  0.7266  1.0283 -1.1190
19405TIP3    H279631   4.467   0.028  15.610  1.0101 -1.4201  0.4396
19406TIP3   OH279632   3.314   1.925   0.520  0.0185 -0.8551  0.2652
19406TIP3    H179633   3.238   1.868   0.508 -0.4611 -0.2667  0.4519
19406TIP3    H279634   3.277   2.013   0.522  0.8831 -0.4210 -1.3803
19407TIP3   OH279635   1.845   2.870  12.083  0.0559 -0.1523 -0.4876
19407TIP3    H179636   1.929   2.914  12.096 -0.8363  1.2003  1.1692
19407TIP3    H279637   1.862   2.778  12.103  1.3798 -0.1037 -1.3130
19408TIP3   OH279638   2.707   3.021   6.097 -0.0657  0.6211 -0.3011
19408TIP3    H179639   2.751   3.101   6.068 -0.0115  0.3648 -0.9442
19408TIP3    H279640   2.748   2.951   6.047  1.0511 -0.0508  1.4651
19409TIP3   OH279641   5.565   4.716   1.561 -0.2531  0.4667  0.1607
19409TIP3    H179642   5.530   4.627   1.560 -0.9783  0.7290  1.0582
19409TIP3    H279643   5.646   4.710   1.610 -0.1381  0.2445 -0.0577
19410TIP3   OH279644   1.678   1.076   3.614  0.1213 -0.6913  0.7887
19410TIP3    H179645   1.617   1.142   3.581 -1.4835 -2.3115  0.3850
19410TIP3    H279646   1.764   1.104   3.581 -0.6357  0.7644  0.0002
19411TIP3   OH279647   5.896   3.879   1.658 -0.7296  0.9122 -0.2378
19411TIP3    H179648   5.952   3.924   1.596 -0.8874  0.6182 -0.6041
19411TIP3    H279649   5.956   3.829   1.714 -0.4311  2.8376  1.2451
19412TIP3   OH279650   5.391   4.999   2.117 -0.2761 -0.4433 -0.2219
19412TIP3    H179651   5.461   4.953   2.070  0.2026 -0.4813  0.4983
19412TIP3    H279652   5.317   5.000   2.057  1.0822  1.7941 -2.0490
19413TIP3   OH279653   3.996   6.071  13.276  0.3597 -0.3468  0.3625
19413TIP3    H179654   4.043   6.145  13.237  0.2181 -1.0049 -1.1131
19413TIP3    H279655   3.907   6.104  13.289  0.1343 -0.4132 -0.8612
19414TIP3   OH279656   4.371   4.653   0.123  0.1398 -0.0785 -0.5493
19414TIP3    H179657   4.394   4.647   0.030  1.8365 -1.2253 -0.0923
19414TIP3    H279658   4.360   4.562   0.151 -0.7310  0.2703  0.3094
19415TIP3   OH279659   4.479   2.441   2.799 -0.5154  0.8022  0.2655
19415TIP3    H179660   4.403   2.383   2.801 -0.7230  1.0314 -0.5800
19415TIP3    H279661   4.444   2.524   2.765 -0.1270  1.2738  0.9952
19416TIP3   OH279662   6.171   5.756   5.729  0.5375 -0.3506 -0.2570
19416TIP3    H179663   6.203   5.737   5.817  1.7674 -0.9506 -0.8101
19416TIP3    H279664   6.248   5.788   5.682  0.1080 -0.9086 -1.3712
19417TIP3   OH279665   2.491   4.250  10.741 -0.0725  0.0454  0.7148
19417TIP3    H179666   2.412   4.277  10.789  0.4120  1.7573  0.6220
19417TIP3    H279667   2.523   4.331  10.700  2.4697 -0.2948  1.8384
19418TIP3   OH279668   4.718   3.175  16.243 -0.4884  0.1438 -0.4743
19418TIP3    H179669   4.634   3.208  16.209 -1.3268  0.9443  2.1422
19418TIP3    H279670   4.697   3.089  16.279 -0.2874  0.4602  0.4378
19419TIP3   OH279671   4.379   4.438   5.048  0.1028 -0.1597 -0.3237
19419TIP3    H179672   4.339   4.469   5.129  1.7236  2.3965 -0.3900
19419TIP3    H279673   4.322   4.473   4.979  1.3697  2.0267 -0.3611
19420TIP3   OH279674   1.675   4.976   3.381 -0.0788 -0.3609 -0.0369
19420TIP3    H179675   1.771   4.979   3.380 -0.0767 -0.2996  0.5334
19420TIP3    H279676   1.648   5.066   3.362 -0.0338 -0.6302 -1.5022
19421TIP3   OH279677   6.021   0.404   3.289 -0.2645 -0.5787  0.2550
19421TIP3    H179678   5.991   0.415   3.379 -0.6050 -2.5088  0.4269
19421TIP3    H279679   6.027   0.493   3.254  1.1075  0.3040  2.5514
19422TIP3   OH279680   4.679   0.817  11.801  0.6477  0.8156  0.0427
19422TIP3    H179681   4.656   0.733  11.762  0.2164  0.2953  1.3385
19422TIP3    H279682   4.622   0.880  11.758  1.5019  0.5916 -1.4874
19423TIP3   OH279683   6.722   4.742  14.267  0.2002  0.1858 -0.1156
19423TIP3    H179684   6.715   4.655  14.227  1.3746  0.3591 -0.7292
19423TIP3    H279685   6.734   4.725  14.360 -2.3328 -0.2268  0.2188
19424TIP3   OH279686   1.745   5.409   3.953 -0.2996  0.4442 -0.5011
19424TIP3    H179687   1.703   5.373   3.874  2.4220 -0.1286 -1.8218
19424TIP3    H279688   1.729   5.343   4.020 -2.1073  0.6234 -0.6990
19425TIP3   OH279689   0.908   4.022  14.270 -0.3243 -0.2488  0.2776
19425TIP3    H179690   0.872   3.933  14.260  1.6615 -0.9487 -1.2874
19425TIP3    H279691   1.002   4.008  14.282  0.0544  1.6424 -0.2332
19426TIP3   OH279692   4.532   5.145  17.007 -0.3733  0.0641 -0.0202
19426TIP3    H179693   4.513   5.223  16.955 -0.3257  0.9871  1.3077
19426TIP3    H279694   4.582   5.089  16.948  0.7120  1.5890 -0.5999
19427TIP3   OH279695   4.858   6.619  16.679 -0.2961  0.6876  0.2671
19427TIP3    H179696   4.940   6.651  16.716 -0.1700 -0.2609  0.8497
19427TIP3    H279697   4.791   6.654  16.738 -0.2693  1.0278  0.0967
19428TIP3   OH279698   1.769   4.420  12.161  0.2306  0.4478 -0.5939
19428TIP3    H179699   1.860   4.393  12.154  0.0477 -0.3971  0.0807
19428TIP3    H279700   1.762   4.497  12.105  1.2413  0.2380 -1.0254
19429TIP3   OH279701   0.343   1.885   6.512  0.2989 -0.4339  0.2513
19429TIP3    H179702   0.269   1.946   6.511 -0.3781 -1.2000  1.2021
19429TIP3    H279703   0.337   1.841   6.597  1.3477 -1.1163 -0.0059
19430TIP3   OH279704   0.362   2.052   5.009 -0.2844 -0.7332  0.0087
19430TIP3    H179705   0.384   2.138   5.044 -1.7833  0.4305 -1.7175
19430TIP3    H279706   0.292   2.020   5.066 -0.6766 -0.1861 -0.1592
19431TIP3   OH279707   2.529   3.898  16.286 -0.0673  0.1359 -0.2726
19431TIP3    H179708   2.451   3.953  16.292  0.3422  0.6701  0.2770
19431TIP3    H279709   2.498   3.817  16.245 -0.7385  0.6582 -0.8289
19432TIP3   OH279710   2.889   5.719   6.360 -0.5202  0.0526  0.1413
19432TIP3    H179711   2.868   5.628   6.339  0.1672  0.0427 -0.5302
19432TIP3    H279712   2.961   5.742   6.301  1.7734 -0.0789  2.6759
19433TIP3   OH279713   4.078   2.459  12.850 -0.7066  0.0468 -0.5891
19433TIP3    H179714   4.012   2.514  12.892 -0.9538 -0.8573  0.2334
19433TIP3    H279715   4.129   2.423  12.923 -0.4584 -0.6981 -1.1186
19434TIP3   OH279716   0.239   4.177   3.551 -0.2042 -0.3257  0.4826
19434TIP3    H179717   0.217   4.096   3.598 -2.2623 -0.1507 -0.0878
19434TIP3    H279718   0.237   4.152   3.458 -1.0755  0.3833  0.2887
19435TIP3   OH279719   2.152   2.602  14.458 -0.7009  0.3085  0.8455
19435TIP3    H179720   2.197   2.661  14.518 -0.0237  1.5823 -0.8500
19435TIP3    H279721   2.221   2.568  14.400 -1.6637  1.3618 -1.0241
19436TIP3   OH279722   1.032   0.178  13.159  0.2408 -0.0246 -0.5695
19436TIP3    H179723   1.056   0.145  13.246  0.7214  1.2437 -0.1997
19436TIP3    H279724   1.114   0.180  13.110  0.5336  1.9307 -0.1095
19437TIP3   OH279725   3.993   5.304   5.807 -0.5197 -0.3829 -0.0400
19437TIP3    H179726   3.898   5.307   5.815 -0.5054  0.5869 -0.1200
19437TIP3    H279727   4.010   5.307   5.713 -0.3872  1.9120 -0.0151
19438TIP3   OH279728   3.675   6.218   1.945 -0.3467 -0.7238  0.3453
19438TIP3    H179729   3.706   6.306   1.921  2.1933 -1.8319 -0.8599
19438TIP3    H279730   3.583   6.217   1.918 -1.2035  2.2940  2.6307
19439TIP3   OH279731   3.074   4.662  14.224  0.5053  0.3249  0.3957
19439TIP3    H179732   2.981   4.672  14.243  0.3123 -1.8409  0.7766
19439TIP3    H279733   3.101   4.583  14.271  2.2346  0.1782 -0.7380
19440TIP3   OH279734   0.782   5.350  13.570 -0.5597 -0.6161  0.8069
19440TIP3    H179735   0.853   5.302  13.527  0.0864  1.9108 -1.1701
19440TIP3    H279736   0.824   5.395  13.643  0.0044  1.0192 -0.4673
19441TIP3   OH279737   0.145   0.027  14.850  0.2078  0.2932 -0.2528
19441TIP3    H179738   0.173  -0.049  14.902  1.8056 -0.3770 -1.9667
19441TIP3    H279739   0.102   0.085  14.913  1.1383 -0.9256  1.5940
19442TIP3   OH279740   6.539   1.968   2.927 -0.1700 -0.3240  0.4097
19442TIP3    H179741   6.548   2.008   3.013  0.4136  2.4646 -0.8418
19442TIP3    H279742   6.599   1.894   2.928 -1.7245 -1.6777  3.0383
19443TIP3   OH279743   2.103   0.556  12.095  0.5200  0.5538 -0.6717
19443TIP3    H179744   2.111   0.482  12.156  2.4292  1.9510  0.9231
19443TIP3    H279745   2.061   0.625  12.147 -0.9773  0.7327 -2.0428
19444TIP3   OH279746   5.515   4.356  11.655 -0.4673  0.2232  0.1427
19444TIP3    H179747   5.454   4.324  11.722 -1.9180 -1.0564 -1.6863
19444TIP3    H279748   5.586   4.292  11.655 -1.4807 -0.9518 -0.8877
19445TIP3   OH279749   6.648   2.223  13.444 -0.8162 -0.3410 -0.9360
19445TIP3    H179750   6.557   2.202  13.421 -0.3727 -0.7033 -2.4849
19445TIP3    H279751   6.700   2.166  13.388  0.3761 -0.3717  0.1760
19446TIP3   OH279752   6.663   2.916  14.222  0.0806  0.3767 -0.2880
19446TIP3    H179753   6.650   2.823  14.241 -0.4564  0.5830  0.4302
19446TIP3    H279754   6.657   2.922  14.127  0.5211 -0.3799 -0.3700
19447TIP3   OH279755   4.480   4.433   3.695  0.0857 -0.0454 -0.3314
19447TIP3    H179756   4.546   4.455   3.630 -0.4973  0.9103 -0.6373
19447TIP3    H279757   4.397   4.448   3.650 -0.3244  0.4159  0.5580
19448TIP3   OH279758   1.183   5.924  12.106 -0.0388 -0.3123  0.4193
19448TIP3    H179759   1.248   5.883  12.049  0.2605  0.2773  0.3316
19448TIP3    H279760   1.222   5.920  12.194 -0.9751 -2.2285  0.7957
19449TIP3   OH279761   2.243   4.806   4.206  0.3617 -0.1381 -0.0955
19449TIP3    H179762   2.294   4.793   4.286  0.1163 -3.2526 -0.3492
19449TIP3    H279763   2.275   4.739   4.146 -1.7794 -0.0581 -1.4220
19450TIP3   OH279764   5.768   6.143  12.653 -0.0270  0.0424  0.2465
19450TIP3    H179765   5.810   6.145  12.739  2.2608  0.4953 -0.8214
19450TIP3    H279766   5.758   6.049  12.634 -0.2185 -0.0620  0.8394
19451TIP3   OH279767   1.156   1.331  14.493 -0.1379 -0.1667 -0.0763
19451TIP3    H179768   1.142   1.387  14.569 -0.5320  1.3426 -1.2279
19451TIP3    H279769   1.216   1.380  14.437 -0.6768 -0.7816 -1.2267
19452TIP3   OH279770   4.912   6.108   2.330 -0.0310 -0.1676 -0.0412
19452TIP3    H179771   4.849   6.108   2.258 -0.6456  2.8795  0.3594
19452TIP3    H279772   4.995   6.131   2.288  0.1415 -0.8736 -0.0986
19453TIP3   OH279773   5.151   1.193  16.430  0.1363  0.5455 -0.6174
19453TIP3    H179774   5.089   1.143  16.483  1.4063  0.1215  0.5398
19453TIP3    H279775   5.097   1.242  16.368 -1.2474 -0.8608 -0.5643
19454TIP3   OH279776   2.574   4.042   2.695  0.8162  0.0391 -0.3025
19454TIP3    H179777   2.518   4.104   2.742 -0.4969 -1.9636  0.8972
19454TIP3    H279778   2.520   4.010   2.623  1.1395 -0.4626 -0.3270
19455TIP3   OH279779   4.509   1.012  11.700 -0.1157  0.5722  0.0061
19455TIP3    H179780   4.523   1.071  11.774 -0.2087 -0.0232  0.5085
19455TIP3    H279781   4.427   1.042  11.661  1.7673  3.3409 -2.2540
19456TIP3   OH279782   3.990   5.566   4.380 -0.1007  0.3992  0.1916
19456TIP3    H179783   3.929   5.608   4.320 -0.3720 -0.1303  0.0855
19456TIP3    H279784   3.967   5.600   4.466  2.0449  3.2827 -0.2215
19457TIP3   OH279785   6.374   0.971  15.309 -0.5030 -0.5856  0.0494
19457TIP3    H179786   6.457   1.006  15.342 -0.5142  0.8488 -1.3272
19457TIP3    H279787   6.379   0.982  15.214 -2.6518  0.4402 -0.0074
19458TIP3   OH279788   1.497   3.817   5.299 -0.5169  0.2947 -0.2261
19458TIP3    H179789   1.578   3.769   5.313  0.1365  1.3417 -0.3276
19458TIP3    H279790   1.434   3.750   5.272 -0.2890 -0.8786  1.9485
19459TIP3   OH279791   0.343   1.165   4.706  0.6680  0.1325 -0.7156
19459TIP3    H179792   0.289   1.221   4.762 -0.4474 -1.4126 -0.1595
19459TIP3    H279793   0.423   1.150   4.756  0.5957  0.5090 -0.4836
19460TIP3   OH279794   3.261   3.925  12.893 -0.0170 -0.2608 -0.3084
19460TIP3    H179795   3.337   3.890  12.846 -0.0582  0.4602 -0.9541
19460TIP3    H279796   3.221   3.850  12.935  0.0388 -0.9487 -1.4374
19461TIP3   OH279797   3.300   1.291  11.589 -0.0245  0.3935  0.2079
19461TIP3    H179798   3.283   1.379  11.553  0.2204  0.1617 -0.4927
19461TIP3    H279799   3.393   1.276  11.572 -0.5074 -0.8532 -1.6439
19462TIP3   OH279800   3.736   0.829  11.224 -0.2108  0.0851 -0.6096
19462TIP3    H179801   3.769   0.865  11.143 -2.9611  0.7228 -1.5599
19462TIP3    H279802   3.768   0.738  11.226  1.3233  0.5851 -1.4772
19463TIP3   OH279803   2.902   0.648   5.828 -0.4501  0.4777 -0.6538
19463TIP3    H179804   2.979   0.689   5.789 -0.5225 -0.1906 -1.5382
19463TIP3    H279805   2.935   0.605   5.907  0.6819 -1.9663 -2.3094
19464TIP3   OH279806   6.628   2.070   4.888 -0.3766 -0.0645  0.7263
19464TIP3    H179807   6.536   2.054   4.864  0.4873 -1.6903 -1.9703
19464TIP3    H279808   6.642   2.163   4.868 -1.4450  0.2416  1.3121
19465TIP3   OH279809   0.804   2.030  13.290 -0.1198  0.2977  0.3293
19465TIP3    H179810   0.812   2.123  13.271 -1.7934  0.8650  2.1274
19465TIP3    H279811   0.838   2.020  13.378 -3.0675 -0.1075  1.5388
19466TIP3   OH279812   6.726   5.346   3.366  0.0992 -0.8005 -0.0444
19466TIP3    H179813   6.766   5.306   3.289  1.1959  0.7052 -0.2982
19466TIP3    H279814   6.696   5.272   3.419  0.7927 -1.8951 -1.1373
19467TIP3   OH279815   3.534   1.897   0.329  0.2465  0.0115 -0.6625
19467TIP3    H179816   3.461   1.881   0.389  0.9010  0.9613  0.4422
19467TIP3    H279817   3.610   1.908   0.387  1.3451 -1.2693 -1.7964
19468TIP3   OH279818   0.708   3.303  12.801 -0.2942 -0.0283 -0.2290
19468TIP3    H179819   0.775   3.370  12.816  0.8913 -0.9160 -1.2892
19468TIP3    H279820   0.625   3.350  12.803  0.5276  1.5373 -1.2873
19469TIP3   OH279821   5.390   2.451   3.032  0.0533 -0.3077 -1.1055
19469TIP3    H179822   5.356   2.389   2.967  0.0417 -1.1799 -0.2810
19469TIP3    H279823   5.338   2.530   3.019 -1.9958 -1.4427 -0.1937
19470TIP3   OH279824   2.549   4.047  16.591 -0.4330  0.0483 -0.4828
19470TIP3    H179825   2.576   4.031  16.500  0.8275 -0.7844  0.0089
19470TIP3    H279826   2.455   4.064  16.586 -0.0439  2.0439 -2.1768
19471TIP3   OH279827   1.407   1.233  13.034  0.3763 -0.2749  0.1344
19471TIP3    H179828   1.413   1.157  13.091 -0.0972 -0.2658  0.1994
19471TIP3    H279829   1.363   1.200  12.955  0.5032 -0.1524  0.0118
19472TIP3   OH279830   3.604   1.150  14.480 -0.4704  0.1613  0.7069
19472TIP3    H179831   3.558   1.169  14.398  0.1608 -0.9499  0.0638
19472TIP3    H279832   3.581   1.222  14.538 -1.3855  0.6789 -0.2652
19473TIP3   OH279833   5.664   3.172  16.770 -0.5439  0.0299  0.6448
19473TIP3    H179834   5.677   3.110  16.698  1.2159  1.6504 -0.5552
19473TIP3    H279835   5.593   3.229  16.739 -0.9744 -0.3030  0.9927
19474TIP3   OH279836   4.374   0.801  15.122  0.2059 -0.1926 -0.1835
19474TIP3    H179837   4.374   0.747  15.043 -0.4987  3.2465 -2.7725
19474TIP3    H279838   4.466   0.827  15.133  0.7387 -2.5791  1.7045
19475TIP3   OH279839   1.901   2.038   1.125  0.1210  0.6389 -0.6735
19475TIP3    H179840   1.899   1.984   1.046 -0.2868  0.2900 -0.4268
19475TIP3    H279841   1.814   2.076   1.131  0.3037  1.0601 -0.6594
19476TIP3   OH279842   0.611   3.645   2.448 -0.4788 -0.0314 -0.1496
19476TIP3    H179843   0.571   3.593   2.378 -0.3134  1.6906 -1.6124
19476TIP3    H279844   0.685   3.688   2.406  0.5913 -0.1639  1.5328
19477TIP3   OH279845   2.204   4.407   3.323 -0.6380 -0.3309 -0.1847
19477TIP3    H179846   2.239   4.382   3.238 -2.1317  0.8075 -1.1823
19477TIP3    H279847   2.188   4.501   3.316 -1.8211 -0.4141  0.9759
19478TIP3   OH279848   6.267   2.897  16.846  0.5772 -0.6983 -0.3905
19478TIP3    H179849   6.282   2.881  16.939  3.3252 -2.2034 -1.0070
19478TIP3    H279850   6.241   2.812  16.810 -0.6545 -0.0963 -1.0220
19479TIP3   OH279851   2.730   0.271   2.393 -0.5328 -0.2724 -0.8153
19479TIP3    H179852   2.820   0.266   2.427 -0.5626  0.8902 -0.5330
19479TIP3    H279853   2.690   0.189   2.422 -0.3296  0.3295  1.3919
19480TIP3   OH279854   6.312   6.128  15.027  0.1116  0.4766  0.0462
19480TIP3    H179855   6.258   6.058  14.992 -0.8981  1.3454 -0.1941
19480TIP3    H279856   6.287   6.205  14.976  1.6401  0.9026 -0.1198
19481TIP3   OH279857   0.571   1.796  15.862 -0.3197  0.3543 -0.3758
19481TIP3    H179858   0.652   1.785  15.812 -0.3745  2.7094 -1.0815
19481TIP3    H279859   0.546   1.707  15.887  0.0013 -0.9144 -4.0313
19482TIP3   OH279860   3.830   2.142  16.568  0.3363 -0.1675 -0.0330
19482TIP3    H179861   3.819   2.141  16.663  0.7991  0.1515  0.0284
19482TIP3    H279862   3.791   2.060  16.538  2.2830 -1.4342  0.6989
19483TIP3   OH279863   4.986   5.918  16.492  0.1583 -0.1994 -0.4572
19483TIP3    H179864   4.918   5.940  16.428 -0.7933 -0.7279  0.3414
19483TIP3    H279865   4.941   5.923  16.577  1.3449  0.3111  0.1614
19484TIP3   OH279866   0.947   1.456   6.172  0.2261 -0.0567 -0.1962
19484TIP3    H179867   0.899   1.413   6.101 -0.3563  0.3388 -0.0437
19484TIP3    H279868   0.925   1.548   6.164  1.8488  0.3208 -0.8170
19485TIP3   OH279869   4.781   5.010   1.674  0.1202 -0.2383 -0.3561
19485TIP3    H179870   4.837   5.023   1.597 -1.5463 -2.1497 -2.0175
19485TIP3    H279871   4.812   4.928   1.712  0.8381  0.6189  1.0149
19486TIP3   OH279872   3.097   5.809   2.121  0.3575  0.7596 -0.4822
19486TIP3    H179873   3.113   5.855   2.203  0.0196 -0.2184  0.1517
19486TIP3    H279874   3.184   5.780   2.092  0.5400  1.5598 -0.7555
19487TIP3   OH279875   6.685   2.942  12.269  0.1870 -0.7306  0.5518
19487TIP3    H179876   6.738   3.017  12.241 -0.1973 -0.8038 -0.4012
19487TIP3    H279877   6.749   2.872  12.282  0.6113 -0.1214  1.9528
19488TIP3   OH279878   1.537   6.719  16.105  0.1191 -0.3450 -0.6090
19488TIP3    H179879   1.481   6.655  16.062  1.7066 -0.6554 -2.3393
19488TIP3    H279880   1.569   6.675  16.184 -1.0668 -0.5950 -0.2525
19489TIP3   OH279881   2.210   3.853   2.795 -0.2671 -0.5890  0.2622
19489TIP3    H179882   2.213   3.759   2.779  0.9242  0.0085 -4.5259
19489TIP3    H279883   2.300   3.877   2.816  1.5737  0.0464 -6.0699
19490TIP3   OH279884   0.760   3.069  12.969 -0.5921 -0.1368 -0.3619
19490TIP3    H179885   0.676   3.101  12.937 -1.1857 -1.3683 -0.1165
19490TIP3    H279886   0.803   3.031  12.892 -0.8396 -0.6794 -0.2359
19491TIP3   OH279887   2.968   5.243  13.092 -0.7641 -0.0127 -0.4914
19491TIP3    H179888   2.910   5.307  13.134 -1.5475 -1.2569  0.3605
19491TIP3    H279889   3.017   5.204  13.164 -0.8426 -0.9125 -0.9126
19492TIP3   OH279890   1.019   2.508  13.825  0.1322 -0.3606  0.1781
19492TIP3    H179891   0.947   2.569  13.807  0.5643 -0.0828 -0.6407
19492TIP3    H279892   1.009   2.486  13.918 -1.2461 -0.6302 -0.0105
19493TIP3   OH279893   3.561   4.025  13.277 -0.6020 -0.1222 -0.0069
19493TIP3    H179894   3.548   3.931  13.286  0.5338 -0.2930  0.0601
19493TIP3    H279895   3.647   4.033  13.235  0.2988  0.8906  1.8781
19494TIP3   OH279896   1.689   4.550   2.249  0.3761 -0.1164  0.1380
19494TIP3    H179897   1.657   4.534   2.160  0.5697  2.1025 -0.3917
19494TIP3    H279898   1.785   4.548   2.241  0.3945  0.1240  0.2628
19495TIP3   OH279899   2.481   1.826  13.085  0.5160  0.1604 -0.1117
19495TIP3    H179900   2.568   1.851  13.118  0.2759  0.1528  0.5495
19495TIP3    H279901   2.424   1.897  13.114  0.4907  0.7500 -1.5359
19496TIP3   OH279902   2.804   0.459   4.374  0.3663 -0.2015 -0.1513
19496TIP3    H179903   2.751   0.391   4.416  0.1877 -0.5421 -0.9209
19496TIP3    H279904   2.886   0.460   4.424  0.2658 -0.7901  0.0268
19497TIP3   OH279905   6.666   6.448  11.479 -0.0301 -0.7109  0.0263
19497TIP3    H179906   6.674   6.459  11.574 -0.8318  0.3171 -0.0033
19497TIP3    H279907   6.755   6.432  11.449  0.4089  0.0882  0.8247
19498TIP3   OH279908   3.175   0.734   0.835  0.4219 -0.3433 -0.1792
19498TIP3    H179909   3.123   0.669   0.882  1.1680 -0.2795  0.7366
19498TIP3    H279910   3.250   0.751   0.891  0.3281  1.1895 -0.4803
19499TIP3   OH279911   0.478   6.305   4.264  0.3524 -0.2624  0.1476
19499TIP3    H179912   0.526   6.300   4.181  2.3877  0.9099  1.1746
19499TIP3    H279913   0.397   6.352   4.241  0.4851 -0.6940 -1.3189
19500TIP3   OH279914   3.060   1.662  11.044  0.2013  0.3241 -0.2911
19500TIP3    H179915   3.067   1.610  11.124  1.0144  0.6692 -0.1275
19500TIP3    H279916   3.100   1.746  11.066  0.6308  0.3512 -1.1245
19501TIP3   OH279917   5.804   5.019  14.214  0.3943 -0.0253 -0.0325
19501TIP3    H179918   5.873   4.991  14.154  1.3559  1.0832  0.5169
19501TIP3    H279919   5.846   5.085  14.270 -0.5668 -0.7686  1.6314
19502TIP3   OH279920   3.001   4.376  12.542  0.2900 -0.0224  0.2878
19502TIP3    H179921   3.036   4.452  12.495  0.3597 -0.3092 -0.1280
19502TIP3    H279922   2.909   4.372  12.515  0.4323 -0.4315 -0.1506
19503TIP3   OH279923   3.527   0.816   6.478  0.1668 -0.3577 -0.1216
19503TIP3    H179924   3.468   0.891   6.475 -0.6396 -1.0014 -1.6834
19503TIP3    H279925   3.578   0.823   6.398  0.5899 -1.0688  0.0821
19504TIP3   OH279926   3.437   1.516  15.237  0.5373 -0.0591  0.1118
19504TIP3    H179927   3.497   1.450  15.270  0.3275 -0.5613 -0.4830
19504TIP3    H279928   3.445   1.510  15.142  0.2003  0.4752  0.0455
19505TIP3   OH279929   3.673   5.935  13.378 -0.1264  0.5147 -0.4890
19505TIP3    H179930   3.746   5.874  13.388 -0.4243 -0.2502 -2.5228
19505TIP3    H279931   3.712   6.021  13.394  0.6738 -0.0513  0.7705
19506TIP3   OH279932   3.649   3.156  13.404 -0.1279  0.1217  0.7699
19506TIP3    H179933   3.711   3.212  13.449 -0.5146 -1.1421  3.0075
19506TIP3    H279934   3.655   3.072  13.449  0.7520 -1.8816 -2.6939
19507TIP3   OH279935   1.537   3.393  12.995  0.0760 -0.0746 -0.5137
19507TIP3    H179936   1.562   3.373  13.086  1.7145 -0.4411 -0.9999
19507TIP3    H279937   1.448   3.426  13.001  0.9187  2.1355  1.5172
19508TIP3   OH279938   6.048   2.225   1.652  0.1122 -0.0765 -0.8020
19508TIP3    H179939   6.115   2.178   1.604  0.9498  1.0115 -0.7395
19508TIP3    H279940   6.053   2.315   1.619  0.5879  0.6721  1.1615
19509TIP3   OH279941   2.464   5.549   2.940 -0.2305  0.0575 -0.1192
19509TIP3    H179942   2.415   5.470   2.960  0.6245 -0.0146  1.9998
19509TIP3    H279943   2.555   5.520   2.937 -0.1185  0.4929 -2.2067
19510TIP3   OH279944   6.005   0.615   0.407  0.0551 -0.1191 -0.4767
19510TIP3    H179945   6.047   0.541   0.450 -0.3146 -0.1910 -0.2336
19510TIP3    H279946   5.932   0.577   0.358 -0.2479  0.1001 -0.2044
19511TIP3   OH279947   5.629   1.293  12.913  0.7806  0.6092  0.1272
19511TIP3    H179948   5.549   1.346  12.902  1.6436  1.4829 -3.2914
19511TIP3    H279949   5.609   1.212  12.866  0.9918 -0.3436  1.6431
19512TIP3   OH279950   5.613   3.403  13.846  0.3259 -0.6092 -0.1459
19512TIP3    H179951   5.705   3.429  13.844  0.4043 -0.8874 -0.2118
19512TIP3    H279952   5.594   3.378  13.755  0.4111 -1.3271  0.0273
19513TIP3   OH279953   0.923   4.629   2.970 -0.2416  0.6163  0.4937
19513TIP3    H179954   0.937   4.704   2.913  0.4976 -0.1864 -0.4045
19513TIP3    H279955   0.883   4.563   2.914  1.1040 -0.4142  0.7035
19514TIP3   OH279956   2.178   4.209   2.141  0.1200 -0.0933 -0.4575
19514TIP3    H179957   2.186   4.159   2.222 -1.8268 -1.9056 -1.2719
19514TIP3    H279958   2.268   4.226   2.113  0.8291  0.4732  1.9712
19515TIP3   OH279959   2.687   4.396   1.545  0.2779 -0.4170 -0.2186
19515TIP3    H179960   2.758   4.400   1.609 -1.4044  1.3513  1.6683
19515TIP3    H279961   2.704   4.469   1.485 -0.3632  0.5365  0.7357
19516TIP3   OH279962   2.378   5.540  11.753  0.3063  0.7602 -0.2082
19516TIP3    H179963   2.399   5.448  11.734 -0.3241  0.5325  0.1511
19516TIP3    H279964   2.417   5.555  11.839 -0.6653  0.4377  0.3080
19517TIP3   OH279965   2.874   0.083   2.992 -0.0258  0.0779  0.0325
19517TIP3    H179966   2.837   0.147   2.930 -0.6648 -1.2900 -1.0491
19517TIP3    H279967   2.940   0.133   3.041 -0.4015  1.5293 -0.8627
19518TIP3   OH279968   4.438   1.881  13.635  0.4076 -0.1585  0.4277
19518TIP3    H179969   4.489   1.953  13.673  1.4969 -0.6035 -0.1519
19518TIP3    H279970   4.383   1.924  13.569 -0.8514  0.4868  1.8410
19519TIP3   OH279971   5.113   4.783  13.882 -0.0073  0.0566 -0.0960
19519TIP3    H179972   5.184   4.792  13.946  1.0485 -0.9039 -1.0803
19519TIP3    H279973   5.150   4.816  13.800 -1.2037  0.8936 -0.3131
19520TIP3   OH279974   1.417   6.644  11.451 -0.4526 -0.3798 -0.2989
19520TIP3    H179975   1.398   6.583  11.379  0.5211 -1.4155  0.2880
19520TIP3    H279976   1.346   6.630  11.514  0.6953 -2.2910  0.6689
19521TIP3   OH279977   5.510   5.937  12.258 -0.5905 -0.4274 -0.6528
19521TIP3    H179978   5.584   5.946  12.318 -0.3837 -0.2626 -0.9333
19521TIP3    H279979   5.501   6.023  12.216 -0.1993 -0.7792 -1.4778
19522TIP3   OH279980   3.223   0.637   3.895  0.1290  0.6841  0.4526
19522TIP3    H179981   3.189   0.577   3.962  1.0085  0.7811  1.0007
19522TIP3    H279982   3.155   0.703   3.884 -0.3207  0.2680  0.7426
19523TIP3   OH279983   1.448   5.117   3.767  0.3419 -0.2564 -0.0333
19523TIP3    H179984   1.453   5.211   3.785  1.6970 -0.1848 -0.6966
19523TIP3    H279985   1.538   5.090   3.752 -0.2512 -1.1365 -2.4691
19524TIP3   OH279986   1.285   1.439   5.687  0.0839  0.4167 -0.4119
19524TIP3    H179987   1.277   1.407   5.777  2.0573 -1.6864 -0.8877
19524TIP3    H279988   1.371   1.481   5.684  1.3923 -2.1088 -1.9083
19525TIP3   OH279989   3.683   0.963   4.878 -0.4820 -0.2767  0.4632
19525TIP3    H179990   3.655   1.019   4.951 -0.5786 -0.1865  0.3588
19525TIP3    H279991   3.657   1.012   4.800 -0.9630 -0.6620  0.3736
19526TIP3   OH279992   6.515   2.121  15.420  0.2514  0.1458  0.8142
19526TIP3    H179993   6.525   2.171  15.340 -0.8226 -0.2483  0.4179
19526TIP3    H279994   6.537   2.031  15.396 -0.4807 -0.0493  0.8453
19527TIP3   OH279995   2.460   1.017   4.091  0.3204  0.1226  0.3270
19527TIP3    H179996   2.488   0.926   4.084 -1.9061 -0.4932 -2.0940
19527TIP3    H279997   2.419   1.023   4.177  0.9475 -1.0183  0.7217
19528TIP3   OH279998   2.780   2.347  12.039  0.0526 -0.1623  0.2011
19528TIP3    H179999   2.808   2.327  11.950 -1.8588  0.6878 -0.6392
19528TIP3    H280000   2.858   2.333  12.093  0.8494 -2.2097 -1.3586
19529TIP3   OH280001   4.462   3.231  16.160 -0.6171  0.4848  0.0127
19529TIP3    H180002   4.432   3.158  16.214 -2.0818  2.3813  1.9519
19529TIP3    H280003   4.383   3.283  16.144  0.2255  1.2233 -2.0338
19530TIP3   OH280004   3.000   2.131  16.915 -0.7874 -0.2354 -0.4079
19530TIP3    H180005   2.984   2.141  16.821 -2.0914  1.1525 -0.0727
19530TIP3    H280006   2.989   2.219  16.951  1.0101 -0.4973  0.8857
19531TIP3   OH280007   5.624   6.596   2.075  0.3789  0.5581  0.0822
19531TIP3    H180008   5.680   6.547   2.135 -0.7986  0.9760  1.5829
19531TIP3    H280009   5.645   6.688   2.092  1.1260  0.6612 -1.2697
19532TIP3   OH280010   2.330   1.626  16.830 -0.4003  0.0924 -0.1612
19532TIP3    H180011   2.247   1.665  16.857 -1.1706 -0.3452 -1.7860
19532TIP3    H280012   2.305   1.543  16.788  1.0838 -1.4800  1.8861
19533TIP3   OH280013   1.613   4.135  16.539  0.0111  0.0713 -0.2934
19533TIP3    H180014   1.674   4.207  16.517 -0.2432  0.4643  0.2762
19533TIP3    H280015   1.591   4.097  16.454  0.5861  0.3067 -0.5603
19534TIP3   OH280016   1.660   3.588   5.932 -0.1961  0.4992  0.1839
19534TIP3    H180017   1.597   3.580   6.003 -0.5521  2.3776  0.1394
19534TIP3    H280018   1.612   3.557   5.854  0.0101 -1.0227  0.6310
19535TIP3   OH280019   3.417   5.059   5.072  0.4172 -0.5667 -0.1325
19535TIP3    H180020   3.427   4.973   5.030  2.1233 -0.5661  0.2178
19535TIP3    H280021   3.493   5.066   5.129 -1.1747 -0.0262  2.0340
19536TIP3   OH280022   0.886   4.044   2.458  0.4351 -0.0456 -0.3165
19536TIP3    H180023   0.956   4.073   2.517  0.4693 -1.8895  0.6135
19536TIP3    H280024   0.908   3.954   2.437 -1.1170 -0.3234 -0.8593
19537TIP3   OH280025   5.322   0.672  14.180  0.1225  0.5571  0.1410
19537TIP3    H180026   5.299   0.665  14.087  3.4532 -1.3833 -0.7305
19537TIP3    H280027   5.274   0.600  14.221  0.6423 -0.2633 -0.6342
19538TIP3   OH280028   4.963   5.072  12.618  0.2939 -0.5017  0.2166
19538TIP3    H180029   4.919   5.152  12.649  0.7021 -0.7892  1.6366
19538TIP3    H280030   5.020   5.102  12.548  0.1546  0.3988  0.4677
19539TIP3   OH280031   5.734   3.629   3.064  0.2298 -0.0211 -0.2517
19539TIP3    H180032   5.742   3.707   3.120  2.8758 -1.2216  1.2484
19539TIP3    H280033   5.816   3.581   3.079 -0.3739 -2.0392 -2.7735
19540TIP3   OH280034   0.425   0.735   3.511 -0.4084 -0.4027  0.2215
19540TIP3    H180035   0.427   0.692   3.597 -1.4817 -1.1986 -0.1378
19540TIP3    H280036   0.447   0.666   3.449 -3.4029 -0.8657 -0.4870
19541TIP3   OH280037   3.935   5.097  13.194  0.0367  0.5769 -0.2741
19541TIP3    H180038   4.004   5.081  13.130 -0.9215  0.2225 -1.2442
19541TIP3    H280039   3.881   5.018  13.191 -0.3458  0.7956  0.5617
19542TIP3   OH280040   6.765   2.354  14.274 -0.3177  0.2557 -0.3343
19542TIP3    H180041   6.722   2.433  14.243 -0.5291  0.7457  1.1108
19542TIP3    H280042   6.704   2.316  14.337 -0.1271 -0.9582 -0.8444
19543TIP3   OH280043   0.804   4.530  10.460 -0.1050  0.1628  0.2194
19543TIP3    H180044   0.802   4.575  10.544 -0.6120 -0.5416  0.5899
19543TIP3    H280045   0.723   4.479  10.458  0.5377 -0.8616 -0.1154
19544TIP3   OH280046   2.626   4.732  12.761 -0.0284  0.5363 -0.0943
19544TIP3    H180047   2.588   4.812  12.727  1.5867  1.0534 -0.7884
19544TIP3    H280048   2.619   4.669  12.689 -1.2353  0.0525  0.4268
19545TIP3   OH280049   5.696   3.563  13.501 -0.2828 -0.2084 -1.0533
19545TIP3    H180050   5.681   3.470  13.517  1.2963 -0.4179 -0.5125
19545TIP3    H280051   5.631   3.608  13.555  0.0873 -1.0100  0.1140
19546TIP3   OH280052   5.120   3.039   3.170 -0.1650  0.4744  0.2567
19546TIP3    H180053   5.183   3.067   3.237  0.6631 -0.5126 -0.0790
19546TIP3    H280054   5.162   3.060   3.087  0.5226 -1.7323 -0.0108
19547TIP3   OH280055   5.902   4.552  11.236  0.0813 -0.0584 -0.3307
19547TIP3    H180056   5.928   4.639  11.266 -2.7626  0.1718  1.9436
19547TIP3    H280057   5.848   4.568  11.159 -0.0380  0.1772 -0.2002
19548TIP3   OH280058   1.075   2.907  16.092  0.2224  0.4139  0.5666
19548TIP3    H180059   1.160   2.910  16.135  0.6375 -0.4184 -0.1660
19548TIP3    H280060   1.021   2.853  16.150  0.6740 -0.3994  0.2465
19549TIP3   OH280061   2.387   6.658   2.952 -1.4262 -0.3196  0.1989
19549TIP3    H180062   2.331   6.733   2.935 -1.3639 -0.1660  0.6669
19549TIP3    H280063   2.353   6.589   2.896 -1.2546  0.1657 -0.5174
19550TIP3   OH280064   0.738   0.770   0.611  0.3112 -0.3165  0.4029
19550TIP3    H180065   0.820   0.733   0.645  0.6550 -0.2286 -0.3079
19550TIP3    H280066   0.764   0.815   0.531 -0.1212  1.2532  1.0874
19551TIP3   OH280067   2.380   3.601  13.226 -0.0139  0.5267 -0.3593
19551TIP3    H180068   2.408   3.513  13.249 -0.8684 -0.4029 -2.5486
19551TIP3    H280069   2.331   3.632  13.302  2.9198  0.4324  1.7146
19552TIP3   OH280070   5.322   0.134  15.603 -0.0880  0.1510 -0.3630
19552TIP3    H180071   5.260   0.061  15.601 -0.8068  0.7703 -1.1527
19552TIP3    H280072   5.267   0.212  15.609  0.6112  0.7131 -1.0710
19553TIP3   OH280073   3.692   1.470  16.877 -0.0864 -0.3899  0.3748
19553TIP3    H180074   3.754   1.456  16.948 -0.6634 -1.1056  0.7554
19553TIP3    H280075   3.699   1.391  16.823 -0.5125 -0.3890  0.3134
19554TIP3   OH280076   6.452   0.010  14.557  0.0586  0.3550 -0.2144
19554TIP3    H180077   6.535  -0.034  14.540  0.7560  1.4354  0.3043
19554TIP3    H280078   6.447   0.015  14.653 -1.3488 -1.0399 -0.1592
19555TIP3   OH280079   4.870   1.561  12.914  0.4877 -0.1905  0.3122
19555TIP3    H180080   4.794   1.503  12.903  0.0775  0.3847  0.0432
19555TIP3    H280081   4.917   1.525  12.988  0.8402 -1.5184 -0.5273
19556TIP3   OH280082   2.559   0.207   5.998 -0.7180  0.5699 -0.1176
19556TIP3    H180083   2.551   0.250   6.083 -0.1078  0.4559  0.0029
19556TIP3    H280084   2.623   0.261   5.951  0.8858 -0.7929  0.4243
19557TIP3   OH280085   1.023   0.592   5.641 -0.0134 -0.2598 -0.4490
19557TIP3    H180086   0.939   0.550   5.662 -0.9166  1.4650 -0.4487
19557TIP3    H280087   1.086   0.520   5.639 -1.4878 -1.6016 -0.4404
19558TIP3   OH280088   3.936   4.796   1.838  0.5559  0.0103 -0.0740
19558TIP3    H180089   3.969   4.785   1.927 -1.5496  0.9712  0.8875
19558TIP3    H280090   3.964   4.883   1.813 -2.4033  1.5485  1.4047
19559TIP3   OH280091   3.842   2.156   1.724 -0.1348 -0.3543  0.0374
19559TIP3    H180092   3.782   2.215   1.677 -0.9539  0.5428  2.0761
19559TIP3    H280093   3.838   2.186   1.815  1.9133 -1.5621  0.5809
19560TIP3   OH280094   6.093   5.739  16.001  0.2858 -1.0447 -0.1131
19560TIP3    H180095   6.107   5.645  15.986  0.0902 -1.2927  1.1366
19560TIP3    H280096   6.181   5.774  16.015  0.3783 -0.9858 -0.7752
19561TIP3   OH280097   4.192   5.474  17.125  0.2913 -0.3364 -0.0379
19561TIP3    H180098   4.270   5.481  17.180 -0.1923 -0.2715  0.6505
19561TIP3    H280099   4.182   5.380  17.109 -1.3566 -0.7273  2.6598
19562TIP3   OH280100   2.983   5.756   3.429  0.5350  0.5090 -0.4429
19562TIP3    H180101   2.911   5.812   3.460 -0.2020  0.7830 -2.4955
19562TIP3    H280102   3.048   5.818   3.396  0.8880  0.2110 -0.3061
19563TIP3   OH280103   3.824   3.512   1.616 -0.0519 -0.2461  0.0533
19563TIP3    H180104   3.914   3.526   1.648 -0.2947  0.7658  0.3298
19563TIP3    H280105   3.829   3.531   1.522  0.4591 -2.2929 -0.3786
19564TIP3   OH280106   4.140   3.820   3.594 -0.0058 -0.0678  0.2093
19564TIP3    H180107   4.138   3.906   3.551  0.6049 -0.7688 -1.2709
19564TIP3    H280108   4.048   3.800   3.611 -0.3518 -0.1038 -1.5176
19565TIP3   OH280109   5.311   6.619   5.380  0.0643 -0.8541  0.1556
19565TIP3    H180110   5.223   6.633   5.414  0.6653  0.2928  1.3092
19565TIP3    H280111   5.358   6.576   5.452  0.5821 -1.0372 -0.2794
19566TIP3   OH280112   1.874   4.165   2.101  0.1861  0.0990 -0.1160
19566TIP3    H180113   1.868   4.213   2.018 -0.2189  0.2860  0.0171
19566TIP3    H280114   1.960   4.187   2.135  0.9785 -1.1512 -1.1944
19567TIP3   OH280115   5.260   0.977   1.791 -0.1919  0.1345  0.1109
19567TIP3    H180116   5.315   0.911   1.833 -1.6766 -0.8537  0.5676
19567TIP3    H280117   5.323   1.036   1.747  1.1777 -1.5079 -0.2497
19568TIP3   OH280118   4.748   0.584  15.836  0.1982 -0.1877  0.2208
19568TIP3    H180119   4.681   0.652  15.830 -0.8055 -0.8910  2.3620
19568TIP3    H280120   4.804   0.613  15.909  2.2092  0.3206 -1.4459
19569TIP3   OH280121   2.371   3.922  12.055 -0.3664  0.3107  0.4799
19569TIP3    H180122   2.310   3.956  11.989  1.0381  0.3908 -0.8281
19569TIP3    H280123   2.431   3.866  12.006  0.0675 -0.5082  1.8865
19570TIP3   OH280124   6.721   0.720   3.833  0.2350 -0.4020  0.6247
19570TIP3    H180125   6.779   0.789   3.801  0.6594 -1.4837 -1.0475
19570TIP3    H280126   6.757   0.639   3.796 -1.4914 -1.2803  0.7621
19571TIP3   OH280127   2.698   1.953  13.526  0.0362 -0.0397  0.2757
19571TIP3    H180128   2.756   1.998  13.464 -0.8042 -1.0655 -1.3308
19571TIP3    H280129   2.676   2.020  13.591  0.5737  1.2468 -0.8098
19572TIP3   OH280130   2.775   1.034   3.476 -0.1701 -0.3402  0.2821
19572TIP3    H180131   2.811   1.122   3.472  1.7371 -1.0462  0.8852
19572TIP3    H280132   2.727   1.031   3.558 -0.7905  0.3159 -0.0478
19573TIP3   OH280133   1.070   6.567  13.628  0.3740  0.3414  0.6151
19573TIP3    H180134   1.070   6.536  13.538  0.2973 -0.7116  0.9680
19573TIP3    H280135   1.112   6.653  13.624 -1.3081  1.1580 -0.7077
19574TIP3   OH280136   1.041   5.225  15.727  0.3754  0.0179  0.2116
19574TIP3    H180137   0.983   5.276  15.783 -0.9154 -1.3668  0.2098
19574TIP3    H280138   1.019   5.252  15.638 -1.3557 -1.4699  0.1169
19575TIP3   OH280139   3.640   6.004   0.362 -0.3060  0.0926 -0.0334
19575TIP3    H180140   3.686   6.062   0.302 -1.8373 -0.7248 -2.1318
19575TIP3    H280141   3.672   5.916   0.341 -1.0079 -0.2239  0.1693
19576TIP3   OH280142   1.289   4.609  17.084 -0.3866  0.0243 -0.5224
19576TIP3    H180143   1.197   4.617  17.107 -0.1320 -0.8962  0.9711
19576TIP3    H280144   1.325   4.697  17.097 -0.9979  0.3346 -0.8903
19577TIP3   OH280145   2.196   4.258   4.751  0.3223 -0.3692 -0.4565
19577TIP3    H180146   2.231   4.185   4.801  0.6174  0.5614  0.7511
19577TIP3    H280147   2.127   4.294   4.806 -2.6912 -2.1464 -2.7477
19578TIP3   OH280148   4.156   0.434  13.400  0.2143  0.0608 -0.3122
19578TIP3    H180149   4.081   0.493  13.408 -0.2425 -0.5607  0.0329
19578TIP3    H280150   4.162   0.391  13.485  1.1587  0.3244 -0.2301
19579TIP3   OH280151   0.754   0.924   1.118  0.5690 -0.3483  0.2092
19579TIP3    H180152   0.780   0.834   1.102  1.9515 -0.1405  1.1047
19579TIP3    H280153   0.689   0.943   1.051  1.4504 -1.4888 -1.0161
19580TIP3   OH280154   1.966   5.854  16.192  0.2387 -0.6438 -0.0692
19580TIP3    H180155   1.900   5.887  16.253  0.0719 -0.0610 -0.5619
19580TIP3    H280156   1.999   5.774  16.233  0.1114 -0.2700  0.7748
19581TIP3   OH280157   6.736   6.587  16.012 -0.4512 -0.7251 -0.6120
19581TIP3    H180158   6.785   6.558  15.935 -0.9043 -0.3469 -1.0482
19581TIP3    H280159   6.732   6.682  16.003  1.4839 -0.4228  1.0815
19582TIP3   OH280160   4.170   3.579   2.544  0.1825  0.0322 -0.0770
19582TIP3    H180161   4.145   3.666   2.510  0.1112  0.3326  0.7355
19582TIP3    H280162   4.157   3.521   2.469  2.3553  1.0432 -1.3426
19583TIP3   OH280163   2.582   5.409   2.651  0.3816  0.5198  0.0053
19583TIP3    H180164   2.638   5.398   2.727  1.1381  0.2751 -0.5729
19583TIP3    H280165   2.576   5.321   2.613  0.0151  0.6384 -0.2157
19584TIP3   OH280166   6.433   3.657  12.137  0.0700  0.3742  0.4032
19584TIP3    H180167   6.439   3.623  12.226  0.3617  1.2064  0.7049
19584TIP3    H280168   6.339   3.665  12.121 -0.1408 -2.5967 -0.4784
19585TIP3   OH280169   5.235   1.708   0.290  0.7471 -0.7214 -0.4316
19585TIP3    H180170   5.236   1.691   0.195  1.0918 -0.9438 -0.3902
19585TIP3    H280171   5.276   1.630   0.328  1.0443 -0.4197 -0.1354
19586TIP3   OH280172   5.909   5.522  13.094 -0.2140 -0.0648 -0.6781
19586TIP3    H180173   5.923   5.575  13.172 -0.1575  0.3073 -0.9360
19586TIP3    H280174   5.852   5.575  13.038 -1.2002 -0.8161 -0.4025
19587TIP3   OH280175   2.309   0.303   0.567 -0.3061 -0.4532  0.1356
19587TIP3    H180176   2.354   0.258   0.495 -1.1496 -0.4892 -0.3807
19587TIP3    H280177   2.228   0.337   0.528  0.1282  1.2238  0.5887
19588TIP3   OH280178   2.096   2.574   1.068 -0.0782 -0.1967 -0.4263
19588TIP3    H180179   2.176   2.531   1.041 -1.4288 -1.8838 -2.0436
19588TIP3    H280180   2.116   2.668   1.065  1.6631 -0.5666 -1.2857
19589TIP3   OH280181   4.721   3.068  14.395  0.5595  0.6238  0.5165
19589TIP3    H180182   4.802   3.119  14.404  0.4955  0.8826 -0.2664
19589TIP3    H280183   4.653   3.134  14.380  0.1262  0.4319  1.6100
19590TIP3   OH280184   4.196   0.036   6.030  0.5706  0.0762 -0.2960
19590TIP3    H180185   4.164   0.105   6.088 -0.2122 -1.2976  0.9829
19590TIP3    H280186   4.198  -0.042   6.085  0.3367 -1.1750 -1.9739
19591TIP3   OH280187   1.305   0.115  14.663  0.1743  0.9001 -0.2796
19591TIP3    H180188   1.228   0.063  14.641 -1.3907  2.7926  0.5270
19591TIP3    H280189   1.282   0.204  14.639  1.0873  1.9448  2.3575
19592TIP3   OH280190   4.511   4.323  11.521  0.0083 -0.3085 -0.1413
19592TIP3    H180191   4.423   4.291  11.538 -0.4165  0.0593 -1.5626
19592TIP3    H280192   4.502   4.418  11.515  0.7444 -0.1421  0.9990
19593TIP3   OH280193   1.794   3.866  14.454 -0.6726  0.2013 -0.2672
19593TIP3    H180194   1.762   3.840  14.541 -1.0045  1.3176 -0.0408
19593TIP3    H280195   1.755   3.803  14.394 -0.3741 -0.6375  0.3941
19594TIP3   OH280196   0.725   4.093   5.537 -0.2548 -0.1925  0.0751
19594TIP3    H180197   0.725   4.023   5.472 -0.6284  0.0915 -0.2315
19594TIP3    H280198   0.660   4.155   5.506  0.6466  0.6976 -0.0863
19595TIP3   OH280199   4.233   6.764   4.025 -0.1355  0.1447  0.4127
19595TIP3    H180200   4.307   6.820   4.051  0.4177 -0.4447  0.1479
19595TIP3    H280201   4.239   6.688   4.084 -1.4218  0.7548  1.3840
19596TIP3   OH280202   3.213   6.362   1.603 -0.4476 -0.1267 -0.4050
19596TIP3    H180203   3.303   6.330   1.594  0.4973  1.8652  1.1958
19596TIP3    H280204   3.158   6.285   1.585  1.5586 -1.5070 -0.9465
19597TIP3   OH280205   5.220   4.416  16.372 -0.0079 -0.2943  0.2524
19597TIP3    H180206   5.264   4.364  16.305 -1.3239 -0.4570 -0.5276
19597TIP3    H280207   5.247   4.376  16.455 -0.9892 -2.2934 -0.3190
19598TIP3   OH280208   0.332   3.492  11.978  0.0044  0.3380 -0.1873
19598TIP3    H180209   0.272   3.430  11.938  1.2364 -0.0155 -1.6101
19598TIP3    H280210   0.353   3.454  12.064 -0.2669 -0.5539 -0.5062
19599TIP3   OH280211   2.706   2.728   2.762  0.1195 -0.1689  0.0573
19599TIP3    H180212   2.674   2.643   2.792  0.2492 -0.2656 -0.0749
19599TIP3    H280213   2.800   2.724   2.777  0.0936  0.0491  0.2861
19600TIP3   OH280214   3.447   2.288  16.780  0.2198 -0.2403 -0.5007
19600TIP3    H180215   3.383   2.358  16.766 -0.9442 -0.3878  3.0707
19600TIP3    H280216   3.525   2.334  16.811  0.6614 -0.3146 -1.4835
19601TIP3   OH280217   1.510   2.553  12.139  0.1632  0.1431 -0.5048
19601TIP3    H180218   1.508   2.465  12.177  0.0589  0.3720  0.0188
19601TIP3    H280219   1.554   2.607  12.204  0.0282  0.5279 -0.7292
19602TIP3   OH280220   6.577   4.910  16.985  0.5559  0.4546  0.6428
19602TIP3    H180221   6.665   4.879  16.964 -0.2701 -2.9595  1.5698
19602TIP3    H280222   6.539   4.840  17.037 -3.3336  0.9467 -1.1854
19603TIP3   OH280223   1.744   2.661  10.649 -0.0021 -0.0987  0.0957
19603TIP3    H180224   1.796   2.676  10.569  1.1428 -0.0839  0.8186
19603TIP3    H280225   1.778   2.578  10.683 -1.1605 -0.5993  0.0640
19604TIP3   OH280226   6.755   4.647   6.236  0.4127 -0.1145 -0.1017
19604TIP3    H180227   6.707   4.714   6.188  1.1326 -0.2692 -1.0810
19604TIP3    H280228   6.833   4.693   6.269 -0.1358  0.0193  1.0438
19605TIP3   OH280229   2.569   2.652   0.792 -0.2934 -0.1357 -0.0073
19605TIP3    H180230   2.567   2.740   0.755  0.7229 -0.1109 -0.0416
19605TIP3    H280231   2.481   2.617   0.776 -0.5147  0.6393 -0.5483
19606TIP3   OH280232   6.649   6.335  14.402  0.2319  1.1126 -0.2113
19606TIP3    H180233   6.606   6.276  14.463  0.8735  1.9226  1.0665
19606TIP3    H280234   6.743   6.320  14.417  0.3969  1.7576 -0.5611
19607TIP3   OH280235   2.054   0.059   1.165 -0.1131 -0.2594  0.2451
19607TIP3    H180236   2.114   0.133   1.161  0.2102 -0.5540 -0.7386
19607TIP3    H280237   1.968   0.098   1.183  0.2528  0.2253  0.9647
19608TIP3   OH280238   3.783   5.763   3.692 -0.1630 -0.0803 -0.4451
19608TIP3    H180239   3.821   5.684   3.732  0.1558  0.6214  0.6696
19608TIP3    H280240   3.859   5.813   3.662 -0.4028 -0.7105 -2.2200
19609TIP3   OH280241   4.640   1.350  16.225  0.0072 -0.2193  0.3604
19609TIP3    H180242   4.590   1.319  16.300 -0.1416 -0.8141  0.0193
19609TIP3    H280243   4.575   1.367  16.157  0.1316  0.4128  0.3897
19610TIP3   OH280244   1.256   3.458  14.568 -0.0251 -0.1165  0.3794
19610TIP3    H180245   1.269   3.430  14.477 -0.0541 -2.7954  1.1291
19610TIP3    H280246   1.340   3.498  14.592  0.8130 -1.4785 -0.1493
19611TIP3   OH280247   6.452   2.461  13.935  0.0868  0.0995 -0.0720
19611TIP3    H180248   6.486   2.389  13.882 -0.9246 -0.7432  0.3842
19611TIP3    H280249   6.480   2.540  13.889  0.1696 -0.5980 -1.2594
19612TIP3   OH280250   0.771   5.766   0.304 -0.1666 -0.2005 -0.7034
19612TIP3    H180251   0.854   5.795   0.343 -1.4407  1.5674  0.8574
19612TIP3    H280252   0.797   5.727   0.220  2.2032  0.5808 -0.4267
19613TIP3   OH280253   5.561   3.783  14.739  0.3607  0.2245  0.1113
19613TIP3    H180254   5.551   3.843  14.813 -0.4391  0.5532 -0.2597
19613TIP3    H280255   5.472   3.755  14.718  0.7085 -1.1794  0.3386
19614TIP3   OH280256   2.025   5.986  14.875 -0.3094  0.0303 -0.8267
19614TIP3    H180257   1.986   5.975  14.788  1.5056 -0.0307 -1.6749
19614TIP3    H280258   2.046   6.079  14.881  0.9175 -0.2093 -1.0894
19615TIP3   OH280259   5.805   5.407  15.984 -0.2271 -0.4369  0.1772
19615TIP3    H180260   5.743   5.438  15.918 -0.2279 -0.7132  0.0434
19615TIP3    H280261   5.770   5.322  16.011  0.6664 -1.1070 -0.6995
19616TIP3   OH280262   4.404   6.447   6.125  0.1630  0.4513 -0.5314
19616TIP3    H180263   4.382   6.467   6.035  1.0238 -0.8298 -1.0546
19616TIP3    H280264   4.492   6.408   6.120  0.3054  0.5424  0.8695
19617TIP3   OH280265   0.933   5.164  14.350 -0.3316 -0.3782  0.0290
19617TIP3    H180266   0.858   5.211  14.314 -2.2211 -2.5815  0.8378
19617TIP3    H280267   0.981   5.134  14.273 -1.2208 -0.3417 -0.5614
19618TIP3   OH280268   5.486   2.017   4.305 -0.1184 -0.1139 -0.4752
19618TIP3    H180269   5.497   2.108   4.277  3.2194  0.0620  0.9152
19618TIP3    H280270   5.410   2.019   4.363 -0.7671  1.5272 -1.3132
19619TIP3   OH280271   5.355   0.269  13.828 -0.4126 -0.5753 -0.8834
19619TIP3    H180272   5.338   0.177  13.807 -3.2534 -0.2327 -0.4495
19619TIP3    H280273   5.311   0.318  13.759 -1.4703  0.4488  0.4640
19620TIP3   OH280274   1.621   5.501   0.746 -0.2117 -0.1164 -0.2908
19620TIP3    H180275   1.673   5.488   0.826 -1.0338 -0.3482  0.2125
19620TIP3    H280276   1.657   5.580   0.707  1.1956 -0.8234 -0.4870
19621TIP3   OH280277   4.938   2.682   3.422  0.2670 -0.8571 -0.4298
19621TIP3    H180278   4.859   2.695   3.369 -0.5695 -1.9500  0.4906
19621TIP3    H280279   5.009   2.675   3.359 -0.1544  1.3330 -1.2386
19622TIP3   OH280280   6.414   4.545   2.442 -0.0601 -0.5484  0.2856
19622TIP3    H180281   6.475   4.519   2.511 -1.2278 -2.6278  0.6537
19622TIP3    H280282   6.402   4.639   2.452  1.2916 -0.5079  1.6604
19623TIP3   OH280283   4.026   3.543   3.862  0.0228 -0.2869  0.0897
19623TIP3    H180284   4.095   3.504   3.916  0.8426  0.0992 -0.6592
19623TIP3    H280285   4.036   3.500   3.777  1.4221  1.9881 -0.9854
19624TIP3   OH280286   3.325   1.058  14.492 -1.0609 -0.1136  0.3664
19624TIP3    H180287   3.298   0.977  14.449 -0.4484 -0.8398  1.3093
19624TIP3    H280288   3.316   1.040  14.585  3.1693 -0.6958  0.8438
19625TIP3   OH280289   2.867   1.945   0.441  0.1682 -0.0881  0.3090
19625TIP3    H180290   2.885   1.914   0.352 -1.3638  1.1193 -0.4716
19625TIP3    H280291   2.771   1.950   0.445  0.1374 -1.3307  2.4799
19626TIP3   OH280292   3.345   3.845   3.368  0.3152  0.2639  0.0504
19626TIP3    H180293   3.322   3.863   3.460  0.2852 -1.3307  0.3938
19626TIP3    H280294   3.263   3.857   3.320  0.2601  0.8214  0.2840
19627TIP3   OH280295   1.759   6.317  13.334  0.2121  0.1530  0.3389
19627TIP3    H180296   1.774   6.408  13.306 -1.9268  0.8406  1.1518
19627TIP3    H280297   1.716   6.276  13.259 -1.4844  0.7148  0.9489
19628TIP3   OH280298   4.183   4.118   2.271 -0.0567 -0.6328  0.6882
19628TIP3    H180299   4.170   4.156   2.358 -0.5414 -0.2195  0.4460
19628TIP3    H280300   4.143   4.032   2.276 -1.8256  0.1190  0.3400
19629TIP3   OH280301   6.415   5.869   5.912  0.2574  0.4332  0.4208
19629TIP3    H180302   6.403   5.776   5.929  1.9064  0.4063  1.6374
19629TIP3    H280303   6.348   5.912   5.966 -0.9586 -0.0304 -0.6610
19630TIP3   OH280304   3.927   1.843   2.500 -0.0325  0.2817  0.1967
19630TIP3    H180305   3.999   1.780   2.496  0.1083  0.4745 -0.4179
19630TIP3    H280306   3.944   1.894   2.579  0.9433  0.8328 -0.3550
19631TIP3   OH280307   0.726   1.383   0.807 -0.7700  0.2249 -0.0236
19631TIP3    H180308   0.692   1.333   0.881  0.9514 -0.5424  0.2963
19631TIP3    H280309   0.680   1.348   0.731 -0.5248 -0.9589  0.3626
19632TIP3   OH280310   1.833   3.988   4.956 -0.1872 -0.2656 -0.1154
19632TIP3    H180311   1.814   4.068   5.005  1.6428  0.7626 -0.9584
19632TIP3    H280312   1.769   3.925   4.987 -0.3812  0.9198  2.1002
19633TIP3   OH280313   5.804   4.560   6.540  0.3628  0.4636  0.7919
19633TIP3    H180314   5.871   4.617   6.576  0.6105  1.1578 -0.6819
19633TIP3    H280315   5.722   4.608   6.552  0.5837  1.2190 -0.5439
19634TIP3   OH280316   6.783   5.505   3.588  0.7083 -0.3491 -0.3437
19634TIP3    H180317   6.778   5.454   3.507  0.5111  1.0492 -1.2437
19634TIP3    H280318   6.729   5.583   3.571  1.2684  0.3288  0.8643
19635TIP3   OH280319   5.823   6.208   0.405  0.1109 -0.3434 -0.1765
19635TIP3    H180320   5.875   6.246   0.335 -0.2077 -1.1973 -0.8967
19635TIP3    H280321   5.737   6.191   0.365 -0.6253  0.7297  0.8935
19636TIP3   OH280322   3.512   6.656   4.519 -0.0361 -0.3102  0.1557
19636TIP3    H180323   3.577   6.588   4.537  0.4511  0.2406  0.5573
19636TIP3    H280324   3.463   6.665   4.601 -0.6093 -0.7036 -0.1380
19637TIP3   OH280325   4.025   6.673   0.712 -0.0560 -0.5421  0.3448
19637TIP3    H180326   3.939   6.705   0.687 -1.5238 -1.0058  4.1938
19637TIP3    H280327   4.012   6.580   0.731  0.8163 -0.2765  2.5378
19638TIP3   OH280328   5.031   4.597  16.285 -0.2220 -0.0365 -0.2218
19638TIP3    H180329   5.068   4.521  16.330  0.5090  0.6497  0.3583
19638TIP3    H280330   4.965   4.560  16.226  1.4143 -1.3079 -1.3527
19639TIP3   OH280331   1.177   4.439   3.046  0.0278  0.0655  0.8487
19639TIP3    H180332   1.166   4.495   2.969  0.2237 -1.8683 -0.6747
19639TIP3    H280333   1.169   4.499   3.120  0.1927  2.0858 -0.6541
19640TIP3   OH280334   5.394   3.782   5.447 -0.0799 -0.4079  0.2431
19640TIP3    H180335   5.318   3.775   5.389  1.3423 -1.6269 -1.6138
19640TIP3    H280336   5.407   3.693   5.480  0.3336 -0.1339  0.8230
19641TIP3   OH280337   6.639   2.614  12.389 -0.2350  0.4421 -0.1099
19641TIP3    H180338   6.713   2.673  12.377 -0.7494  1.1026 -0.0569
19641TIP3    H280339   6.563   2.664  12.360 -0.8757  0.3476  1.3050
19642TIP3   OH280340   1.618   4.394   2.811  0.2351 -0.8014 -0.0282
19642TIP3    H180341   1.680   4.352   2.871 -0.5211  0.0737  1.4350
19642TIP3    H280342   1.672   4.428   2.740  1.7277  1.4119  2.0298
19643TIP3   OH280343   4.709   1.530   3.654  0.3847 -0.1070  0.7837
19643TIP3    H180344   4.753   1.587   3.718 -0.9374  1.1181  0.6452
19643TIP3    H280345   4.749   1.553   3.570  1.6123 -1.2040  1.0366
19644TIP3   OH280346   3.020   0.040   5.148  0.4209 -0.0779 -0.3988
19644TIP3    H180347   3.098   0.018   5.198  0.4342 -0.6694 -0.6785
19644TIP3    H280348   2.952  -0.018   5.182  0.1742  0.2231 -0.3695
19645TIP3   OH280349   3.780   6.782   1.425 -0.3143  0.3917 -0.2024
19645TIP3    H180350   3.711   6.810   1.365 -0.5030  0.8859  0.2327
19645TIP3    H280351   3.820   6.863   1.455 -0.9697  0.2270  1.2012
19646TIP3   OH280352   3.322   5.518   1.066  1.0008 -0.0021 -0.2407
19646TIP3    H180353   3.334   5.571   1.145  4.7038 -0.8885 -0.0254
19646TIP3    H280354   3.343   5.577   0.994 -0.9971  0.4111 -0.5523
19647TIP3   OH280355   1.294   5.140  13.205  0.4545 -0.2565  0.0361
19647TIP3    H180356   1.288   5.230  13.237 -3.5650 -1.0085  2.0521
19647TIP3    H280357   1.235   5.137  13.130  1.6997 -0.9850 -0.9747
19648TIP3   OH280358   5.810   0.965  14.952  0.4324  0.8689 -0.3564
19648TIP3    H180359   5.777   1.054  14.944 -0.4125  0.5111 -1.0100
19648TIP3    H280360   5.752   0.912  14.897  2.1701  0.2310 -1.6776
19649TIP3   OH280361   3.669   6.156  11.118 -0.0711 -0.5613  0.6202
19649TIP3    H180362   3.624   6.212  11.054 -1.2892 -1.6991  0.4458
19649TIP3    H280363   3.745   6.122  11.071 -0.2609 -0.4011  0.1931
19650TIP3   OH280364   0.566   3.435  11.389  0.2930  0.4256  0.0716
19650TIP3    H180365   0.525   3.416  11.304  0.6154 -1.6651  0.3299
19650TIP3    H280366   0.496   3.422  11.453  0.1869  1.4892  0.1916
19651TIP3   OH280367   5.185   5.141  13.425 -0.2216  0.6245  0.3216
19651TIP3    H180368   5.141   5.146  13.339  0.9042  2.8483 -0.1934
19651TIP3    H280369   5.136   5.201  13.480 -0.6579 -0.4574  1.1461
19652TIP3   OH280370   3.386   6.326   5.527 -0.2473 -0.0522 -0.1135
19652TIP3    H180371   3.428   6.256   5.477  0.8796 -0.0370  0.7545
19652TIP3    H280372   3.296   6.295   5.540 -0.3078 -0.4572 -1.3446
19653TIP3   OH280373   4.219   1.853  11.569 -0.1125 -0.8201  1.1857
19653TIP3    H180374   4.261   1.901  11.497  0.2594 -0.9011  1.3478
19653TIP3    H280375   4.127   1.881  11.566  0.2342  0.4559  1.7273
19654TIP3   OH280376   1.884   5.703   1.624  0.6679  0.4251  0.4153
19654TIP3    H180377   1.978   5.699   1.607  1.2641 -0.2844  3.3425
19654TIP3    H280378   1.875   5.777   1.684 -1.0154  1.8492 -1.4655
19655TIP3   OH280379   1.676   0.457  15.372  0.0817 -0.0819  0.2538
19655TIP3    H180380   1.726   0.527  15.330 -0.1244  0.0260  0.1868
19655TIP3    H280381   1.690   0.380  15.316 -0.2115  0.0676 -0.0285
19656TIP3   OH280382   3.821   5.728  12.877 -0.1080 -0.0408 -0.2417
19656TIP3    H180383   3.735   5.706  12.913 -0.0609 -1.5348 -0.9631
19656TIP3    H280384   3.867   5.644  12.872  1.3421  0.7166 -0.0183
19657TIP3   OH280385   6.629   0.268  11.304  0.4002 -0.1667 -0.0543
19657TIP3    H180386   6.665   0.327  11.238  1.3241 -0.2496  0.3507
19657TIP3    H280387   6.559   0.317  11.346  0.8515  0.4751 -0.0391
19658TIP3   OH280388   0.680   4.614  10.746  0.0208 -0.4076  0.2261
19658TIP3    H180389   0.738   4.581  10.815 -1.9763 -0.2955  2.0720
19658TIP3    H280390   0.622   4.675  10.791  0.2692  1.7181 -2.1042
19659TIP3   OH280391   1.701   0.161  13.741  0.3374 -0.2963 -0.3870
19659TIP3    H180392   1.692   0.231  13.676 -2.1307 -1.3005 -1.2863
19659TIP3    H280393   1.693   0.205  13.825 -2.5273  0.5072 -0.9495
19660TIP3   OH280394   2.845   4.473  15.347  0.1392 -0.2920  0.1396
19660TIP3    H180395   2.871   4.563  15.368 -1.7186  0.5764 -1.0346
19660TIP3    H280396   2.766   4.458  15.399 -1.9081  0.2876 -2.5914
19661TIP3   OH280397   2.319   6.331   4.986  0.3389 -0.0341  0.0932
19661TIP3    H180398   2.310   6.340   5.081  2.0904  0.8482  0.2089
19661TIP3    H280399   2.231   6.350   4.952 -0.1215  0.4436  1.4859
19662TIP3   OH280400   4.134   4.515  17.083 -0.1096 -0.1085  0.2232
19662TIP3    H180401   4.130   4.609  17.068  1.1936 -0.2530 -1.2842
19662TIP3    H280402   4.226   4.493  17.074 -0.4971 -1.6507 -0.2517
19663TIP3   OH280403   3.451   6.187  15.665 -0.4345 -0.2615 -0.0212
19663TIP3    H180404   3.363   6.217  15.640 -0.5393 -0.5701 -0.0262
19663TIP3    H280405   3.442   6.160  15.756 -0.3730 -0.4009 -0.0560
19664TIP3   OH280406   6.757   1.869  15.538 -0.3077 -0.0247  0.4284
19664TIP3    H180407   6.706   1.803  15.492 -0.7472  0.1586  0.6460
19664TIP3    H280408   6.813   1.819  15.597 -0.0974 -0.2352  0.0563
19665TIP3   OH280409   6.763   5.734   0.094 -0.2063  0.2479 -0.0430
19665TIP3    H180410   6.795   5.816   0.131 -0.8430 -0.1160  1.3668
19665TIP3    H280411   6.772   5.670   0.165 -1.2925 -0.5163 -0.5646
19666TIP3   OH280412   4.105   3.470  14.558  0.1785 -0.1528 -0.1554
19666TIP3    H180413   4.057   3.446  14.638  0.4218  2.8391  1.0466
19666TIP3    H280414   4.189   3.425  14.567  0.2811  0.2804  1.4269
19667TIP3   OH280415   5.786   6.004  13.794 -0.3259  0.2460  0.5612
19667TIP3    H180416   5.756   6.053  13.717  0.7859 -0.5705 -0.4265
19667TIP3    H280417   5.878   6.028  13.803 -0.5083  0.5345  1.8288
19668TIP3   OH280418   3.245   2.106  16.366  0.7262 -0.5322 -0.2295
19668TIP3    H180419   3.246   2.106  16.462 -0.8519  0.2369 -0.1791
19668TIP3    H280420   3.261   2.197  16.342 -0.6991 -0.3514 -0.6145
19669TIP3   OH280421   6.408   0.941   4.181 -0.0480  0.7736  0.7020
19669TIP3    H180422   6.334   0.888   4.152  0.5793 -0.0064  0.4779
19669TIP3    H280423   6.411   1.015   4.121  0.6500 -0.3194 -0.6614
19670TIP3   OH280424   4.808   2.751   5.052 -0.2367 -0.1934  0.1813
19670TIP3    H180425   4.758   2.672   5.027 -0.1189  0.0535 -0.8713
19670TIP3    H280426   4.743   2.821   5.052 -0.2689 -0.2166  0.7664
19671TIP3   OH280427   0.597   6.145   3.775 -0.6506  0.2187  0.4590
19671TIP3    H180428   0.652   6.215   3.741  1.4065 -1.6984 -0.3909
19671TIP3    H280429   0.525   6.139   3.712 -1.2003  1.8999  0.8729
19672TIP3   OH280430   0.781   1.183   0.386 -0.1876 -0.1805 -0.0847
19672TIP3    H180431   0.807   1.222   0.470 -1.1484  1.2793 -0.4250
19672TIP3    H280432   0.789   1.255   0.323 -0.8478 -0.8753 -0.9820
19673TIP3   OH280433   2.566   4.254   2.917  0.2494 -0.0327  0.7334
19673TIP3    H180434   2.505   4.324   2.940  1.9729  1.4354  1.1082
19673TIP3    H280435   2.639   4.299   2.875  1.4960 -1.5961  1.1314
19674TIP3   OH280436   1.786   0.929  10.804 -0.1964 -0.4398  0.3787
19674TIP3    H180437   1.745   0.980  10.734 -2.0288 -1.8180  0.3708
19674TIP3    H280438   1.880   0.944  10.793 -0.5419  0.7567 -1.2807
19675TIP3   OH280439   2.107   2.157  11.626  0.2546  0.0122 -0.2883
19675TIP3    H180440   2.164   2.083  11.607 -0.2029 -0.0529 -1.5216
19675TIP3    H280441   2.165   2.225  11.660  0.6695 -0.9257  0.9441
19676TIP3   OH280442   2.124   3.936   1.536 -0.4506  0.2373  0.0372
19676TIP3    H180443   2.114   3.984   1.454  0.8466 -1.1307 -0.9619
19676TIP3    H280444   2.155   3.850   1.510  1.3531  0.2048  2.0341
19677TIP3   OH280445   4.872   1.030  11.872  0.4377 -0.4679 -0.1154
19677TIP3    H180446   4.910   0.956  11.920  1.3534 -0.7664 -1.2496
19677TIP3    H280447   4.842   0.991  11.790 -2.0032 -0.1629  0.5456
19678TIP3   OH280448   0.563   2.475   1.859  0.5681 -0.3165 -0.2269
19678TIP3    H180449   0.493   2.541   1.853  0.0678 -0.8018  0.1239
19678TIP3    H280450   0.523   2.403   1.909  1.5031 -0.3609  0.4866
19679TIP3   OH280451   3.532   2.577   3.849 -0.5272 -0.2262 -0.1744
19679TIP3    H180452   3.613   2.527   3.862  0.6246  0.8661 -2.4770
19679TIP3    H280453   3.462   2.516   3.873  0.9250 -1.6776  0.5821
19680TIP3   OH280454   0.150   4.630  13.147  0.5030 -0.5264  0.2307
19680TIP3    H180455   0.092   4.633  13.223  1.0772 -1.4647  0.7249
19680TIP3    H280456   0.188   4.717  13.143 -0.4261 -0.1045  0.3002
19681TIP3   OH280457   2.613   6.218   2.669  0.1744 -0.3005  0.5261
19681TIP3    H180458   2.661   6.274   2.730 -0.1808  1.2800 -0.5731
19681TIP3    H280459   2.672   6.145   2.650  1.6653  0.9676  0.1432
19682TIP3   OH280460   5.710   5.555  16.284  0.0368 -0.4924 -0.0961
19682TIP3    H180461   5.653   5.512  16.220  0.9158 -0.9689 -0.5801
19682TIP3    H280462   5.726   5.642  16.247  0.0770 -0.5589 -0.2361
19683TIP3   OH280463   2.899   0.586  13.641 -0.0997 -0.4573  0.1286
19683TIP3    H180464   2.840   0.656  13.670 -2.4482 -0.7911 -3.2612
19683TIP3    H280465   2.986   0.627  13.639 -1.0432  1.6818  0.3671
19684TIP3   OH280466   1.818   3.080   4.792 -0.3582  0.3605 -0.5070
19684TIP3    H180467   1.814   3.006   4.731 -0.5825 -0.3271  0.3203
19684TIP3    H280468   1.908   3.113   4.784 -0.3044  0.1070 -1.0061
19685TIP3   OH280469   3.995   5.221  16.690  0.1231 -0.2382  0.8460
19685TIP3    H180470   3.930   5.163  16.731  0.8354  1.0631  4.0732
19685TIP3    H280471   3.952   5.250  16.609 -1.7492 -2.2867  0.9885
19686TIP3   OH280472   0.027   4.300   4.888  0.4263  0.4777 -0.0524
19686TIP3    H180473  -0.019   4.384   4.891 -1.4217 -0.5247  1.2175
19686TIP3    H280474  -0.014   4.252   4.816 -0.7386 -0.4965  1.2105
19687TIP3   OH280475   4.921   5.642   2.384 -0.5303 -0.1470 -0.6499
19687TIP3    H180476   4.981   5.657   2.311 -0.4479 -1.5564 -0.8963
19687TIP3    H280477   4.911   5.728   2.425  2.4975 -0.0322  0.0682
19688TIP3   OH280478   0.953   6.385  13.037 -0.4239 -0.2122  0.6186
19688TIP3    H180479   1.014   6.444  13.082 -1.1114  1.1089 -0.1421
19688TIP3    H280480   0.968   6.300  13.079  1.8414  0.0867  0.5579
19689TIP3   OH280481   4.513   5.940  15.301  0.0514  0.6200 -0.0921
19689TIP3    H180482   4.422   5.913  15.315 -0.3887  1.7275 -0.6627
19689TIP3    H280483   4.553   5.937  15.388 -0.6663  0.5776  0.2427
19690TIP3   OH280484   2.052   5.936  12.561 -0.1085 -0.1405  0.3288
19690TIP3    H180485   1.986   5.952  12.495  1.5042  1.2015 -1.0589
19690TIP3    H280486   2.032   5.997  12.632  0.2384  1.0538 -0.5722
19691TIP3   OH280487   3.314   3.434   2.842  0.2697  0.2652 -0.8202
19691TIP3    H180488   3.401   3.472   2.840 -1.2138  4.0797 -1.5171
19691TIP3    H280489   3.292   3.427   2.935  0.7424  0.7589 -0.6701
19692TIP3   OH280490   1.954   0.222   0.230  0.0022 -0.0990 -0.5367
19692TIP3    H180491   1.960   0.126   0.229  0.9646 -0.1478  2.1642
19692TIP3    H280492   1.926   0.243   0.319 -2.0008  2.1005 -1.5770
19693TIP3   OH280493   3.842   0.742  13.226  0.0833 -0.1094 -0.1834
19693TIP3    H180494   3.889   0.816  13.265  1.2941 -0.3440 -1.1167
19693TIP3    H280495   3.856   0.669  13.287 -0.2803  0.1819  0.2495
19694TIP3   OH280496   2.864   6.185  14.417 -0.4718 -0.3472 -0.7121
19694TIP3    H180497   2.777   6.145  14.430 -1.3968  1.8561  0.3024
19694TIP3    H280498   2.845   6.275  14.391  1.5452 -0.0029 -1.1300
19695TIP3   OH280499   1.174   3.427   0.605 -0.1107 -0.3756  0.5021
19695TIP3    H180500   1.095   3.478   0.623 -0.9958 -1.0445 -1.2774
19695TIP3    H280501   1.216   3.472   0.533 -0.5585 -1.7310 -0.6543
19696TIP3   OH280502   4.451   4.009  13.199  0.1818  0.0036 -0.5237
19696TIP3    H180503   4.366   3.979  13.232  0.2525 -0.8446 -1.0898
19696TIP3    H280504   4.513   3.984  13.267 -0.0526  0.9587  0.0648
19697TIP3   OH280505   2.321   2.690   3.018 -0.0198  0.7568  0.6199
19697TIP3    H180506   2.325   2.626   2.947  3.2562  0.8146  0.6057
19697TIP3    H280507   2.289   2.640   3.093 -0.9574  0.0413 -0.2191
19698TIP3   OH280508   5.235   6.471  11.631  0.3215 -0.2699  0.2816
19698TIP3    H180509   5.297   6.472  11.703 -0.0441 -1.0920  0.6097
19698TIP3    H280510   5.242   6.559  11.592 -1.6186  1.3279  3.1521
19699TIP3   OH280511   0.010   2.580   5.029  0.0143  0.1634  0.3264
19699TIP3    H180512  -0.015   2.494   5.064  1.5427 -0.2904  0.3972
19699TIP3    H280513   0.094   2.564   4.986  0.7446  1.7821  1.0664
19700TIP3   OH280514   1.676   1.873   1.007 -0.1475 -0.3956 -0.3937
19700TIP3    H180515   1.636   1.960   1.007 -0.5757 -0.5290 -2.5439
19700TIP3    H280516   1.667   1.843   1.097 -2.1959  0.8171 -0.1209
19701TIP3   OH280517   0.394   1.567   1.061 -0.1062 -0.3170 -0.3740
19701TIP3    H180518   0.345   1.489   1.088  2.2817 -2.3865 -1.5402
19701TIP3    H280519   0.358   1.590   0.975 -2.6890  1.7156  1.1089
19702TIP3   OH280520   6.767   1.227  12.763 -0.2613  0.5632 -0.4179
19702TIP3    H180521   6.740   1.172  12.836 -1.3331  1.8488  0.1979
19702TIP3    H280522   6.815   1.299  12.803  0.6420  0.3991 -1.1603
19703TIP3   OH280523   3.581   0.096   0.462  0.2691  0.1948  0.1582
19703TIP3    H180524   3.585   0.001   0.453 -0.5555  0.1797 -0.1544
19703TIP3    H280525   3.552   0.110   0.552 -1.8739  0.0658 -0.4504
19704TIP3   OH280526   2.342   6.361  11.579 -0.2663  0.2143  0.3836
19704TIP3    H180527   2.266   6.323  11.534  0.3295  0.2017 -0.6581
19704TIP3    H280528   2.365   6.297  11.646 -1.8410  0.7323  1.4725
19705TIP3   OH280529   1.337   3.932  13.803  0.4785  0.2956 -0.1042
19705TIP3    H180530   1.385   3.977  13.873 -1.0631  0.8195  0.6680
19705TIP3    H280531   1.296   3.857  13.845  1.9629 -1.1313 -1.1160
19706TIP3   OH280532   6.091   1.708  14.561 -0.7642 -0.4226  0.5661
19706TIP3    H180533   6.154   1.697  14.490 -0.3048  1.8808  0.5264
19706TIP3    H280534   6.063   1.799  14.554 -0.2214  0.1085  3.6736
19707TIP3   OH280535   1.457   5.046  15.348 -0.0246  0.1596  0.3843
19707TIP3    H180536   1.467   4.952  15.333  0.9013  0.4790 -1.2567
19707TIP3    H280537   1.547   5.080  15.349 -0.3229  0.9867  1.3635
19708TIP3   OH280538   5.599   3.608   1.754  0.0576  0.9357 -0.1089
19708TIP3    H180539   5.571   3.699   1.747 -0.1742  0.7646 -1.8750
19708TIP3    H280540   5.650   3.592   1.675  0.2241 -0.4258  0.2397
19709TIP3   OH280541   4.329   2.328   1.188  0.3934 -0.0298  0.2213
19709TIP3    H180542   4.417   2.310   1.154  0.4432  1.1681 -0.3357
19709TIP3    H280543   4.295   2.242   1.214  1.6698 -0.5290  0.3144
19710TIP3   OH280544   1.133   0.437   6.381 -0.2713  0.2619 -0.1468
19710TIP3    H180545   1.216   0.450   6.334  0.0489  0.7242  0.5259
19710TIP3    H280546   1.159   0.431   6.473 -0.8061 -1.4525 -0.0852
19711TIP3   OH280547   2.452   3.360  15.483 -0.0418  0.2345 -0.1415
19711TIP3    H180548   2.390   3.352  15.556 -0.0305  2.2376  0.1471
19711TIP3    H280549   2.428   3.289  15.423 -0.9094 -0.6391  1.1835
19712TIP3   OH280550   0.777   1.590  10.803 -0.1829 -0.1298  0.2685
19712TIP3    H180551   0.765   1.496  10.789 -0.7384 -0.0126 -0.1132
19712TIP3    H280552   0.688   1.624  10.815  0.0173  0.3379  0.4511
19713TIP3   OH280553   5.394   0.714   4.643 -0.1550  0.0275 -0.1122
19713TIP3    H180554   5.489   0.705   4.635  0.0487 -0.6449  2.1848
19713TIP3    H280555   5.382   0.793   4.697 -0.7730 -1.0351  1.3616
19714TIP3   OH280556   1.881   1.756   3.406 -0.3361 -0.6424 -0.0072
19714TIP3    H180557   1.938   1.801   3.344  0.4583 -1.9066 -0.2182
19714TIP3    H280558   1.856   1.676   3.361 -1.9528 -0.3218  0.2580
19715TIP3   OH280559   1.231   1.116   5.123 -0.4018  0.1071  0.0413
19715TIP3    H180560   1.261   1.120   5.032 -0.3651  1.6350  0.0964
19715TIP3    H280561   1.176   1.193   5.134  0.3241  0.4608  1.5499
19716TIP3   OH280562   6.216   3.880  12.186  0.1639  0.1426  0.1486
19716TIP3    H180563   6.231   3.868  12.279  0.3304 -0.7330  0.0166
19716TIP3    H280564   6.304   3.878  12.147  0.1307  0.9578  0.0172
19717TIP3   OH280565   2.472   0.689  14.887 -0.2572  0.0006  0.4563
19717TIP3    H180566   2.524   0.769  14.876  1.1251 -0.9052  0.0242
19717TIP3    H280567   2.477   0.645  14.802 -0.2972 -0.9345  0.9240
19718TIP3   OH280568   1.387   1.463   1.245  0.5236  0.6160 -0.5616
19718TIP3    H180569   1.438   1.431   1.319  2.6801  1.0227 -1.7950
19718TIP3    H280570   1.337   1.537   1.281  1.5684  0.8483  0.4679
19719TIP3   OH280571   3.139   4.937   5.073 -0.6767  0.1596  0.3400
19719TIP3    H180572   3.215   4.992   5.054  0.7439 -1.3546  1.3968
19719TIP3    H280573   3.170   4.876   5.140 -3.0857  0.0377  1.4345
19720TIP3   OH280574   5.034   6.056   5.073 -0.7098 -0.5738  0.8030
19720TIP3    H180575   5.120   6.025   5.102  1.5149  0.7502 -3.4548
19720TIP3    H280576   5.000   5.986   5.019 -0.5348  0.2384 -0.4112
19721TIP3   OH280577   0.544   5.935   0.472 -0.0877 -0.1852 -0.1347
19721TIP3    H180578   0.536   5.844   0.444 -1.6502 -0.1594  0.1222
19721TIP3    H280579   0.516   5.934   0.564  0.7522  0.4233  0.1438
19722TIP3   OH280580   2.567   5.510  15.863 -0.6079  0.0047  0.0663
19722TIP3    H180581   2.474   5.501  15.881 -0.4316 -2.0584  0.1649
19722TIP3    H280582   2.610   5.481  15.944  0.1547  2.0153  0.4395
19723TIP3   OH280583   6.194   1.420   5.485 -0.7128  0.2499  0.2832
19723TIP3    H180584   6.191   1.460   5.572 -0.1146 -0.4950  0.6586
19723TIP3    H280585   6.210   1.327   5.502 -1.1548 -0.0045 -0.6080
19724TIP3   OH280586   3.120   6.448  14.790 -0.4463  0.2554 -0.3826
19724TIP3    H180587   3.101   6.378  14.853 -1.4641 -0.2712 -1.2487
19724TIP3    H280588   3.212   6.468  14.805 -0.3151 -0.7805  0.3652
19725TIP3   OH280589   2.493   2.077   2.999  1.0904  0.2638 -0.5098
19725TIP3    H180590   2.470   2.018   2.927  0.2423  1.2850 -1.1108
19725TIP3    H280591   2.503   2.020   3.075 -2.6186 -0.4753 -0.3775
19726TIP3   OH280592   3.245   5.126  12.976  0.1070  0.0843  0.6633
19726TIP3    H180593   3.168   5.071  12.960 -0.8606  1.3046  1.0135
19726TIP3    H280594   3.210   5.208  13.010  1.4741  1.1605 -0.4041
19727TIP3   OH280595   3.590   2.556   5.694  0.1661 -0.0156  0.8501
19727TIP3    H180596   3.668   2.597   5.731 -0.3094  0.1151  1.7294
19727TIP3    H280597   3.608   2.462   5.699  0.7934  0.0350 -0.1471
19728TIP3   OH280598   6.093   1.243  16.255 -0.4587 -0.1319 -0.0057
19728TIP3    H180599   6.021   1.233  16.317  0.3467 -0.6988  0.8756
19728TIP3    H280600   6.158   1.179  16.284  0.4266  0.4200 -0.7230
19729TIP3   OH280601   0.248   3.782  10.429  0.1347 -0.6834  0.1206
19729TIP3    H180602   0.200   3.827  10.359  0.8680  1.1784  0.7640
19729TIP3    H280603   0.315   3.731  10.383  0.4877  0.3689 -0.5839
19730TIP3   OH280604   5.348   4.627   3.867  0.2306 -0.7110  0.2172
19730TIP3    H180605   5.261   4.649   3.833  0.2064  0.4052  0.9546
19730TIP3    H280606   5.355   4.676   3.950  0.9393 -2.0329  0.9779
19731TIP3   OH280607   0.153   6.309   4.585 -1.2169  0.4444  0.1851
19731TIP3    H180608   0.222   6.358   4.540  2.3235 -1.2154  3.2391
19731TIP3    H280609   0.122   6.246   4.521  1.8727 -0.3002 -0.7428
19732TIP3   OH280610   0.714   1.694  13.521  0.6292  0.2395 -0.6077
19732TIP3    H180611   0.714   1.627  13.453 -0.0388  0.1265 -0.4996
19732TIP3    H280612   0.803   1.729  13.520  1.6296 -2.0699  0.7214
19733TIP3   OH280613   5.766   0.930   1.875  0.2191 -0.0938 -0.6857
19733TIP3    H180614   5.695   0.942   1.811 -0.4454 -0.4853 -0.0384
19733TIP3    H280615   5.762   1.009   1.929 -1.2055 -1.0648  0.7392
19734TIP3   OH280616   1.231   4.748  14.574 -0.0411 -0.1728 -0.3025
19734TIP3    H180617   1.210   4.694  14.650  2.2721  0.2970  0.7660
19734TIP3    H280618   1.319   4.720  14.548  0.0026  1.0373 -1.5773
19735TIP3   OH280619   0.685   6.214   2.437  0.1659  0.2647  0.4331
19735TIP3    H180620   0.644   6.160   2.370  0.4068 -0.4737  0.8747
19735TIP3    H280621   0.720   6.289   2.389 -0.7833  0.3832 -0.0848
19736TIP3   OH280622   2.378   3.225  13.703  0.4371 -0.6525  0.1393
19736TIP3    H180623   2.387   3.282  13.780  0.3647  0.9549 -1.0148
19736TIP3    H280624   2.434   3.265  13.637 -0.4720 -1.3104 -1.0541
19737TIP3   OH280625   4.498   4.899  16.159  0.0914  0.5600  0.0442
19737TIP3    H180626   4.552   4.946  16.096 -0.2582 -0.7844 -1.3265
19737TIP3    H280627   4.416   4.883  16.113  0.6263 -2.4540 -0.0695
19738TIP3   OH280628   5.282   4.456   5.652  0.1456 -0.3516  0.2002
19738TIP3    H180629   5.217   4.469   5.721  0.1292 -1.3767  0.3870
19738TIP3    H280630   5.288   4.541   5.609 -1.9248 -0.4156 -0.3383
19739TIP3   OH280631   1.067   6.798  14.603 -0.1656  0.3182 -0.2162
19739TIP3    H180632   1.022   6.767  14.525  0.7455  0.6085 -0.8707
19739TIP3    H280633   1.000   6.846  14.652 -0.6132  0.5833 -1.0751
19740TIP3   OH280634   3.608   1.011   6.191 -0.8265 -0.2831  0.2694
19740TIP3    H180635   3.619   1.018   6.097  0.0825  0.2373  0.4098
19740TIP3    H280636   3.660   0.935   6.216  0.9187  0.9940  0.6599
19741TIP3   OH280637   5.374   1.668  11.008  0.4047 -0.1147  0.5171
19741TIP3    H180638   5.407   1.606  11.073  1.7635  0.8498  0.7851
19741TIP3    H280639   5.447   1.677  10.946 -0.8024 -0.8948 -1.0800
19742TIP3   OH280640   2.738   4.571   5.244  0.0787  0.0387  0.4259
19742TIP3    H180641   2.829   4.585   5.269 -0.2328  0.9643  1.1005
19742TIP3    H280642   2.687   4.619   5.310 -0.9554 -1.5794  0.8656
19743TIP3   OH280643   4.805   4.693   2.959  0.6438 -0.1358  0.1705
19743TIP3    H180644   4.851   4.670   2.879  1.0137  0.1812  0.2905
19743TIP3    H280645   4.801   4.789   2.958 -1.0820 -0.1875 -0.4331
19744TIP3   OH280646   6.488   4.160   5.646 -0.2882 -0.1825 -0.0962
19744TIP3    H180647   6.531   4.206   5.574 -0.8266 -1.4663 -1.3019
19744TIP3    H280648   6.438   4.090   5.602 -2.9461  0.7250  1.2668
19745TIP3   OH280649   1.224   2.226   2.771  0.7887 -0.3568  0.2853
19745TIP3    H180650   1.159   2.229   2.701 -0.6265 -0.7656  1.5480
19745TIP3    H280651   1.197   2.293   2.833  1.4521 -0.6653  0.9271
19746TIP3   OH280652   3.166   2.678   4.737  0.2111  0.1019 -0.1914
19746TIP3    H180653   3.105   2.697   4.665 -1.1895 -1.1586  0.6030
19746TIP3    H280654   3.204   2.763   4.760 -1.7880  1.0708 -0.2695
19747TIP3   OH280655   0.632   4.426  13.138  0.2009  0.2000 -0.0193
19747TIP3    H180656   0.648   4.351  13.195 -0.9909 -0.5674 -0.6550
19747TIP3    H280657   0.711   4.435  13.085  0.8125  0.1355  0.8632
19748TIP3   OH280658   5.445   4.249   5.369  0.0123 -0.0554 -0.0381
19748TIP3    H180659   5.355   4.280   5.382  0.7650  1.8351  1.0676
19748TIP3    H280660   5.435   4.160   5.335 -2.2832  0.8156 -1.9125
19749TIP3   OH280661   2.812   0.225  11.905  0.0428  0.1887 -0.4241
19749TIP3    H180662   2.856   0.207  11.822 -0.4994 -0.2179 -0.6228
19749TIP3    H280663   2.848   0.160  11.966  0.0827  0.1759 -0.4612
19750TIP3   OH280664   5.785   0.198  10.966  0.2208 -0.2910 -0.4646
19750TIP3    H180665   5.814   0.281  11.004 -1.3152 -0.2504  0.7330
19750TIP3    H280666   5.833   0.191  10.884  0.7613  1.5381 -0.3499
19751TIP3   OH280667   1.837   4.809   0.142 -0.2063  0.3669 -0.4442
19751TIP3    H180668   1.816   4.724   0.103  1.6759 -0.0313 -0.7179
19751TIP3    H280669   1.849   4.867   0.067  1.5037  0.0828 -0.4322
19752TIP3   OH280670   1.983   4.410   5.775  0.1653  0.3431  0.9130
19752TIP3    H180671   1.935   4.383   5.696  1.7227  2.2807 -0.8315
19752TIP3    H280672   2.066   4.363   5.769  0.8519  1.5624  0.5894
19753TIP3   OH280673   5.543   3.028  12.265 -0.5072  0.8611 -0.0030
19753TIP3    H180674   5.512   2.938  12.257  0.1254  0.5938  0.4631
19753TIP3    H280675   5.472   3.081  12.230 -1.0105  0.1998 -0.0045
19754TIP3   OH280676   1.303   5.520  16.946 -0.1262  0.2628  0.2304
19754TIP3    H180677   1.391   5.492  16.922 -0.6888 -0.1016 -1.5774
19754TIP3    H280678   1.313   5.610  16.976  0.9256  0.0562  0.5305
19755TIP3   OH280679   4.786   5.931   0.939  0.7326 -0.2831 -0.1562
19755TIP3    H180680   4.838   6.001   0.900 -1.6091  0.7396 -1.6991
19755TIP3    H280681   4.801   5.940   1.033  0.1338  2.7019 -0.2390
19756TIP3   OH280682   4.383   5.829   1.617 -0.4406  0.4622  0.2263
19756TIP3    H180683   4.402   5.766   1.548 -0.5319 -0.9012  1.3941
19756TIP3    H280684   4.299   5.799   1.653  0.9362 -0.6024  2.7691
19757TIP3   OH280685   5.540   2.453  11.797  0.2345 -0.2062  0.1541
19757TIP3    H180686   5.534   2.406  11.715  2.4143  0.7403 -0.6321
19757TIP3    H280687   5.452   2.486  11.813 -0.4886 -1.4253 -1.1638
19758TIP3   OH280688   0.172   1.623   2.834 -0.2933 -0.3679  0.6868
19758TIP3    H180689   0.151   1.575   2.914  0.7122 -0.5605  0.8511
19758TIP3    H280690   0.242   1.684   2.861  0.1364 -0.5163 -0.0613
19759TIP3   OH280691   2.976   6.207  13.099 -0.8311  0.1348 -0.1013
19759TIP3    H180692   2.926   6.259  13.034 -0.4238  0.1566 -0.3979
19759TIP3    H280693   2.927   6.125  13.106 -1.4739  0.5432  0.3585
19760TIP3   OH280694   5.339   6.541  11.327 -0.3328 -0.0845 -0.7157
19760TIP3    H180695   5.291   6.477  11.275  0.6938 -2.2884  0.8854
19760TIP3    H280696   5.272   6.584  11.381 -0.8882 -0.9052 -0.7373
19761TIP3   OH280697   0.719   1.144   3.985  0.2173 -1.0332  0.1640
19761TIP3    H180698   0.799   1.102   4.016  0.0299 -0.4628  1.4940
19761TIP3    H280699   0.729   1.147   3.890  1.8658 -0.7962  0.3085
19762TIP3   OH280700   4.951   2.499   3.615  0.5099 -0.3644 -0.4769
19762TIP3    H180701   4.949   2.556   3.538 -2.8309  1.4064  0.7034
19762TIP3    H280702   5.041   2.467   3.619  1.8192  2.5219 -2.8795
19763TIP3   OH280703   1.281   0.539   2.633 -0.1241  0.0081 -0.1865
19763TIP3    H180704   1.296   0.629   2.664 -0.0743  0.8234 -2.3615
19763TIP3    H280705   1.187   0.535   2.618 -0.1661 -0.4058  0.1995
19764TIP3   OH280706   5.102   4.479   4.554  0.8682 -0.1931  0.3447
19764TIP3    H180707   5.030   4.513   4.502 -1.0381 -1.0121  2.3146
19764TIP3    H280708   5.162   4.552   4.564 -0.6056  1.0768  0.1884
19765TIP3   OH280709   0.972   4.070   5.991 -0.3494  0.1736 -0.7060
19765TIP3    H180710   1.060   4.095   6.019 -0.2069  0.2943 -1.2506
19765TIP3    H280711   0.984   3.990   5.940 -0.2598  1.3949 -2.6982
19766TIP3   OH280712   0.359   2.725  12.527 -0.1039 -0.2013  0.6688
19766TIP3    H180713   0.339   2.634  12.510 -1.2313 -0.1721  1.7271
19766TIP3    H280714   0.353   2.734  12.622  1.4379  0.6510  0.7189
19767TIP3   OH280715   1.732   5.670   3.400  0.3427 -0.1180  0.1332
19767TIP3    H180716   1.656   5.728   3.397  0.4689  0.1412  1.4263
19767TIP3    H280717   1.741   5.637   3.311 -1.0336  0.1799 -0.1333
19768TIP3   OH280718   1.165   6.432  14.616  0.1103  0.4877  0.5348
19768TIP3    H180719   1.219   6.475  14.551 -0.3134  1.8691  1.0669
19768TIP3    H280720   1.208   6.449  14.699 -0.2847  0.2282  0.7980
19769TIP3   OH280721   3.029   3.634   0.793 -0.5833  0.2435 -0.1402
19769TIP3    H180722   2.987   3.680   0.720 -1.9840  0.5142  0.8052
19769TIP3    H280723   3.038   3.544   0.763 -0.4407  0.5178 -0.9367
19770TIP3   OH280724   4.708   1.568   4.839  0.9279 -0.1954  0.0733
19770TIP3    H180725   4.781   1.516   4.870  0.0202 -1.1564  0.6707
19770TIP3    H280726   4.630   1.526   4.877 -0.0588 -0.0745 -1.6863
19771TIP3   OH280727   6.464   6.696   4.544 -0.1701 -0.1685 -0.5094
19771TIP3    H180728   6.373   6.686   4.571 -0.0904 -0.9043 -0.4880
19771TIP3    H280729   6.483   6.789   4.555 -0.9011 -0.0250 -0.4592
19772TIP3   OH280730   0.409   3.608   4.651  0.0511 -0.6609  0.3304
19772TIP3    H180731   0.477   3.540   4.645  1.2308  0.4523  0.8302
19772TIP3    H280732   0.431   3.658   4.729 -0.7606  0.3639 -0.0745
19773TIP3   OH280733   1.771   3.949  12.584  0.1685  0.2918  0.3825
19773TIP3    H180734   1.790   3.860  12.612  0.6540  0.7048  1.4204
19773TIP3    H280735   1.704   3.939  12.516  1.5750 -0.9818 -0.9076
19774TIP3   OH280736   5.239   6.105  16.380  0.5305 -0.2667  0.0954
19774TIP3    H180737   5.196   6.083  16.463 -0.7227 -0.8149 -0.6788
19774TIP3    H280738   5.167   6.125  16.320  1.4349  0.4983 -0.7745
19775TIP3   OH280739   3.642   1.004  13.305  0.2015  0.2784 -0.0960
19775TIP3    H180740   3.737   0.995  13.296  0.0497 -0.3040 -1.2735
19775TIP3    H280741   3.612   0.919  13.335  0.0434  0.4591  0.2664
19776TIP3   OH280742   1.567   3.248   6.433  0.2501  0.0440  0.5076
19776TIP3    H180743   1.527   3.186   6.372  0.6212 -0.8729  1.1697
19776TIP3    H280744   1.501   3.260   6.501  0.7105 -0.7321  1.1073
19777TIP3   OH280745   1.196   4.666   5.019  0.1494 -0.1272 -0.5320
19777TIP3    H180746   1.179   4.620   5.101  1.6105  0.7962  0.3518
19777TIP3    H280747   1.244   4.603   4.965  1.9769  0.2086  0.5986
19778TIP3   OH280748   2.265   4.265   1.167  0.4998  0.5153 -0.3052
19778TIP3    H180749   2.248   4.350   1.207  1.3833 -0.2281  1.7764
19778TIP3    H280750   2.360   4.252   1.177  0.4974 -0.4121 -1.2524
19779TIP3   OH280751   1.380   1.978   1.225 -0.1079  0.1843 -0.8614
19779TIP3    H180752   1.435   2.056   1.234 -0.2884  0.3186 -0.9079
19779TIP3    H280753   1.312   1.989   1.291 -1.8891  1.5489 -2.7856
19780TIP3   OH280754   2.602   4.092   4.729 -0.3208 -0.3214 -0.3008
19780TIP3    H180755   2.685   4.058   4.694  0.3478  2.1348 -1.3044
19780TIP3    H280756   2.538   4.070   4.661 -0.0272 -0.1518 -0.6391
19781TIP3   OH280757   4.358   0.944  13.279  0.3082  0.2808  0.3360
19781TIP3    H180758   4.398   0.874  13.228  1.2400  0.2990  1.0220
19781TIP3    H280759   4.428   1.008  13.291  0.1196  0.2542  1.6651
19782TIP3   OH280760   4.722   5.972  11.033  0.2136  0.0251  0.3733
19782TIP3    H180761   4.757   6.049  11.077  1.0115 -0.4946  0.6821
19782TIP3    H280762   4.787   5.952  10.965  0.4449 -0.8527  0.8355
19783TIP3   OH280763   1.923   0.813  13.130  0.6656  0.2070 -0.0275
19783TIP3    H180764   1.900   0.779  13.044 -0.7955  1.0191  0.0008
19783TIP3    H280765   2.015   0.839  13.123  0.6235  0.0508 -1.2709
19784TIP3   OH280766   6.392   4.973  11.826  0.2618 -0.2924  0.3236
19784TIP3    H180767   6.391   5.067  11.846  1.2822 -0.4962  1.4997
19784TIP3    H280768   6.302   4.951  11.806 -0.1247  0.7912  0.8108
19785TIP3   OH280769   2.042   4.890   4.000 -0.6071  0.1344 -0.4232
19785TIP3    H180770   2.129   4.850   3.992  0.0302  1.5661 -0.9391
19785TIP3    H280771   2.043   4.934   4.085 -1.0452 -0.2908 -0.1880
19786TIP3   OH280772   6.714   4.802   3.645  0.1529 -0.7074  0.0990
19786TIP3    H180773   6.663   4.723   3.627  0.4228 -0.8414 -0.0763
19786TIP3    H280774   6.790   4.771   3.694  1.0100 -0.7622 -1.2191
19787TIP3   OH280775   1.786   3.849  13.512 -0.1564 -0.3316  0.3491
19787TIP3    H180776   1.793   3.787  13.584  1.4871 -2.8393 -1.7771
19787TIP3    H280777   1.840   3.924  13.539 -1.0788 -0.3560  2.4130
19788TIP3   OH280778   5.741   0.807  11.143  0.0892  0.1167  0.1025
19788TIP3    H180779   5.800   0.807  11.217 -2.4768  0.2381  2.3116
19788TIP3    H280780   5.730   0.900  11.121  0.2876  0.1279  0.0511
19789TIP3   OH280781   4.059   6.226   1.143 -0.1060  0.1061 -0.1022
19789TIP3    H180782   4.092   6.165   1.208  2.2568  0.4960 -0.8293
19789TIP3    H280783   3.992   6.177   1.095 -0.2044 -0.9570  1.0641
19790TIP3   OH280784   0.256   2.588   4.860 -0.5931  0.0253 -0.7282
19790TIP3    H180785   0.338   2.631   4.836  0.3814 -2.0480 -1.3565
19790TIP3    H280786   0.282   2.522   4.924 -1.5929 -1.3499 -1.6974
19791TIP3   OH280787   6.724   5.150  15.022  0.0785 -0.2592  0.0514
19791TIP3    H180788   6.807   5.182  15.060 -0.8966 -0.0829  2.1584
19791TIP3    H280789   6.700   5.218  14.959  1.3632 -0.1499 -0.3608
19792TIP3   OH280790   5.673   2.781  11.182 -0.4307 -0.2662  0.0577
19792TIP3    H180791   5.736   2.712  11.203  0.6845  0.2756 -1.2581
19792TIP3    H280792   5.688   2.798  11.088 -2.2317  0.2172 -0.1717
19793TIP3   OH280793   1.980   3.601   5.886 -0.6482  0.6836  0.1286
19793TIP3    H180794   1.894   3.594   5.929 -1.2032  0.5986 -0.9674
19793TIP3    H280795   2.028   3.664   5.940 -0.5108 -1.0722  2.1477
19794TIP3   OH280796   5.125   5.924   4.025 -0.2852 -0.4762 -0.0723
19794TIP3    H180797   5.169   5.999   4.064  0.6288 -1.3637  0.6568
19794TIP3    H280798   5.123   5.944   3.931  0.6661  0.1051  0.0156
19795TIP3   OH280799   3.630   2.440   1.355 -0.1268  0.4289  0.3245
19795TIP3    H180800   3.599   2.466   1.268  2.9405 -1.3560 -1.4705
19795TIP3    H280801   3.670   2.520   1.390  1.9296  0.3898 -1.6277
19796TIP3   OH280802   3.658   4.756   1.726 -0.3960  0.3965 -0.7394
19796TIP3    H180803   3.742   4.788   1.757  0.1748 -0.7360 -1.0672
19796TIP3    H280804   3.603   4.753   1.805  0.4695 -0.6979 -0.1592
19797TIP3   OH280805   2.326   0.660   5.000  0.5979  0.7504  0.1787
19797TIP3    H180806   2.384   0.713   4.944  0.5543 -0.2340 -0.8440
19797TIP3    H280807   2.271   0.724   5.044  1.6784  1.6494  0.2817
19798TIP3   OH280808   1.958   2.824  12.880 -0.0702 -0.5313 -0.3058
19798TIP3    H180809   1.896   2.873  12.934  0.1564 -1.0463  0.4492
19798TIP3    H280810   2.043   2.863  12.900  0.2900 -1.9924  1.2764
19799TIP3   OH280811   4.540   3.250   3.250  0.2300 -0.6256  0.3484
19799TIP3    H180812   4.628   3.289   3.253  0.6444 -1.5613  0.4682
19799TIP3    H280813   4.505   3.277   3.165  0.6979 -0.4039  0.2247
19800TIP3   OH280814   6.745   5.996  10.786 -0.3758 -0.2100 -0.1030
19800TIP3    H180815   6.686   6.051  10.734 -0.9844  2.7691  3.3716
19800TIP3    H280816   6.833   6.023  10.759 -0.6055 -0.6486 -1.3626
19801TIP3   OH280817   4.592   1.919   2.132  0.5863  0.1322 -0.1838
19801TIP3    H180818   4.547   2.003   2.143  2.6119  1.1170  1.2728
19801TIP3    H280819   4.633   1.924   2.046 -0.9905 -0.2847 -1.0027
19802TIP3   OH280820   2.684   1.887  16.336  0.5886 -1.2206 -0.4002
19802TIP3    H180821   2.753   1.932  16.386  1.7585 -1.0403 -2.0850
19802TIP3    H280822   2.610   1.884  16.396  1.7277 -0.5101  1.1388
19803TIP3   OH280823   0.951   0.994   5.125  0.8959  0.0700  0.3847
19803TIP3    H180824   1.029   1.049   5.136 -0.2905  2.1908 -1.1853
19803TIP3    H280825   0.966   0.949   5.042  1.3149 -1.1569  1.0878
19804TIP3   OH280826   2.387   2.926   3.408 -0.3396 -0.3367  0.0825
19804TIP3    H180827   2.337   2.944   3.327 -1.7126  3.5435  1.5320
19804TIP3    H280828   2.325   2.881   3.464 -0.8024  0.5643  0.3230
19805TIP3   OH280829   4.503   0.691   1.991 -0.7350 -0.1306  0.0785
19805TIP3    H180830   4.508   0.713   1.898 -0.9545 -0.5201 -0.0314
19805TIP3    H280831   4.493   0.595   1.991  0.4515 -0.2656  0.5398
19806TIP3   OH280832   1.355   2.141   5.008 -0.0574 -0.4722  0.0178
19806TIP3    H180833   1.293   2.158   5.079  0.4644 -1.1457  0.6541
19806TIP3    H280834   1.438   2.175   5.041  0.0273 -0.0394 -0.6223
19807TIP3   OH280835   4.868   2.676   0.639  0.4145 -0.3423  0.4900
19807TIP3    H180836   4.903   2.743   0.697  0.8928 -1.8633  2.0482
19807TIP3    H280837   4.874   2.714   0.551  2.1520  1.0146  1.1444
19808TIP3   OH280838   5.928   2.059   2.554  0.0308 -0.3253 -0.5483
19808TIP3    H180839   5.929   2.067   2.649 -0.3913  1.0064 -0.6302
19808TIP3    H280840   5.964   1.972   2.536  0.1680 -0.5654  0.8170
19809TIP3   OH280841   6.282   6.217  13.209 -0.2217  0.0156 -0.1222
19809TIP3    H180842   6.331   6.290  13.172  0.4053 -0.3268  0.0208
19809TIP3    H280843   6.279   6.152  13.139 -0.2722 -0.0560 -0.0538
19810TIP3   OH280844   6.427   4.173   2.241  0.2650  0.3626 -0.0213
19810TIP3    H180845   6.360   4.235   2.271 -0.4681 -0.2822 -0.3021
19810TIP3    H280846   6.428   4.182   2.146  1.0860  0.8726  0.0245
19811TIP3   OH280847   1.539   0.135  16.989  0.1948  0.5477  0.0440
19811TIP3    H180848   1.458   0.084  16.981  2.1045 -2.4226 -3.4233
19811TIP3    H280849   1.576   0.107  17.073 -0.8278 -0.6301  0.1407
19812TIP3   OH280850   1.887   1.908  12.655 -0.1533 -0.7818 -0.5254
19812TIP3    H180851   1.876   2.000  12.682 -0.0196 -0.9162 -0.0008
19812TIP3    H280852   1.944   1.871  12.722 -1.5045 -1.6722  0.1795
19813TIP3   OH280853   3.206   0.868  15.455 -0.0583  0.5851  0.1544
19813TIP3    H180854   3.213   0.953  15.497 -1.7184  1.8313 -1.8614
19813TIP3    H280855   3.115   0.842  15.468 -0.1965  0.2766 -1.2493
19814TIP3   OH280856   4.338   4.721   3.697  0.5290 -0.1205  0.3368
19814TIP3    H180857   4.334   4.764   3.612 -0.2784  0.5770  0.7097
19814TIP3    H280858   4.264   4.660   3.697 -0.4886  1.0663  1.1393
19815TIP3   OH280859   4.253   5.528   5.798  0.0050  0.0978 -0.3495
19815TIP3    H180860   4.184   5.546   5.734  0.5281 -0.1574 -0.9905
19815TIP3    H280861   4.298   5.451   5.764  0.2217 -0.1135  0.3881
19816TIP3   OH280862   5.345   3.780  16.373  0.1724  0.4693  0.4782
19816TIP3    H180863   5.342   3.873  16.393  1.0434  0.1948  2.0302
19816TIP3    H280864   5.255   3.758  16.349 -0.4448  1.3300  1.9046
19817TIP3   OH280865   2.473   4.218  11.681 -0.7461 -0.0055 -0.0677
19817TIP3    H180866   2.501   4.255  11.765 -3.2570  3.3605 -0.5241
19817TIP3    H280867   2.544   4.239  11.620 -0.6625  1.1660  0.4076
19818TIP3   OH280868   1.281   2.936  16.262  0.1888 -0.5209 -0.3487
19818TIP3    H180869   1.346   2.955  16.194  0.6364 -0.4729  0.0907
19818TIP3    H280870   1.333   2.912  16.339 -0.3096 -0.4036  0.0272
19819TIP3   OH280871   6.333   3.506   3.938  0.2032 -1.0082  0.0477
19819TIP3    H180872   6.354   3.479   4.027 -0.1978 -1.8682 -0.1132
19819TIP3    H280873   6.414   3.547   3.906 -0.6840  2.8145  2.0571
19820TIP3   OH280874   5.090   6.749   4.303 -0.4025  0.2519 -0.8315
19820TIP3    H180875   5.070   6.794   4.385 -2.3862  1.5043 -1.9009
19820TIP3    H280876   5.076   6.657   4.321  1.0746  0.2853  0.7080
19821TIP3   OH280877   5.693   5.914  12.483 -0.1412  0.5177 -0.1678
19821TIP3    H180878   5.699   5.827  12.522 -0.3350  0.5020 -0.1695
19821TIP3    H280879   5.599   5.932  12.480 -0.1509  0.4045 -0.8798
19822TIP3   OH280880   3.539   4.298   2.530  0.3384  0.5143 -0.1444
19822TIP3    H180881   3.465   4.272   2.476  0.4395  0.3475 -0.2026
19822TIP3    H280882   3.502   4.310   2.618  0.4800 -0.8900  0.1296
19823TIP3   OH280883   4.338   3.568  15.874  0.2165  0.2800 -0.0676
19823TIP3    H180884   4.392   3.489  15.876 -0.2994 -0.0788 -0.0867
19823TIP3    H280885   4.359   3.614  15.955  1.0662  0.4990 -0.4002
19824TIP3   OH280886   4.089   3.543  15.451  0.5120 -0.2086  0.2084
19824TIP3    H180887   4.019   3.576  15.395 -0.6762 -3.2306 -0.3138
19824TIP3    H280888   4.047   3.529  15.536  0.9926 -0.2319  0.4455
19825TIP3   OH280889   1.430   6.711  13.026 -0.1169  0.6153  0.0022
19825TIP3    H180890   1.459   6.682  13.113 -3.1039  2.8134  1.9367
19825TIP3    H280891   1.403   6.630  12.982  0.9071 -0.5036  1.3153
19826TIP3   OH280892   2.086   5.219   5.291  0.2705 -0.3011 -0.4895
19826TIP3    H180893   2.147   5.152   5.261 -0.2000 -1.1688  0.4328
19826TIP3    H280894   2.141   5.288   5.327  0.7276 -0.8193 -0.1850
19827TIP3   OH280895   5.883   2.917   3.248 -0.1980 -0.0269 -0.2076
19827TIP3    H180896   5.971   2.896   3.280  0.6705  1.1786 -1.6588
19827TIP3    H280897   5.897   2.953   3.160 -1.9257  2.0479  0.2649
19828TIP3   OH280898   5.433   3.738   3.489 -0.3484  0.2209  0.1102
19828TIP3    H180899   5.372   3.716   3.419  0.0741  1.8043 -0.8250
19828TIP3    H280900   5.516   3.701   3.461 -0.8060 -1.9313  1.3821
19829TIP3   OH280901   6.283   4.001  11.589  0.1714 -0.2338 -0.1404
19829TIP3    H180902   6.242   4.079  11.552  1.0992 -0.2071 -1.1491
19829TIP3    H280903   6.330   3.961  11.516  3.2577  0.5744  1.2369
19830TIP3   OH280904   6.099   2.002  14.616 -0.2427 -0.5519  0.1361
19830TIP3    H180905   6.192   2.020  14.628  0.0131 -1.5879 -0.1831
19830TIP3    H280906   6.064   1.996  14.704 -0.2695  1.0402  0.2641
19831TIP3   OH280907   0.440   3.017  14.521 -0.6762 -0.1082  0.3682
19831TIP3    H180908   0.346   2.999  14.525 -0.1312 -3.4476  3.3662
19831TIP3    H280909   0.476   2.946  14.468  0.3516 -0.2210  1.1798
19832TIP3   OH280910   2.745   5.766  12.538 -0.3589  0.2017 -0.2693
19832TIP3    H180911   2.713   5.746  12.626  0.0969  0.9472  0.0740
19832TIP3    H280912   2.666   5.790  12.489 -0.7585 -1.1844 -0.3691
19833TIP3   OH280913   1.689   0.535  14.239 -0.2047 -0.3667 -0.6172
19833TIP3    H180914   1.763   0.477  14.259  0.0747 -0.0850 -0.8146
19833TIP3    H280915   1.632   0.528  14.316  0.3073 -0.1555 -0.2055
19834TIP3   OH280916   1.363   0.421   1.093 -0.2126  0.0168 -0.0214
19834TIP3    H180917   1.284   0.383   1.132  0.3520 -1.5128 -0.2696
19834TIP3    H280918   1.375   0.504   1.139 -1.4433 -0.1616  0.6705
19835TIP3   OH280919   1.639   1.704  17.091  0.5900 -0.7181 -0.4299
19835TIP3    H180920   1.585   1.782  17.103  0.7272 -0.7661  0.6032
19835TIP3    H280921   1.621   1.650  17.168  2.3807 -0.5568  0.1628
19836TIP3   OH280922   0.816   6.453  13.717 -0.1408 -0.1352  0.5213
19836TIP3    H180923   0.902   6.493  13.703  0.3329 -1.3939 -0.4032
19836TIP3    H280924   0.756   6.506  13.665  0.1347  0.5028  0.8387
19837TIP3   OH280925   4.444   4.925  10.843 -0.4269  0.8403 -0.0393
19837TIP3    H180926   4.462   4.836  10.816  1.7808  0.6040  1.8491
19837TIP3    H280927   4.371   4.954  10.788  0.2197 -1.3548 -2.1675
19838TIP3   OH280928   4.172   2.477   5.425  0.3839  0.6865  0.1910
19838TIP3    H180929   4.118   2.448   5.352  0.2349 -2.1531  1.2809
19838TIP3    H280930   4.109   2.509   5.490  0.2673  0.3667  0.2366
19839TIP3   OH280931   6.290   3.349  15.815  0.1467 -0.2316  0.1665
19839TIP3    H180932   6.223   3.368  15.880  0.9581 -0.3792  1.0790
19839TIP3    H280933   6.371   3.383  15.854  1.2689 -3.3674  0.8379
19840TIP3   OH280934   0.189   4.643   4.405  0.0432  0.1835 -0.1527
19840TIP3    H180935   0.142   4.561   4.417 -0.1218  0.5071  1.7077
19840TIP3    H280936   0.124   4.703   4.367  0.0955 -0.4396 -1.2794
19841TIP3   OH280937   5.414   0.620  15.535  0.4500 -0.0467 -0.2777
19841TIP3    H180938   5.353   0.693  15.542  0.0822 -0.3214 -0.5722
19841TIP3    H280939   5.480   0.637  15.602  0.9147  1.0666 -0.9950
19842TIP3   OH280940   6.277   5.558  12.147  0.4100  0.0192  0.1475
19842TIP3    H180941   6.210   5.536  12.212 -0.6088  1.3735 -0.4085
19842TIP3    H280942   6.337   5.484  12.149 -0.4866 -0.7103  1.4703
19843TIP3   OH280943   2.982   2.186   4.135  0.3594 -0.1868 -0.6066
19843TIP3    H180944   2.998   2.260   4.194  0.6627 -0.5896 -0.1744
19843TIP3    H280945   2.971   2.226   4.049  0.7100  0.3517 -0.4086
19844TIP3   OH280946   4.514   4.214   1.703  0.6117  0.1006 -0.1257
19844TIP3    H180947   4.455   4.141   1.683 -0.6886  1.1234 -0.1224
19844TIP3    H280948   4.494   4.236   1.794  2.7560 -1.0974  0.7179
19845TIP3   OH280949   0.045   1.776   6.513  0.6535  0.7492  0.3033
19845TIP3    H180950  -0.018   1.754   6.443 -0.9967  0.1735  1.8878
19845TIP3    H280951   0.005   1.850   6.559  2.0433  1.5495  0.2549
19846TIP3   OH280952   2.971   0.781  15.593 -0.2928  0.2465 -0.1781
19846TIP3    H180953   2.974   0.786  15.688  0.5391  1.9855 -0.2472
19846TIP3    H280954   2.902   0.842  15.568  1.4772  2.1065 -0.7564
19847TIP3   OH280955   1.623   5.533   4.783 -0.2482  0.2400  0.3325
19847TIP3    H180956   1.558   5.465   4.800  0.7789 -1.4999 -2.0868
19847TIP3    H280957   1.571   5.612   4.764 -1.5349 -0.4297  0.9194
19848TIP3   OH280958   3.390   5.863  15.875 -0.1172 -0.5514 -0.0497
19848TIP3    H180959   3.470   5.842  15.826 -0.3085 -1.6642  0.0900
19848TIP3    H280960   3.404   5.953  15.906  0.6371 -0.3663 -0.8924
19849TIP3   OH280961   6.361   1.432  12.927  0.0511  0.1147 -0.0946
19849TIP3    H180962   6.451   1.462  12.940  0.1095 -0.1450  0.0969
19849TIP3    H280963   6.348   1.365  12.994 -0.9435  1.5408  1.1963
19850TIP3   OH280964   3.698   3.750  15.477  0.4892 -0.3089  0.3345
19850TIP3    H180965   3.612   3.792  15.482  0.8702  0.5689 -0.2506
19850TIP3    H280966   3.734   3.758  15.565  0.0770 -0.4575  0.5194
19851TIP3   OH280967   3.137   0.779   6.035 -0.4041  0.0729 -0.0554
19851TIP3    H180968   3.175   0.813   6.116  0.2333 -2.7254  0.9515
19851TIP3    H280969   3.046   0.809   6.037  0.4618  3.0114 -0.1805
19852TIP3   OH280970   3.445   0.715   4.794  0.5017  0.1085  0.7004
19852TIP3    H180971   3.506   0.785   4.774 -0.2343  0.1974 -1.4713
19852TIP3    H280972   3.358   0.756   4.788  0.0521 -1.0131 -0.8647
19853TIP3   OH280973   4.190   5.664   3.805 -0.0017 -0.6977  0.0912
19853TIP3    H180974   4.272   5.614   3.803  0.4414  0.0424 -0.6780
19853TIP3    H280975   4.170   5.672   3.899  0.1868 -1.8563  0.2475
19854TIP3   OH280976   0.808   6.013   1.772 -0.2881  0.3251  0.5650
19854TIP3    H180977   0.818   5.936   1.827 -1.3353 -0.5649 -0.4158
19854TIP3    H280978   0.770   5.979   1.691 -2.3354  2.0737  0.7010
19855TIP3   OH280979   5.249   0.827   2.708 -0.2432  0.0321 -0.0455
19855TIP3    H180980   5.174   0.886   2.704 -0.7180 -0.3051  2.4535
19855TIP3    H280981   5.251   0.786   2.622  0.2239  3.7044 -2.0179
19856TIP3   OH280982   6.263   2.170  16.865  0.2341  0.8036  0.1587
19856TIP3    H180983   6.318   2.127  16.930 -1.1058  0.0448  0.8273
19856TIP3    H280984   6.174   2.162  16.899 -0.4516  0.8773 -1.5015
19857TIP3   OH280985   0.637   5.189  14.703 -0.1328  0.0139 -0.1237
19857TIP3    H180986   0.557   5.154  14.743 -0.2801 -0.2289 -0.6163
19857TIP3    H280987   0.615   5.195  14.610  0.4320 -0.0695 -0.2618
19858TIP3   OH280988   0.812   0.704  11.597  0.3685  0.3202  0.1828
19858TIP3    H180989   0.837   0.727  11.508  0.9117  2.9825  0.9077
19858TIP3    H280990   0.833   0.611  11.606  2.6452  0.5846 -1.6929
19859TIP3   OH280991   4.058   0.324  16.863  0.3490 -0.1248 -0.5651
19859TIP3    H180992   4.067   0.328  16.767 -2.5677 -0.0149 -0.9233
19859TIP3    H280993   3.965   0.335  16.879  0.9655  1.8303  2.4600
19860TIP3   OH280994   5.729   0.238   1.607 -0.4974  0.1332  0.4012
19860TIP3    H180995   5.658   0.270   1.664 -2.3727  0.1834 -1.8100
19860TIP3    H280996   5.749   0.312   1.550 -1.6023 -1.0639 -1.6846
19861TIP3   OH280997   6.277   4.394   0.634  0.2586 -1.0403 -0.0465
19861TIP3    H180998   6.196   4.435   0.604  0.9296  0.7833  0.5392
19861TIP3    H280999   6.248   4.328   0.698 -0.7491 -0.1647  0.4272
19862TIP3   OH281000   1.501   4.924   2.318 -0.2879  0.8020  0.1460
19862TIP3    H181001   1.458   5.000   2.279  1.2600  2.0861  0.8528
19862TIP3    H281002   1.593   4.931   2.291  0.0717 -0.3182  0.9759
19863TIP3   OH281003   6.107   2.843  12.420  0.4845 -0.0721  0.2456
19863TIP3    H181004   6.142   2.932  12.429 -0.1563  0.0484  1.7646
19863TIP3    H281005   6.046   2.850  12.346  0.2861  0.8056  0.4753
19864TIP3   OH281006   3.275   1.018   2.863 -0.4451 -0.6478  0.3009
19864TIP3    H181007   3.197   1.061   2.898  1.0580  1.2887  1.4338
19864TIP3    H281008   3.252   0.997   2.772 -2.0909  0.3535  0.4494
19865TIP3   OH281009   6.406   0.376  11.451  0.0436  0.0703  0.9654
19865TIP3    H181010   6.380   0.445  11.390  1.1445 -1.8713 -1.8787
19865TIP3    H281011   6.324   0.335  11.477 -0.4261  0.6834  0.4993
19866TIP3   OH281012   4.995   4.451  14.416 -0.5054  0.3605 -0.1153
19866TIP3    H181013   5.084   4.421  14.434 -0.1404 -1.0010 -3.3856
19866TIP3    H281014   4.993   4.541  14.449  1.9002  0.2572  0.5404
19867TIP3   OH281015   5.863   2.726  15.533 -0.3094  0.4117 -0.1196
19867TIP3    H181016   5.787   2.742  15.589  0.2576 -0.5450  0.9688
19867TIP3    H281017   5.858   2.632  15.512  1.6880 -0.2243  1.7833
19868TIP3   OH281018   0.722   1.989   0.646  0.2196 -0.2210  1.0148
19868TIP3    H181019   0.814   1.964   0.647  0.2462 -0.3586  3.6505
19868TIP3    H281020   0.691   1.964   0.559  3.2834  2.5562 -1.1272
19869TIP3   OH281021   5.463   6.579  16.980 -0.0913  0.0905 -0.7496
19869TIP3    H181022   5.497   6.628  17.056 -0.7064  0.7305 -0.8774
19869TIP3    H281023   5.539   6.571  16.922  0.3511 -0.2837 -0.1374
19870TIP3   OH281024   2.445   0.107   1.789 -0.4217 -0.0918  0.1633
19870TIP3    H181025   2.493   0.052   1.850  0.3722  1.2631  0.8146
19870TIP3    H281026   2.471   0.197   1.812 -0.8210  0.5089 -1.5627
19871TIP3   OH281027   6.777   3.242  12.394 -0.0093 -0.1321 -0.2711
19871TIP3    H181028   6.842   3.295  12.347 -1.3707 -1.3594 -3.8925
19871TIP3    H281029   6.818   3.224  12.478  2.7542  2.1722 -0.9487
19872TIP3   OH281030   1.522   4.477  17.026 -0.1945 -0.1406  0.0162
19872TIP3    H181031   1.497   4.403  16.971  1.0257 -0.9253  0.4662
19872TIP3    H281032   1.440   4.523  17.044 -0.9623 -1.3138 -0.3828
19873TIP3   OH281033   4.023   3.434   5.591  0.3077  0.2114  0.3767
19873TIP3    H181034   3.992   3.424   5.501 -0.0330 -1.3275  0.6309
19873TIP3    H281035   4.108   3.477   5.583  0.1358  0.3675 -0.6570
19874TIP3   OH281036   0.764   5.385  16.442  0.3214 -0.2242 -0.1326
19874TIP3    H181037   0.797   5.382  16.532 -0.9613  1.7382  0.4798
19874TIP3    H281038   0.670   5.397  16.451  0.2508  0.7446 -1.7208
19875TIP3   OH281039   6.008   2.534  14.293 -0.1418 -0.3794 -0.4758
19875TIP3    H181040   6.003   2.462  14.356 -0.7222 -0.8482 -1.0315
19875TIP3    H281041   5.950   2.601  14.329  0.4274 -0.1709  0.0633
19876TIP3   OH281042   6.453   1.074   2.103  0.2515 -0.3660  0.3931
19876TIP3    H181043   6.478   1.041   2.189  1.4441  0.9793  0.6111
19876TIP3    H281044   6.515   1.033   2.043 -1.1493 -2.0149  0.0040
19877TIP3   OH281045   2.109   2.901  15.507 -0.7644  0.5221 -0.2774
19877TIP3    H181046   2.055   2.821  15.510  1.8271 -1.3075  1.3087
19877TIP3    H281047   2.085   2.942  15.424 -2.4503 -1.7361 -1.0149
19878TIP3   OH281048   5.860   3.288   4.269  0.3329  0.2868 -0.1029
19878TIP3    H181049   5.814   3.354   4.321  1.7132 -0.0270  1.6295
19878TIP3    H281050   5.867   3.326   4.182 -2.8049  0.4922 -0.3657
19879TIP3   OH281051   0.272   0.923   0.831  0.1209  0.5012 -0.0686
19879TIP3    H181052   0.315   0.871   0.763 -0.3405 -0.3410  0.2592
19879TIP3    H281053   0.184   0.940   0.795  0.0714  0.5451  0.0741
19880TIP3   OH281054   4.825   4.686   5.824  0.6152 -0.2594 -0.5721
19880TIP3    H181055   4.902   4.744   5.819  1.7371 -1.6909 -0.6371
19880TIP3    H281056   4.780   4.714   5.903  1.6171  0.1404 -0.1161
19881TIP3   OH281057   4.132   0.702  13.646 -0.5237 -0.4222 -0.3197
19881TIP3    H181058   4.124   0.753  13.726  1.4437 -0.5008 -0.0339
19881TIP3    H281059   4.143   0.612  13.676 -1.7780 -0.7531 -0.7661
19882TIP3   OH281060   6.031   6.424  12.467  0.9414  0.1252 -0.1498
19882TIP3    H181061   6.094   6.360  12.500  0.0489 -1.0637 -0.7147
19882TIP3    H281062   5.946   6.385  12.482  0.4444  0.3319 -2.2008
19883TIP3   OH281063   2.593   1.356  14.911 -0.5953  0.9097 -0.6273
19883TIP3    H181064   2.508   1.312  14.902 -0.0800 -0.3642  0.4398
19883TIP3    H281065   2.625   1.330  14.998  1.8536 -0.4561 -1.8103
19884TIP3   OH281066   3.966   3.108  16.654 -0.4466  0.2973  0.0466
19884TIP3    H181067   3.889   3.085  16.705 -0.9231  0.6793 -0.4825
19884TIP3    H281068   4.031   3.135  16.719 -0.8643  0.2726  0.4764
19885TIP3   OH281069   4.324   3.443  15.515  0.0181  0.0880 -0.8453
19885TIP3    H181070   4.265   3.507  15.475 -1.1578 -0.2591  0.2424
19885TIP3    H281071   4.271   3.363  15.523  1.6473 -1.2903 -2.7806
19886TIP3   OH281072   0.643   5.086   5.892  0.6958  0.1652 -0.9395
19886TIP3    H181073   0.635   5.054   5.982  0.3924 -2.2386 -1.7417
19886TIP3    H281074   0.553   5.099   5.863  0.7418 -0.2079 -1.2578
19887TIP3   OH281075   2.799   2.986   2.595  0.1890 -0.0558 -0.3007
19887TIP3    H181076   2.737   2.970   2.666  1.8067 -2.9616  0.6068
19887TIP3    H281077   2.817   3.080   2.601 -2.1405  0.3947  1.0103
19888TIP3   OH281078   5.304   6.576   4.554  0.5069  0.7195 -0.4953
19888TIP3    H181079   5.306   6.508   4.487 -0.8929  0.3189 -0.1611
19888TIP3    H281080   5.372   6.639   4.527  0.9943 -0.1891 -1.4479
19889TIP3   OH281081   5.574   2.547  10.263 -0.1156  0.1859 -0.7222
19889TIP3    H181082   5.548   2.578  10.176 -0.7486 -1.1882 -1.0460
19889TIP3    H281083   5.609   2.459  10.248  0.5089  0.2415  0.3166
19890TIP3   OH281084   4.440   0.617   2.969 -0.9057 -0.0271  0.1744
19890TIP3    H181085   4.477   0.691   2.921  0.6171 -1.3897 -0.8771
19890TIP3    H281086   4.346   0.628   2.962 -0.7054  1.1247 -1.0348
19891TIP3   OH281087   1.833   4.075  12.284  0.3684  0.2411  0.1707
19891TIP3    H181088   1.758   4.035  12.330  1.0129  0.0707  1.1013
19891TIP3    H281089   1.793   4.135  12.222 -0.5522  0.1054  0.6081
19892TIP3   OH281090   1.946   4.385   3.183  0.2915 -0.2432 -0.4026
19892TIP3    H181091   1.991   4.306   3.154  1.4020 -0.0402  0.7013
19892TIP3    H281092   1.949   4.381   3.279 -0.0889  0.8809 -0.3220
19893TIP3   OH281093   1.576   3.547  15.154 -0.3975  0.3060  0.3496
19893TIP3    H181094   1.545   3.510  15.072  0.0854  0.6805 -0.0067
19893TIP3    H281095   1.667   3.519  15.161 -0.3373  0.5476  0.5904
19894TIP3   OH281096   5.540   1.444  16.909  0.2187 -0.2503 -0.6550
19894TIP3    H181097   5.584   1.529  16.908  0.5362 -0.3934  0.2479
19894TIP3    H281098   5.546   1.413  16.819  1.6830 -0.1225 -0.6211
19895TIP3   OH281099   2.485   5.825  14.832 -0.4422 -0.0822  0.6623
19895TIP3    H181100   2.573   5.792  14.847 -1.2072 -1.9149  1.3170
19895TIP3    H281101   2.427   5.752  14.854 -2.0728  0.4751 -1.4280
19896TIP3   OH281102   5.090   6.567   3.407  0.1819 -0.4499 -0.1176
19896TIP3    H181103   5.093   6.501   3.477 -1.4252 -1.3726 -0.8586
19896TIP3    H281104   5.124   6.646   3.448  1.6061 -1.5603  0.9883
19897TIP3   OH281105   0.933   6.533   4.312  0.2154 -0.1304 -0.5319
19897TIP3    H181106   0.876   6.458   4.297 -0.6971  0.6526 -1.0642
19897TIP3    H281107   0.876   6.599   4.350  1.3722 -0.2553  1.5318
19898TIP3   OH281108   4.971   4.481   3.851  0.0025 -0.7833  0.3275
19898TIP3    H181109   4.934   4.409   3.799 -1.6163 -0.1173  0.5038
19898TIP3    H281110   4.985   4.443   3.937 -1.0242 -0.8610  0.4738
19899TIP3   OH281111   0.795   2.702  14.524  0.2720  0.2168 -0.1348
19899TIP3    H181112   0.786   2.769  14.457 -0.0757 -0.2179 -0.5302
19899TIP3    H281113   0.706   2.670  14.538  0.5064 -0.5441 -0.3487
19900TIP3   OH281114   5.425   0.672   2.420 -0.0597  0.1622 -0.2385
19900TIP3    H181115   5.497   0.718   2.463  0.6248  0.8420 -1.9961
19900TIP3    H281116   5.354   0.736   2.416  0.3845  0.6091 -1.3727
19901TIP3   OH281117   3.173   0.107  11.279 -0.4012  0.2242 -0.2945
19901TIP3    H181118   3.118   0.095  11.201  1.6408  0.7287 -1.9190
19901TIP3    H281119   3.258   0.073  11.252  0.3801  0.4718  1.7458
19902TIP3   OH281120   2.305   4.295   3.118 -0.4981 -0.0800 -0.7031
19902TIP3    H181121   2.239   4.314   3.052 -0.0408 -1.3331 -1.5667
19902TIP3    H281122   2.313   4.200   3.118  2.4350  0.0603 -1.7937
19903TIP3   OH281123   1.052   3.317  12.805  0.3568  0.1090 -0.2701
19903TIP3    H181124   1.065   3.226  12.830 -1.2234 -0.0865 -0.0772
19903TIP3    H281125   1.006   3.356  12.879  1.1878  1.1333 -0.2630
19904TIP3   OH281126   5.935   6.776  16.569  0.5150 -0.1426  0.1415
19904TIP3    H181127   5.860   6.744  16.519 -0.2218  1.7836 -0.0750
19904TIP3    H281128   5.979   6.837  16.510  0.5518  0.9575  1.2562
19905TIP3   OH281129   1.371   2.778  16.040  0.4865  0.5622  0.2113
19905TIP3    H181130   1.460   2.777  16.074  0.6096 -0.0014 -0.1117
19905TIP3    H281131   1.322   2.721  16.098  0.9396 -1.2929 -1.1490
19906TIP3   OH281132   3.541   0.551  14.082 -0.1249 -0.1611  0.0997
19906TIP3    H181133   3.549   0.529  13.989  1.6647  2.3792 -0.4829
19906TIP3    H281134   3.631   0.545  14.116  0.1882  3.4656  0.3653
19907TIP3   OH281135   2.920   5.112   5.367  0.4873 -0.1605  0.0324
19907TIP3    H181136   3.013   5.098   5.383  0.5796 -0.0225 -0.3633
19907TIP3    H281137   2.917   5.164   5.287  0.0716 -0.0990  0.0848
19908TIP3   OH281138   1.407   4.311   2.958  0.3014 -0.3631 -0.4717
19908TIP3    H181139   1.479   4.351   2.910  1.4996  1.1659  2.3889
19908TIP3    H281140   1.352   4.384   2.986  0.5376 -0.9782  1.7882
19909TIP3   OH281141   3.359   0.889   1.889  0.1209 -0.2728 -0.8999
19909TIP3    H181142   3.315   0.964   1.848  0.1869 -0.0365 -0.5487
19909TIP3    H281143   3.399   0.841   1.817 -0.3358 -0.2378 -1.1780
19910TIP3   OH281144   4.046   2.049  14.104  0.0888  0.1464 -0.3869
19910TIP3    H181145   4.072   1.961  14.133 -0.7928 -0.0814 -0.2770
19910TIP3    H281146   4.087   2.058  14.017  0.5806 -0.1777 -0.1954
19911TIP3   OH281147   2.819   1.254  16.319  0.1851 -0.2355 -0.1123
19911TIP3    H181148   2.843   1.340  16.284  0.7921  0.1000  1.1031
19911TIP3    H281149   2.881   1.238  16.389 -1.1962 -0.7535  1.0401
19912TIP3   OH281150   5.553   1.383   2.166  0.3203  0.3893 -0.3567
19912TIP3    H181151   5.580   1.474   2.176 -2.8857  1.4489 -0.4502
19912TIP3    H281152   5.512   1.361   2.250 -0.6061 -0.3289 -0.9799
19913TIP3   OH281153   6.806   5.717   1.239 -0.9677 -0.2513  0.2862
19913TIP3    H181154   6.836   5.637   1.283  2.5551 -1.3693 -3.5369
19913TIP3    H281155   6.755   5.685   1.165  2.3484  0.6059 -2.6339
19914TIP3   OH281156   5.724   6.613   5.387  0.2587 -0.3066  0.0222
19914TIP3    H181157   5.663   6.598   5.459  0.3797  1.2935  0.4874
19914TIP3    H281158   5.765   6.697   5.407  1.3058 -0.4942 -1.2097
19915TIP3   OH281159   1.344   0.708   4.204  0.0199 -0.3839  0.4697
19915TIP3    H181160   1.252   0.735   4.200  0.5466  1.3886 -1.4266
19915TIP3    H281161   1.353   0.667   4.290 -1.8447  2.1096  2.0224
19916TIP3   OH281162   3.446   3.100   6.119 -0.3068 -0.1567 -0.3304
19916TIP3    H181163   3.486   3.186   6.101 -2.8586  1.3183  0.6320
19916TIP3    H281164   3.376   3.092   6.055 -0.9471 -0.9284  0.4456
19917TIP3   OH281165   5.122   0.599  14.021  0.4672 -0.0726 -0.0590
19917TIP3    H181166   5.044   0.643  13.989  0.1208  0.3594  1.2863
19917TIP3    H281167   5.089   0.522  14.068  0.7954  0.3418  0.8856
19918TIP3   OH281168   3.106   2.392  14.146 -0.2828  0.6463 -0.0192
19918TIP3    H181169   3.187   2.429  14.110  0.1370  0.7714  1.0126
19918TIP3    H281170   3.038   2.416  14.082  0.9222 -2.1775 -2.5902
19919TIP3   OH281171   4.811   6.185   5.136 -0.4634  0.5528 -0.5835
19919TIP3    H181172   4.842   6.222   5.220 -1.5193 -0.3945  0.2528
19919TIP3    H281173   4.884   6.131   5.106 -0.5342 -0.1354  0.4035
19920TIP3   OH281174   3.869   5.516  13.462  0.1295 -0.4917 -0.0291
19920TIP3    H181175   3.913   5.433  13.478 -1.3530 -1.3646 -0.2601
19920TIP3    H281176   3.890   5.570  13.539  1.4355 -0.9170 -0.0690
19921TIP3   OH281177   1.891   1.656  13.420  0.1412 -0.1750 -0.9614
19921TIP3    H181178   1.809   1.692  13.387  0.3889  0.9611 -0.4137
19921TIP3    H281179   1.874   1.563  13.432 -1.9913  0.4105  1.6852
19922TIP3   OH281180   6.329   0.409   2.862 -0.3186  0.2722  0.4967
19922TIP3    H181181   6.380   0.443   2.789  1.1325  0.5159  1.5816
19922TIP3    H281182   6.386   0.344   2.903 -1.8975 -1.3895  0.2322
19923TIP3   OH281183   3.910   3.245   0.398 -0.2451 -0.8748  0.3250
19923TIP3    H181184   3.837   3.187   0.378  0.4767 -1.1176 -1.9751
19923TIP3    H281185   3.894   3.276   0.487 -2.2478 -2.2018  0.4744
19924TIP3   OH281186   2.464   0.343  14.160  0.1079  0.2940  0.5424
19924TIP3    H181187   2.543   0.295  14.134  0.3672  0.4702  0.9987
19924TIP3    H281188   2.460   0.334  14.255 -0.2528  0.5492  0.5528
19925TIP3   OH281189   1.267   3.624  15.811  0.0394  0.0275 -0.5093
19925TIP3    H181190   1.233   3.684  15.877  0.4920  0.2374 -0.4639
19925TIP3    H281191   1.356   3.605  15.840 -1.0325 -3.1155  1.1787
19926TIP3   OH281192   1.866   6.151   1.331  0.1400 -0.2474 -0.3391
19926TIP3    H181193   1.881   6.231   1.280  0.3088  0.3464  0.6146
19926TIP3    H281194   1.771   6.148   1.342  0.2382  0.6695  0.9199
19927TIP3   OH281195   5.183   0.953  10.601 -0.0678  0.0723  0.0413
19927TIP3    H181196   5.127   1.031  10.613 -0.2735  0.1624 -1.3381
19927TIP3    H281197   5.161   0.922  10.513 -1.4334 -2.7128  1.2345
19928TIP3   OH281198   6.715   1.268   1.791  0.4933 -0.1099  0.2730
19928TIP3    H181199   6.641   1.314   1.829  0.1868  0.2665 -0.7362
19928TIP3    H281200   6.746   1.209   1.860 -0.0196  0.5644  1.0825
19929TIP3   OH281201   4.238   3.402  11.970 -0.2469  0.9521 -1.3003
19929TIP3    H181202   4.220   3.334  12.036  1.1552 -0.4253 -2.2464
19929TIP3    H281203   4.291   3.467  12.017 -0.3628  0.6471 -0.7353
19930TIP3   OH281204   1.267   3.070   4.151 -0.7834  0.7334 -0.5579
19930TIP3    H181205   1.314   3.062   4.068 -2.0592 -0.0692 -1.2328
19930TIP3    H281206   1.324   3.124   4.206  1.4316 -1.0904 -0.9311
19931TIP3   OH281207   4.560   3.118  10.945  0.4184  0.3806  0.4781
19931TIP3    H181208   4.569   3.106  11.040 -0.6233  0.7805  0.6364
19931TIP3    H281209   4.489   3.059  10.920  1.1675 -0.2709 -0.1926
19932TIP3   OH281210   4.121   3.759   4.073  0.3858  0.1329  0.4528
19932TIP3    H181211   4.116   3.699   4.147 -3.1958 -0.2202  0.0958
19932TIP3    H281212   4.054   3.728   4.012 -1.3370  4.0799  0.0223
19933TIP3   OH281213   4.159   3.988  13.814  0.5235 -0.1402 -0.0331
19933TIP3    H181214   4.252   4.006  13.824  0.2349  0.5807  1.8463
19933TIP3    H281215   4.116   4.054  13.869 -0.9992 -1.5846  0.6066
19934TIP3   OH281216   2.079   2.095   3.456 -0.1796  0.2317 -0.0808
19934TIP3    H181217   2.110   2.004   3.456  0.2825  0.3704  0.9962
19934TIP3    H281218   2.012   2.097   3.388  1.0358 -0.4746 -1.3635
19935TIP3   OH281219   6.633   5.714   3.534 -0.1254 -0.2075 -0.1151
19935TIP3    H181220   6.616   5.784   3.597  2.5729  0.6270 -0.1826
19935TIP3    H281221   6.576   5.643   3.562  1.4160 -0.1818  3.8560
19936TIP3   OH281222   4.614   0.356  11.135  0.0314 -0.4073  0.0567
19936TIP3    H181223   4.702   0.362  11.098 -0.1801 -3.9738 -1.4572
19936TIP3    H281224   4.558   0.400  11.072  0.3258 -1.5630 -1.0432
19937TIP3   OH281225   2.451   2.063   4.799  0.4498 -0.4887  0.5657
19937TIP3    H181226   2.396   2.075   4.876 -0.7940  1.1645 -0.5037
19937TIP3    H281227   2.501   2.144   4.793 -1.0036  0.3553 -1.4652
19938TIP3   OH281228   6.477   1.482   3.841 -0.6053  0.2240 -0.0584
19938TIP3    H181229   6.462   1.575   3.821 -0.5622  0.0390 -0.9731
19938TIP3    H281230   6.548   1.483   3.905 -2.4235  0.9677  2.1025
19939TIP3   OH281231   1.011   2.967   4.654  0.0050 -0.1482 -0.1164
19939TIP3    H181232   0.922   2.991   4.682 -0.0869 -0.2098 -0.3574
19939TIP3    H281233   1.061   2.963   4.736 -0.3071 -0.5019  0.0641
19940TIP3   OH281234   0.091   6.434   5.419 -0.0456 -0.2023  0.0840
19940TIP3    H181235   0.002   6.433   5.454 -0.3656 -1.0354 -0.7069
19940TIP3    H281236   0.087   6.378   5.342  1.0193  0.2688 -0.3364
19941TIP3   OH281237   5.129   0.542   0.074 -0.3130 -0.1299  0.0326
19941TIP3    H181238   5.214   0.510   0.105 -0.4881 -1.5518 -0.8867
19941TIP3    H281239   5.065   0.490   0.123 -0.5975 -1.6158 -1.7981
19942TIP3   OH281240   2.362   4.939   0.854  0.1160  0.3808 -0.2024
19942TIP3    H181241   2.323   5.022   0.826 -2.2474 -0.6320 -0.1795
19942TIP3    H281242   2.420   4.962   0.927 -1.2367  1.9260  0.4360
19943TIP3   OH281243   3.481   6.255   1.506  0.2908  0.2129 -0.1832
19943TIP3    H181244   3.475   6.222   1.417 -0.2679  0.0626 -0.0907
19943TIP3    H281245   3.516   6.344   1.496  0.8020 -0.0216 -0.5039
19944TIP3   OH281246   5.418   3.759   6.280  0.1438  0.0660 -0.1727
19944TIP3    H181247   5.499   3.763   6.229 -0.5766  2.1265 -1.2357
19944TIP3    H281248   5.353   3.723   6.220 -0.2343  0.5505 -0.0595
19945TIP3   OH281249   1.588   5.222   3.272 -0.3417  0.1939  0.0484
19945TIP3    H181250   1.544   5.232   3.188 -0.4128  0.3785  0.1081
19945TIP3    H281251   1.660   5.285   3.269  2.0231 -2.3357 -1.4179
19946TIP3   OH281252   6.616   3.181   2.741 -0.2593  0.6121  0.0107
19946TIP3    H181253   6.620   3.165   2.647 -1.5449 -1.5685  0.2635
19946TIP3    H281254   6.524   3.170   2.764 -0.4674  3.7879  1.1753
19947TIP3   OH281255   3.535   2.732   1.327  0.3412 -0.7243  0.6329
19947TIP3    H181256   3.567   2.769   1.245 -0.3422  0.4426  0.8613
19947TIP3    H281257   3.614   2.710   1.376  0.7554 -0.9452 -0.1250
19948TIP3   OH281258   6.459   5.285  15.632  0.4078 -0.0558  0.1202
19948TIP3    H181259   6.466   5.356  15.695  1.8205 -0.6181  0.6499
19948TIP3    H281260   6.452   5.329  15.547  0.3281  0.7083  0.5140
19949TIP3   OH281261   0.904   1.305  14.397  0.2008  0.5920 -0.4101
19949TIP3    H181262   0.997   1.308  14.419 -0.2704  0.5339  1.7654
19949TIP3    H281263   0.861   1.270  14.475 -1.6540  0.4440 -1.4187
19950TIP3   OH281264   0.727   1.261  15.625  0.1617 -0.0830  0.4404
19950TIP3    H181265   0.638   1.297  15.623  0.4476  0.5898 -0.9592
19950TIP3    H281266   0.715   1.166  15.615 -0.4173 -0.0714  0.9425
19951TIP3   OH281267   2.567   4.980   5.003 -0.6368  0.0544  0.4682
19951TIP3    H181268   2.563   4.888   4.978 -0.2380 -0.0601  0.8163
19951TIP3    H281269   2.548   4.981   5.097 -0.1872  0.2768  0.5609
19952TIP3   OH281270   6.223   6.713   4.233  0.1388  0.6029  0.3662
19952TIP3    H181271   6.225   6.762   4.315  1.3209 -1.9966  2.0310
19952TIP3    H281272   6.297   6.747   4.183  0.5950  0.9246  1.2406
19953TIP3   OH281273   1.510   1.038  16.473 -0.3710 -0.1397  0.2129
19953TIP3    H181274   1.605   1.030  16.469 -0.3282  0.7451 -1.3705
19953TIP3    H281275   1.484   1.059  16.383 -1.9600  0.7056  0.8383
19954TIP3   OH281276   2.701   1.048   2.793 -0.2404  0.4499 -0.1850
19954TIP3    H181277   2.700   1.141   2.770  1.2555  1.0464  1.8545
19954TIP3    H281278   2.786   1.017   2.760 -0.3671  0.0170 -0.1032
19955LIG      O81279   4.998   1.622  16.294  0.7357  0.0476  0.2261
19955LIG      N81280   4.919   1.526  16.708 -0.4253  0.5258 -0.1182
19955LIG     C181281   5.032   1.850  16.337  0.5076 -0.2864  0.4388
19955LIG     C281282   5.049   1.712  16.393 -0.2155 -0.5062  0.1115
19955LIG     C381283   5.053   1.969  16.442  0.3421 -0.0565  0.5410
19955LIG     C481284   5.107   1.884  16.205  0.6576  0.5682 -0.5833
19955LIG     C581285   4.959   1.683  16.519  0.6336 -0.2080 -0.4873
19955LIG     C681286   5.022   2.110  16.379  0.2497  0.7992  0.6544
19955LIG     C781287   5.064   2.021  16.145  0.6863 -0.1440 -0.3301
19955LIG     C881288   5.089   2.135  16.244 -0.5654 -0.6605 -1.1189
19955LIG     C981289   4.957   1.538  16.564  0.1243 -0.1894 -0.3815
19955LIG    C1081290   5.205   1.678  16.427 -0.2136  0.0543 -0.3020
19955LIG    C1181291   4.880   1.391  16.755 -0.1143  0.4391  0.0326
19955LIG    C1281292   5.018   1.585  16.805  0.3217  0.0356 -0.5599
19955LIG    C1381293   5.001   1.296  16.765  0.2078 -0.4705  0.1773
19955LIG    C1481294   5.148   1.503  16.817 -0.4033 -0.4711 -0.4946
19955LIG    C1581295   5.118   1.356  16.848  0.2733  0.4202  0.6169
19955LIG    C1681296   5.266   1.741  16.538 -0.7116 -0.5493 -0.1226
19955LIG    C1781297   5.288   1.608  16.334  0.2835 -0.4625  0.0643
19955LIG    C1881298   5.404   1.731  16.562  0.5037  0.6519  0.1399
19955LIG    C1981299   5.421   1.603  16.355 -0.3507  0.3735 -0.0268
19955LIG    C2081300   5.484   1.667  16.462 -0.3821 -0.3599 -0.2963
19955LIG     H181301   4.924   1.857  16.312  0.5301 -2.1547 -0.3732
19955LIG     H281302   5.159   1.972  16.476 -0.0261  0.3472  1.7354
19955LIG     H381303   4.982   1.955  16.527 -0.3040  1.8098  0.3621
19955LIG     H481304   5.074   1.801  16.139  0.4581  0.2819 -0.1241
19955LIG     H581305   5.218   1.886  16.207  0.7127 -0.6240 -1.4985
19955LIG     H681306   4.855   1.704  16.486  0.3484  0.1186  0.5605
19955LIG     H781307   4.978   1.765  16.591 -0.1936  2.2526 -2.9310
19955LIG     H881308   5.044   2.197  16.444  1.6777  0.9554 -0.0060
19955LIG     H981309   4.911   2.109  16.371  0.2435  0.4836  0.7668
19955LIG    H1081310   4.957   2.025  16.115  1.1636  0.1234 -2.1241
19955LIG    H1181311   5.117   2.038  16.049  1.5448  0.1105  0.1802
19955LIG    H1281312   5.199   2.138  16.261 -0.5834 -0.1647 -1.1026
19955LIG    H1381313   5.066   2.230  16.193  0.0452 -0.0521 -0.2996
19955LIG    H1481314   4.888   1.487  16.494  0.9631 -1.3638 -0.3861
19955LIG    H1581315   5.057   1.491  16.551  0.7265  0.1048  2.5198
19955LIG    H1681316   4.810   1.360  16.674  2.2559  1.7808 -2.7179
19955LIG    H1781317   4.829   1.406  16.852  0.1824 -1.2981  0.5008
19955LIG    H1881318   4.978   1.607  16.906  1.1225 -0.4847 -0.1221
19955LIG    H1981319   5.046   1.686  16.768  0.1953  0.9671  1.7048
19955LIG    H2081320   4.908   1.605  16.322  0.6930 -0.6477 -0.3245
19955LIG    H2181321   5.041   1.272  16.664  0.3619  3.0375 -0.7419
19955LIG    H2281322   4.972   1.203  16.819 -1.7521  1.1280  2.0562
19955LIG    H2381323   5.214   1.543  16.898 -1.6395 -2.6017  1.6803
19955LIG    H2481324   5.199   1.517  16.720  0.0602  0.2976 -0.1538
19955LIG    H2581325   5.210   1.303  16.815 -0.3409 -0.1516 -0.2117
19955LIG    H2681326   5.109   1.352  16.959  0.2396 -2.2664  0.5902
19955LIG    H2781327   5.200   1.797  16.603 -2.3952 -1.8707 -0.6122
19955LIG    H2881328   5.241   1.550  16.256 -1.2259 -0.4137  0.8986
19955LIG    H2981329   5.447   1.773  16.652  0.2182  0.5090  0.3449
19955LIG    H3081330   5.475   1.550  16.278 -0.0705  0.7729 -0.1097
19955LIG    H3181331   5.589   1.663  16.484 -0.2302 -0.3519 -0.9967
   6.80661   6.80661  17.14586
